/*--------------------------------*- C++ -*----------------------------------*\
  =========                 |
  \\      /  F ield         | OpenFOAM: The Open Source CFD Toolbox
   \\    /   O peration     | Website:  https://openfoam.org
    \\  /    A nd           | Version:  7
     \\/     M anipulation  |
\*---------------------------------------------------------------------------*/
FoamFile
{
    version     2.0;
    format      ascii;
    class       volScalarField;
    location    "52";
    object      p;
}
// * * * * * * * * * * * * * * * * * * * * * * * * * * * * * * * * * * * * * //

dimensions      [0 2 -2 0 0 0 0];

internalField   nonuniform List<scalar> 
175
(
-0.171281
-0.173913
-0.176081
-0.178154
-0.179806
-0.180725
-0.180722
-0.179742
-0.17781
-0.175002
-0.171422
-0.167185
-0.162411
-0.15722
-0.151727
-0.146044
-0.140272
-0.134505
-0.181658
-0.18486
-0.187215
-0.188463
-0.188838
-0.188453
-0.187305
-0.185377
-0.182681
-0.179265
-0.175207
-0.170601
-0.165551
-0.160164
-0.154543
-0.148791
-0.142999
-0.137255
-0.187276
-0.189876
-0.1915
-0.192581
-0.192976
-0.192514
-0.191147
-0.188913
-0.185883
-0.182142
-0.177788
-0.172924
-0.167655
-0.162087
-0.156325
-0.150465
-0.1446
-0.13881
-0.194425
-0.197043
-0.198662
-0.199196
-0.198759
-0.197496
-0.195461
-0.192677
-0.18918
-0.18504
-0.180341
-0.175182
-0.169665
-0.163892
-0.157963
-0.151974
-0.146011
-0.140156
-0.20034
-0.202532
-0.203659
-0.203882
-0.203223
-0.201655
-0.199237
-0.196044
-0.192156
-0.187657
-0.182637
-0.177193
-0.171427
-0.16544
-0.15933
-0.153191
-0.14711
-0.141164
-0.205754
-0.2077
-0.208578
-0.208426
-0.207325
-0.205359
-0.202571
-0.199023
-0.194795
-0.189976
-0.18466
-0.178947
-0.17294
-0.166739
-0.160443
-0.154144
-0.14793
-0.141877
-0.210472
-0.212151
-0.212742
-0.212314
-0.210923
-0.208636
-0.205525
-0.201663
-0.197134
-0.192028
-0.186443
-0.180481
-0.174244
-0.167836
-0.161354
-0.154892
-0.148538
-0.142367
-0.214538
-0.215999
-0.216362
-0.21569
-0.214047
-0.211499
-0.208121
-0.203992
-0.199202
-0.193843
-0.188018
-0.181828
-0.175379
-0.168774
-0.162113
-0.155491
-0.148996
-0.142704
-0.217968
-0.219259
-0.219442
-0.218577
-0.216729
-0.213969
-0.210372
-0.206023
-0.201013
-0.195439
-0.189404
-0.183013
-0.176373
-0.169589
-0.162762
-0.155989
-0.149357
-0.142947
-0.220771
-0.221936
-0.221984
-0.220975
-0.218972
-0.216047
-0.212278
-0.207753
-0.202565
-0.196813
-0.190603
-0.184041
-0.177237
)
;

boundaryField
{
    inlet
    {
        type            zeroGradient;
    }
    outlet
    {
        type            fixedValue;
        value           nonuniform 0();
    }
    polygon
    {
        type            zeroGradient;
    }
    top
    {
        type            symmetryPlane;
    }
    bottom
    {
        type            symmetryPlane;
    }
    outside
    {
        type            slip;
    }
    procBoundary62to54
    {
        type            processor;
        value           nonuniform List<scalar> 
19
(
-0.170296
-0.163322
-0.156413
-0.149659
-0.143138
-0.222944
-0.224027
-0.223985
-0.222874
-0.22076
-0.217715
-0.21382
-0.209162
-0.203837
-0.197948
-0.191599
-0.184901
-0.170296
-0.177963
)
;
    }
    procBoundary62to61
    {
        type            processor;
        value           nonuniform List<scalar> 9(-0.128827 -0.131635 -0.133171 -0.134478 -0.135423 -0.136053 -0.136449 -0.136685 -0.136826);
    }
    procBoundary62to63
    {
        type            processor;
        value           nonuniform List<scalar> 10(-0.167141 -0.177372 -0.18344 -0.1907 -0.196979 -0.202662 -0.20764 -0.21192 -0.215516 -0.218438);
    }
}


// ************************************************************************* //
