/*--------------------------------*- C++ -*----------------------------------*\
  =========                 |
  \\      /  F ield         | OpenFOAM: The Open Source CFD Toolbox
   \\    /   O peration     | Website:  https://openfoam.org
    \\  /    A nd           | Version:  7
     \\/     M anipulation  |
\*---------------------------------------------------------------------------*/
FoamFile
{
    version     2.0;
    format      ascii;
    class       volScalarField;
    location    "62";
    object      p;
}
// * * * * * * * * * * * * * * * * * * * * * * * * * * * * * * * * * * * * * //

dimensions      [0 2 -2 0 0 0 0];

internalField   nonuniform List<scalar> 
175
(
-0.024447
-0.0276906
-0.0305881
-0.0331181
-0.035261
-0.037008
-0.0383512
-0.0392955
-0.0398461
-0.040011
-0.0398021
-0.0392336
-0.00176635
-0.00558181
-0.00925434
-0.0132584
-0.0170949
-0.0208605
-0.024371
-0.0276034
-0.0304937
-0.0330179
-0.0351602
-0.0369061
-0.0382506
-0.0391973
-0.0397514
-0.0399207
-0.0397167
-0.0391537
-0.0017781
-0.00558907
-0.00926316
-0.0132438
-0.017061
-0.0208086
-0.0243047
-0.0275269
-0.0304103
-0.0329306
-0.0350703
-0.0368155
-0.0381609
-0.0391094
-0.0396661
-0.0398386
-0.0396385
-0.0390799
-0.00178757
-0.00559494
-0.0092703
-0.0132304
-0.0170307
-0.0207623
-0.0242455
-0.0274586
-0.0303358
-0.0328529
-0.0349903
-0.036735
-0.0380813
-0.0390316
-0.0395907
-0.0397664
-0.0395699
-0.0390155
-0.00179505
-0.00559953
-0.00927578
-0.0132181
-0.0170039
-0.0207216
-0.0241936
-0.0273987
-0.0302706
-0.0327847
-0.0349203
-0.0366646
-0.0380119
-0.0389639
-0.0395254
-0.0397041
-0.0395111
-0.0389605
-0.00180084
-0.00560296
-0.00927974
-0.0132073
-0.0169808
-0.0206866
-0.0241491
-0.0273473
-0.0302158
-0.0327264
-0.0348605
-0.0366048
-0.037953
-0.0389066
-0.0394703
-0.0396517
-0.039462
-0.0389151
-0.00180513
-0.00560529
-0.00928225
-0.0131977
-0.0169613
-0.0206573
-0.024112
-0.0273046
-0.0301645
-0.0326783
-0.0348113
-0.0365555
-0.0379047
-0.0388598
-0.0394256
-0.0396096
-0.0394229
-0.0388793
-0.00180808
-0.00560656
-0.0092833
-0.0131895
-0.0169453
-0.0206338
-0.0240825
-0.0272706
-0.0301299
-0.0326404
-0.0347726
-0.036517
-0.0378671
-0.0388237
-0.0393914
-0.0395778
-0.0393939
-0.0388534
-0.00180976
-0.00560673
-0.00928284
-0.0131823
-0.0169326
-0.0206157
-0.0240603
-0.0272457
-0.0301038
-0.0326126
-0.0347444
-0.0364891
-0.0378402
-0.0387982
-0.0393679
-0.0395565
-0.0393751
-0.0388375
-0.00181032
-0.00560581
-0.00928122
-0.0131768
-0.0169236
-0.0206033
-0.0240448
-0.0272275
-0.030085
-0.0325945
-0.0347271
-0.0364729
-0.0378252
-0.0387846
-0.0393557
-0.0395457
-0.0393659
-0.0388301
-0.0018103
)
;

boundaryField
{
    inlet
    {
        type            zeroGradient;
    }
    outlet
    {
        type            fixedValue;
        value           uniform 0;
    }
    polygon
    {
        type            zeroGradient;
    }
    top
    {
        type            symmetryPlane;
    }
    bottom
    {
        type            symmetryPlane;
    }
    outside
    {
        type            slip;
    }
    procBoundary39to31
    {
        type            processor;
        value           nonuniform List<scalar> 
19
(
-0.00560577
-0.00928116
-0.0131767
-0.0169235
-0.0206032
-0.0240447
-0.0272274
-0.030084
-0.0325941
-0.0347268
-0.0364727
-0.037825
-0.0387844
-0.0393554
-0.0395455
-0.0393657
-0.0388299
-0.00560577
-0.00180972
)
;
    }
    procBoundary39to38
    {
        type            processor;
        value           nonuniform List<scalar> 10(-0.0383228 -0.0382487 -0.0381797 -0.0381198 -0.0380691 -0.0380276 -0.0379954 -0.0379728 -0.0379599 -0.0379547);
    }
    procBoundary39to47
    {
        type            processor;
        value           nonuniform List<scalar> 
19
(
-0.00175205
-0.00557422
-0.00924504
-0.0132765
-0.0171348
-0.0209207
-0.0209207
-0.024529
-0.0277836
-0.0306882
-0.0332217
-0.035365
-0.037112
-0.0384528
-0.0393934
-0.0399394
-0.0400987
-0.0398833
-0.0393079
)
;
    }
}


// ************************************************************************* //
