/*--------------------------------*- C++ -*----------------------------------*\
  =========                 |
  \\      /  F ield         | OpenFOAM: The Open Source CFD Toolbox
   \\    /   O peration     | Website:  https://openfoam.org
    \\  /    A nd           | Version:  7
     \\/     M anipulation  |
\*---------------------------------------------------------------------------*/
FoamFile
{
    version     2.0;
    format      ascii;
    class       volScalarField;
    location    "48";
    object      p;
}
// * * * * * * * * * * * * * * * * * * * * * * * * * * * * * * * * * * * * * //

dimensions      [0 2 -2 0 0 0 0];

internalField   nonuniform List<scalar> 
125
(
-0.0648417
-0.0659785
-0.0671492
-0.0683532
-0.0695899
-0.0708581
-0.0721566
-0.0734836
-0.0748369
-0.076214
-0.0776119
-0.0790267
-0.0804541
-0.0818888
-0.0833245
-0.0847539
-0.086168
-0.0647614
-0.0658944
-0.0670611
-0.0682609
-0.0694934
-0.0707576
-0.072052
-0.073375
-0.0747244
-0.0760978
-0.0774919
-0.0789031
-0.0803271
-0.0817585
-0.0831911
-0.0846174
-0.0860285
-0.0646992
-0.0780769
-0.079462
-0.080847
-0.0822235
-0.0835816
-0.0632356
-0.0643272
-0.0654534
-0.0666139
-0.0678082
-0.0690354
-0.0702943
-0.0715832
-0.0729002
-0.0742431
-0.0756089
-0.0769942
-0.078395
-0.0798063
-0.0812222
-0.0826357
-0.084038
-0.0633886
-0.0644854
-0.065617
-0.0667833
-0.0679836
-0.0692173
-0.0704833
-0.07178
-0.0731058
-0.0744585
-0.0758355
-0.0772337
-0.0786493
-0.080078
-0.0815144
-0.0829522
-0.0843836
-0.0635191
-0.0646197
-0.0657551
-0.0669251
-0.0681293
-0.069367
-0.0706371
-0.0719384
-0.073269
-0.074627
-0.0760099
-0.077415
-0.0788383
-0.0802759
-0.0817227
-0.0831729
-0.0846192
-0.0636286
-0.0647316
-0.0658692
-0.0670413
-0.0682475
-0.069487
-0.070759
-0.072062
-0.0733944
-0.0747542
-0.0761389
-0.0775457
-0.078971
-0.0804107
-0.0818599
-0.0833127
-0.0847621
-0.06374
-0.0648456
-0.0659857
-0.0671599
-0.068368
-0.0696091
-0.0708823
-0.0721862
-0.0735192
-0.074879
-0.0762634
-0.0776691
-0.0790928
-0.08053
-0.0819759
-0.0834243
-0.0848682
)
;

boundaryField
{
    inlet
    {
        type            zeroGradient;
    }
    outlet
    {
        type            fixedValue;
        value           nonuniform 0();
    }
    polygon
    {
        type            zeroGradient;
    }
    top
    {
        type            symmetryPlane;
    }
    bottom
    {
        type            symmetryPlane;
    }
    outside
    {
        type            slip;
    }
    procBoundary43to35
    {
        type            processor;
        value           nonuniform List<scalar> 
18
(
-0.065827
-0.0669886
-0.0681837
-0.0694111
-0.0706698
-0.0719585
-0.0732757
-0.0746193
-0.0759866
-0.0773747
-0.0787797
-0.0801975
-0.0816226
-0.0830488
-0.0844686
-0.0858732
-0.065827
-0.0646213
)
;
    }
    procBoundary43to42
    {
        type            processor;
        value           nonuniform List<scalar> 8(-0.0875563 -0.0862992 -0.0874138 -0.085419 -0.0857996 -0.0860532 -0.0862 -0.0862992);
    }
    procBoundary43to44
    {
        type            processor;
        value           nonuniform List<scalar> 9(-0.0637389 -0.0637389 -0.0636623 -0.0636053 -0.0621787 -0.0623264 -0.0624532 -0.06256 -0.0626686);
    }
    procBoundary43to50
    {
        type            processor;
        value           uniform -0.0849092;
    }
    procBoundary43to51
    {
        type            processor;
        value           nonuniform List<scalar> 
18
(
-0.0777021
-0.0790525
-0.0803958
-0.0817221
-0.0830195
-0.0630611
-0.0641461
-0.0652653
-0.0664183
-0.0676045
-0.0688228
-0.0700718
-0.0713496
-0.0726541
-0.0739827
-0.075332
-0.0766983
-0.0766983
)
;
    }
}


// ************************************************************************* //
