/*--------------------------------*- C++ -*----------------------------------*\
  =========                 |
  \\      /  F ield         | OpenFOAM: The Open Source CFD Toolbox
   \\    /   O peration     | Website:  https://openfoam.org
    \\  /    A nd           | Version:  7
     \\/     M anipulation  |
\*---------------------------------------------------------------------------*/
FoamFile
{
    version     2.0;
    format      ascii;
    class       surfaceScalarField;
    location    "68";
    object      phi;
}
// * * * * * * * * * * * * * * * * * * * * * * * * * * * * * * * * * * * * * //

dimensions      [0 3 -1 0 0 0 0];

internalField   nonuniform List<scalar> 
15760
(
0.000966247
1.40809e-06
-1.97769e-06
0.000967611
5.02212e-06
-6.38597e-06
0.000969721
9.36768e-06
-1.14779e-05
0.000972353
1.30173e-05
-1.56495e-05
0.000975232
1.52375e-05
-1.81164e-05
0.000978121
1.58269e-05
-1.87158e-05
0.000980822
1.47662e-05
-1.74672e-05
0.000983169
1.21436e-05
-1.44905e-05
0.000985023
8.11784e-06
-9.97256e-06
0.000986273
2.88201e-06
-4.1315e-06
0.000986837
-3.39977e-06
2.83589e-06
0.000986644
-1.05204e-05
1.07129e-05
0.000985646
-1.82716e-05
1.92694e-05
0.000983811
-2.6481e-05
2.83166e-05
0.000981119
-3.49864e-05
3.76778e-05
0.000977567
-4.36391e-05
4.71916e-05
0.00097316
-5.2303e-05
5.67104e-05
0.000967914
-6.08534e-05
6.60989e-05
0.000961857
-6.91755e-05
7.5233e-05
0.000955023
-7.71661e-05
8.39996e-05
0.000947458
-8.47291e-05
9.2294e-05
0.000939214
-9.17765e-05
0.00010002
0.000930351
-9.82281e-05
0.000107092
0.000920933
-0.000104013
0.00011343
0.000911034
-0.00010907
0.000118969
0.000900729
-0.00011335
0.000123655
0.000890097
-0.000116815
0.000127447
0.000879219
-0.000119442
0.00013032
0.000868176
-0.000121219
0.000132262
0.000857048
-0.00012215
0.000133278
0.000845913
-0.000122251
0.000133387
0.000834843
-0.00012155
0.00013262
0.000823906
-0.000120089
0.000131026
0.000813166
-0.00011792
0.00012866
0.000802676
-0.000115103
0.000125592
0.000792486
-0.000111708
0.000121898
0.000782635
-0.000107808
0.000117659
0.000773155
-0.000103481
0.000112961
0.000764072
-9.88076e-05
0.000107891
0.000755402
-9.38649e-05
0.000102535
0.000747157
-8.87282e-05
9.69734e-05
0.00073934
-8.34636e-05
9.12811e-05
0.000731947
-7.81346e-05
8.55267e-05
0.000724974
-7.27967e-05
7.97701e-05
0.000718408
-6.74987e-05
7.40648e-05
0.000712234
-6.22819e-05
6.84562e-05
0.000706432
-5.71805e-05
6.29819e-05
0.000700982
-5.22228e-05
5.76736e-05
0.000695856
-4.7433e-05
5.25585e-05
0.000691027
-4.28323e-05
4.7661e-05
0.000686464
-3.84406e-05
4.30038e-05
0.000682132
-3.42779e-05
3.86098e-05
0.000677995
-3.03652e-05
3.45022e-05
0.000674014
-2.67239e-05
3.07049e-05
0.000670149
-2.33763e-05
2.72417e-05
0.000666358
-2.03435e-05
2.41347e-05
0.000662599
-1.76442e-05
2.14031e-05
0.000658831
-1.52937e-05
1.90613e-05
0.000655015
-1.33021e-05
1.71187e-05
0.00065111
-1.16737e-05
1.55779e-05
0.000647082
-1.04076e-05
1.44362e-05
0.000642894
-9.49812e-06
1.36858e-05
0.000638516
-8.93923e-06
1.33176e-05
0.000633916
-8.7147e-06
1.3314e-05
0.000629068
-8.8098e-06
1.36583e-05
0.000623942
-9.20757e-06
1.43334e-05
0.000618512
-9.89645e-06
1.53271e-05
0.000612748
-1.08674e-05
1.66311e-05
0.000606622
-1.21155e-05
1.82417e-05
0.000600104
-1.36512e-05
2.01685e-05
0.000593163
-1.54754e-05
2.24163e-05
0.000585765
-1.76102e-05
2.50087e-05
0.000577873
-2.00788e-05
2.79711e-05
0.000569447
-2.29112e-05
3.13372e-05
0.000560443
-2.61465e-05
3.51498e-05
0.000550815
-2.98338e-05
3.9462e-05
0.00054051
-3.40327e-05
4.4338e-05
0.00052947
-3.88152e-05
4.98552e-05
0.000517632
-4.42665e-05
5.61041e-05
0.000504927
-5.0489e-05
6.31937e-05
0.000491279
-5.76064e-05
7.12548e-05
0.000476602
-6.57679e-05
8.04447e-05
0.000460804
-7.51558e-05
9.09543e-05
0.000443781
-8.59947e-05
0.000103018
0.000425421
-9.85629e-05
0.000116923
0.000405603
-0.000113213
0.000133031
0.000384198
-0.000130382
0.000151787
0.000361068
-0.00015068
0.00017381
0.00033609
-0.000174806
0.000199784
0.000309157
-0.000203801
0.000230734
0.00028022
-0.000238876
0.000267812
0.000249313
-0.000281993
0.0003129
0.000216798
-0.000335026
0.000367541
0.000182911
-0.000401754
0.000435641
0.000150041
-0.000485266
0.000518136
0.000117911
-0.000585677
0.000617807
9.50684e-05
-0.000718134
0.000740977
7.35953e-05
-0.000812367
0.00083384
5.051e-05
-0.000956942
0.000980027
-0.000558965
0.000609475
0.00101652
1.00132e-06
0.0010176
3.94041e-06
0.00101936
7.60544e-06
0.00102163
1.0749e-05
0.00102416
1.27089e-05
0.00102672
1.32643e-05
0.00102912
1.23682e-05
0.00103118
1.00822e-05
0.00103276
6.53902e-06
0.00103374
1.90485e-06
0.00103402
-3.68445e-06
0.00103354
-1.00345e-05
0.00103223
-1.69613e-05
0.00103005
-2.43092e-05
0.001027
-3.19318e-05
0.00102305
-3.96941e-05
0.00101822
-4.74725e-05
0.00101252
-5.51537e-05
0.00100598
-6.26333e-05
0.000998634
-6.9818e-05
0.000990526
-7.66213e-05
0.000981712
-8.29631e-05
0.000972255
-8.87709e-05
0.000962223
-9.39805e-05
0.00095169
-9.8537e-05
0.000940736
-0.000102396
0.000929443
-0.000105522
0.000917895
-0.000107895
0.000906178
-0.000109503
0.000894376
-0.000110348
0.000882569
-0.000110444
0.000870836
-0.000109817
0.00085925
-0.000108503
0.000847876
-0.000106546
0.000836776
-0.000104002
0.000826
-0.000100932
0.000815594
-9.74015e-05
0.000805593
-9.34809e-05
0.000796027
-8.92411e-05
0.000786915
-8.47535e-05
0.000778272
-8.00853e-05
0.000770104
-7.52953e-05
0.000762411
-7.04412e-05
0.000755188
-6.55736e-05
0.000748425
-6.07364e-05
0.00074211
-5.59669e-05
0.000736225
-5.12955e-05
0.00073075
-4.67476e-05
0.000725661
-4.2344e-05
0.000720932
-3.81033e-05
0.000716534
-3.40424e-05
0.000712435
-3.01788e-05
0.0007086
-2.65307e-05
0.000704994
-2.31173e-05
0.000701576
-1.99588e-05
0.000698308
-1.70748e-05
0.000695147
-1.44836e-05
0.000692053
-1.22e-05
0.000688986
-1.02346e-05
0.000685905
-8.59304e-06
0.000682773
-7.27541e-06
0.000679553
-6.27822e-06
0.000676213
-5.59885e-06
0.00067272
-5.22235e-06
0.000669045
-5.13478e-06
0.000665158
-5.32037e-06
0.00066103
-5.76866e-06
0.000656633
-6.47051e-06
0.000651939
-7.42083e-06
0.000646916
-8.62856e-06
0.000641533
-1.00919e-05
0.000635755
-1.18327e-05
0.000629547
-1.38708e-05
0.000622869
-1.62328e-05
0.000615675
-1.89533e-05
0.000607919
-2.20772e-05
0.000599545
-2.56587e-05
0.000590493
-2.97639e-05
0.000580698
-3.44708e-05
0.000570083
-3.98741e-05
0.000558565
-4.60881e-05
0.000546048
-5.32515e-05
0.000532427
-6.15341e-05
0.000517578
-7.11466e-05
0.000501366
-8.23509e-05
0.000483635
-9.5482e-05
0.00046421
-0.000110957
0.000442888
-0.000129358
0.000419456
-0.000151374
0.000393678
-0.000178023
0.000365327
-0.000210525
0.000334159
-0.000250826
0.000300158
-0.000301025
0.000263024
-0.000364619
0.000224012
-0.000446255
0.000182335
-0.000544
0.000142428
-0.000678227
9.97806e-05
-0.000769719
4.1033e-05
-0.000898194
-0.000517932
0.0010616
7.10321e-07
0.00106246
3.08124e-06
0.00106393
6.12814e-06
0.00106589
8.79111e-06
0.00106811
1.04862e-05
0.00107039
1.09903e-05
0.00107252
1.02397e-05
0.00107432
8.2743e-06
0.00107566
5.20306e-06
0.0010764
1.16771e-06
0.00107644
-3.72566e-06
0.0010757
-9.29465e-06
0.00107412
-1.53811e-05
0.00107166
-2.18474e-05
0.00106829
-2.85636e-05
0.001064
-3.54095e-05
0.00105881
-4.22748e-05
0.00105271
-4.90585e-05
0.00104575
-5.56674e-05
0.00103795
-6.20184e-05
0.00102936
-6.80352e-05
0.00102004
-7.36461e-05
0.00101006
-7.87869e-05
0.000999478
-8.34004e-05
0.000988379
-8.74377e-05
0.000976843
-9.0859e-05
0.000964954
-9.3634e-05
0.000952802
-9.57424e-05
0.000940474
-9.71746e-05
0.000928058
-9.79318e-05
0.000915639
-9.80255e-05
0.000903299
-9.74772e-05
0.000891115
-9.63181e-05
0.000879156
-9.45881e-05
0.000867489
-9.23344e-05
0.000856167
-8.96106e-05
0.000845241
-8.64751e-05
0.000834749
-8.29893e-05
0.000824724
-7.92161e-05
0.00081519
-7.52189e-05
0.000806162
-7.10573e-05
0.000797649
-6.67829e-05
0.000789655
-6.24468e-05
0.000782176
-5.80943e-05
0.000775204
-5.37646e-05
0.000768727
-4.94905e-05
0.000762731
-4.52991e-05
0.000757196
-4.12123e-05
0.0007521
-3.72482e-05
0.000747419
-3.34225e-05
0.000743126
-2.97495e-05
0.000739192
-2.62441e-05
0.000735583
-2.29219e-05
0.000732265
-1.97997e-05
0.000729202
-1.68953e-05
0.000726354
-1.42268e-05
0.000723681
-1.18108e-05
0.000721143
-9.66186e-06
0.000718699
-7.79048e-06
0.000716308
-6.20268e-06
0.000713932
-4.89944e-06
0.000711533
-3.87876e-06
0.000709075
-3.14061e-06
0.000706524
-2.67175e-06
0.000703852
-2.4629e-06
0.000701028
-2.49603e-06
0.000698021
-2.76194e-06
0.000694802
-3.25101e-06
0.000691335
-3.95435e-06
0.000687599
-4.89216e-06
0.000683559
-6.05177e-06
0.000679178
-7.45251e-06
0.000674423
-9.11542e-06
0.000669252
-1.10621e-05
0.000663622
-1.33225e-05
0.000657481
-1.59366e-05
0.000650775
-1.89529e-05
0.000643442
-2.24305e-05
0.000635411
-2.64396e-05
0.000626602
-3.10656e-05
0.000616926
-3.64116e-05
0.000606278
-4.26034e-05
0.000594539
-4.97953e-05
0.000581572
-5.81796e-05
0.000567217
-6.79962e-05
0.000551289
-7.95539e-05
0.000533571
-9.32387e-05
0.000513803
-0.000109591
0.00049169
-0.000129261
0.000466877
-0.00015321
0.00043897
-0.000182617
0.00040747
-0.000219326
0.000371979
-0.000265534
0.00033169
-0.00032433
0.000286841
-0.000401406
0.000236048
-0.000493207
0.000180664
-0.000622843
0.000120101
-0.000709156
4.05616e-05
-0.000818655
-0.00047737
0.00110134
5.02048e-07
0.00110203
2.39241e-06
0.00110328
4.88171e-06
0.00110498
7.09316e-06
0.00110694
8.52545e-06
0.00110896
8.96684e-06
0.00111085
8.34642e-06
0.00111244
6.68778e-06
0.00111356
4.07849e-06
0.00111409
6.37226e-07
0.00111393
-3.55786e-06
0.00111297
-8.3381e-06
0.00111116
-1.35717e-05
0.00110845
-1.91397e-05
0.00110482
-2.49294e-05
0.00110025
-3.08362e-05
0.00109474
-3.67642e-05
0.0010883
-4.26252e-05
0.00108097
-4.83379e-05
0.00107278
-5.383e-05
0.00106378
-5.90358e-05
0.00105403
-6.38927e-05
0.00104359
-6.83446e-05
0.00103253
-7.23419e-05
0.00102093
-7.58422e-05
0.00100889
-7.88108e-05
0.000996474
-8.1221e-05
0.000983786
-8.30552e-05
0.000970916
-8.43045e-05
0.000957954
-8.49695e-05
0.000944988
-8.50596e-05
0.000932104
-8.4593e-05
0.000919382
-8.35959e-05
0.000906896
-8.21023e-05
0.000894714
-8.01527e-05
0.000882897
-7.7793e-05
0.000871495
-7.50733e-05
0.000860552
-7.20466e-05
0.000850103
-6.87673e-05
0.000840175
-6.52904e-05
0.000830786
-6.16682e-05
0.000821947
-5.79441e-05
0.000813663
-5.41629e-05
0.000805933
-5.03641e-05
0.00079875
-4.65818e-05
0.000792104
-4.28447e-05
0.000785981
-3.91759e-05
0.000780363
-3.55943e-05
0.00077523
-3.21152e-05
0.000770559
-2.87516e-05
0.000766325
-2.55157e-05
0.0007625
-2.24194e-05
0.000759055
-1.9476e-05
0.000755955
-1.66997e-05
0.000753165
-1.41061e-05
0.00075065
-1.1711e-05
0.000748368
-9.52946e-06
0.000746281
-7.57472e-06
0.000744348
-5.85686e-06
0.000742527
-4.38188e-06
0.000740778
-3.15092e-06
0.000739062
-2.16287e-06
0.000737346
-1.42396e-06
0.000735594
-9.20585e-07
0.00073377
-6.38362e-07
0.000731842
-5.68231e-07
0.000729781
-7.01078e-07
0.000727556
-1.0262e-06
0.000725147
-1.54499e-06
0.000722508
-2.25258e-06
0.000719607
-3.15112e-06
0.000716419
-4.26423e-06
0.000712902
-5.59914e-06
0.000709018
-7.17772e-06
0.00070472
-9.02499e-06
0.000699959
-1.11755e-05
0.000694678
-1.36715e-05
0.000688812
-1.65647e-05
0.000682289
-1.99165e-05
0.000675025
-2.38016e-05
0.000666924
-2.83107e-05
0.000657875
-3.35545e-05
0.000647749
-3.96692e-05
0.000636394
-4.6825e-05
0.000623633
-5.52347e-05
0.000609253
-6.5174e-05
0.000593002
-7.69881e-05
0.000574572
-9.1161e-05
0.000553596
-0.000108285
0.000529616
-0.00012923
0.000502091
-0.000155092
0.000470301
-0.000187535
0.000433502
-0.000228735
0.000390443
-0.00028127
0.000340451
-0.000351414
0.000281667
-0.000434424
0.000213109
-0.000554285
0.000137527
-0.000633573
4.40882e-05
-0.000725216
-0.000433282
0.00113564
3.52188e-07
0.0011362
1.83204e-06
0.00113726
3.81873e-06
0.00113874
5.60821e-06
0.00114049
6.78369e-06
0.0011423
7.15565e-06
0.00114399
6.65388e-06
0.00114539
5.29031e-06
0.00114633
3.13345e-06
0.00114669
2.81113e-07
0.00114634
-3.21476e-06
0.00114521
-7.20088e-06
0.00114321
-1.1572e-05
0.0011403
-1.62283e-05
0.00113644
-2.10749e-05
0.00113163
-2.60237e-05
0.00112586
-3.09937e-05
0.00111914
-3.59102e-05
0.00111151
-4.07044e-05
0.001103
-4.53156e-05
0.00109365
-4.96885e-05
0.00108353
-5.37703e-05
0.0010727
-5.75135e-05
0.00106123
-6.08764e-05
0.00104921
-6.3823e-05
0.00103672
-6.6324e-05
0.00102386
-6.83569e-05
0.00101071
-6.99066e-05
0.000997372
-7.09653e-05
0.000983935
-7.15331e-05
0.000970493
-7.16175e-05
0.000957133
-7.12333e-05
0.00094394
-7.04023e-05
0.00093099
-6.91525e-05
0.000918355
-6.75175e-05
0.000906097
-6.55355e-05
0.000894272
-6.32484e-05
0.000882926
-6.07005e-05
0.000872096
-5.79374e-05
0.000861812
-5.50059e-05
0.000852094
-5.19501e-05
0.000842955
-4.88055e-05
0.000834402
-4.56099e-05
0.000826435
-4.23971e-05
0.000819049
-3.91959e-05
0.000812235
-3.60304e-05
0.000805979
-3.29202e-05
0.000800266
-2.98808e-05
0.000795075
-2.6925e-05
0.000790387
-2.40633e-05
0.000786177
-2.13055e-05
0.000782419
-1.86613e-05
0.000779084
-1.61414e-05
0.000776142
-1.37577e-05
0.000773559
-1.15231e-05
0.000771299
-9.45111e-06
0.000769325
-7.55478e-06
0.000767596
-5.84582e-06
0.000766072
-4.3334e-06
0.000764714
-3.02319e-06
0.000763478
-1.9154e-06
0.000762326
-1.01036e-06
0.000761216
-3.1448e-07
0.000760114
1.81711e-07
0.000758997
4.78179e-07
0.000757823
6.05871e-07
0.000756559
5.62928e-07
0.000755175
3.58555e-07
0.000753612
1.7195e-08
0.00075189
-5.30649e-07
0.000749959
-1.21988e-06
0.000747765
-2.07013e-06
0.000745286
-3.12045e-06
0.000742481
-4.37222e-06
0.000739302
-5.84658e-06
0.0007357
-7.57316e-06
0.000731616
-9.5878e-06
0.000726986
-1.1934e-05
0.000721733
-1.46637e-05
0.000715772
-1.78403e-05
0.000709002
-2.15406e-05
0.000701306
-2.58585e-05
0.000692547
-3.09101e-05
0.000682562
-3.68406e-05
0.000671159
-4.38316e-05
0.000658105
-5.21195e-05
0.000643118
-6.20014e-05
0.00062585
-7.38932e-05
0.000605876
-8.83108e-05
0.000582654
-0.000106008
0.000555519
-0.000127957
0.000523571
-0.000155587
0.00048577
-0.000190934
0.000440518
-0.000236019
0.000386305
-0.000297201
0.000321005
-0.000369124
0.000241729
-0.000475009
0.000153687
-0.000545531
4.99747e-05
-0.000621504
-0.000383307
0.00116437
2.4303e-07
0.00116484
1.36687e-06
0.00116576
2.89825e-06
0.00116707
4.29328e-06
0.00116864
5.22005e-06
0.00117027
5.51922e-06
0.0011718
5.12752e-06
0.00117304
4.0494e-06
0.00117384
2.33625e-06
0.00117405
6.7642e-08
0.00117357
-2.72924e-06
0.00117228
-5.91789e-06
0.00117013
-9.41962e-06
0.00116706
-1.31539e-05
0.00116303
-1.70443e-05
0.00115802
-2.10198e-05
0.00115204
-2.50147e-05
0.0011451
-2.89686e-05
0.00113722
-3.28258e-05
0.00112844
-3.6537e-05
0.00111881
-4.00585e-05
0.00110839
-4.3347e-05
0.00109724
-4.63642e-05
0.00108544
-4.90762e-05
0.00107307
-5.14542e-05
0.00106022
-5.34742e-05
0.00104698
-5.5118e-05
0.00103345
-5.63733e-05
0.00101972
-5.72335e-05
0.00100588
-5.76986e-05
0.000992041
-5.77741e-05
0.000978279
-5.74719e-05
0.000964686
-5.68089e-05
0.000951341
-5.58076e-05
0.000938318
-5.44946e-05
0.000925683
-5.29006e-05
0.000913494
-5.1059e-05
0.000901799
-4.90053e-05
0.000890638
-4.67764e-05
0.000880042
-4.44101e-05
0.000870034
-4.19424e-05
0.000860629
-3.94007e-05
0.000851835
-3.68159e-05
0.000843654
-3.42154e-05
0.000836081
-3.16228e-05
0.000829108
-2.90574e-05
0.000822723
-2.6535e-05
0.00081691
-2.40682e-05
0.000811652
-2.1667e-05
0.000806928
-1.93397e-05
0.000802717
-1.70938e-05
0.000798992
-1.49369e-05
0.000795728
-1.28774e-05
0.000792895
-1.09246e-05
0.000790461
-9.08898e-06
0.000788391
-7.38136e-06
0.000786649
-5.81258e-06
0.000785196
-4.39239e-06
0.000783991
-3.12853e-06
0.000782993
-2.02564e-06
0.000782161
-1.08341e-06
0.000781455
-3.03714e-07
0.000780839
3.00927e-07
0.000780281
7.39409e-07
0.000779727
1.03261e-06
0.000779151
1.18157e-06
0.000778521
1.19339e-06
0.000777804
1.07545e-06
0.000776997
8.2459e-07
0.000776017
4.49168e-07
0.000774834
-3.7484e-08
0.000773469
-7.04822e-07
0.000771841
-1.49215e-06
0.000769919
-2.45018e-06
0.000767658
-3.58566e-06
0.000765007
-4.92196e-06
0.000761907
-6.4883e-06
0.000758293
-8.31975e-06
0.000754087
-1.04583e-05
0.000749202
-1.29551e-05
0.000743534
-1.58722e-05
0.000736961
-1.92859e-05
0.000729341
-2.329e-05
0.000720503
-2.80025e-05
0.000710243
-3.35712e-05
0.000698312
-4.01887e-05
0.000684408
-4.80975e-05
0.000668152
-5.76369e-05
0.000649074
-6.92328e-05
0.000626568
-8.35021e-05
0.000599873
-0.000101262
0.000567951
-0.000123665
0.000529522
-0.000152505
0.000482743
-0.000189239
0.000425365
-0.000239824
0.000355133
-0.000298892
0.000267575
-0.000387451
0.000169407
-0.000447362
5.73253e-05
-0.000509423
-0.000325982
0.00118747
1.61661e-07
0.00118787
9.70557e-07
0.00118868
2.08508e-06
0.00118986
3.10937e-06
0.00119129
3.79588e-06
0.00119279
4.02094e-06
0.00119418
3.73309e-06
0.0011953
2.93263e-06
0.00119598
1.656e-06
0.00119608
-3.56369e-08
0.00119548
-2.13294e-06
0.00119409
-4.52298e-06
0.00119182
-7.15082e-06
0.00118862
-9.95576e-06
0.00118446
-1.28803e-05
0.00117931
-1.58706e-05
0.00117317
-1.88773e-05
0.00116606
-2.18544e-05
0.00115799
-2.47596e-05
0.00114901
-2.75558e-05
0.00113916
-3.02106e-05
0.00112851
-3.26908e-05
0.00111711
-3.49674e-05
0.00110505
-3.70148e-05
0.00109241
-3.88112e-05
0.00107927
-4.03384e-05
0.00106573
-4.15827e-05
0.0010519
-4.25345e-05
0.00103785
-4.31889e-05
0.0010237
-4.35455e-05
0.00100953
-4.36084e-05
0.000995446
-4.33862e-05
0.000981529
-4.28916e-05
0.000967863
-4.21413e-05
0.000954523
-4.11552e-05
0.000941579
-3.99562e-05
0.000929089
-3.85693e-05
0.000917105
-3.70213e-05
0.000905669
-3.53398e-05
0.000894812
-3.35537e-05
0.000884561
-3.16907e-05
0.00087493
-2.97701e-05
0.00086593
-2.78155e-05
0.000857562
-2.58479e-05
0.000849825
-2.38853e-05
0.00084271
-2.19424e-05
0.000836206
-2.0031e-05
0.000830298
-1.81606e-05
0.00082497
-1.63386e-05
0.000820201
-1.45712e-05
0.000815971
-1.28639e-05
0.000812257
-1.12222e-05
0.000809032
-9.65232e-06
0.000806268
-8.16112e-06
0.000803935
-6.7564e-06
0.000802001
-5.44643e-06
0.000800427
-4.2395e-06
0.000799178
-3.1432e-06
0.000798213
-2.16376e-06
0.000797493
-1.30479e-06
0.000796973
-5.64155e-07
0.000796606
6.38091e-08
0.000796375
5.32089e-07
0.000796219
8.95527e-07
0.00079611
1.14123e-06
0.00079601
1.28161e-06
0.000795885
1.31846e-06
0.000795703
1.25757e-06
0.000795424
1.1032e-06
0.000795034
8.39169e-07
0.000794514
4.82266e-07
0.000793757
5.23242e-08
0.000792802
-5.36719e-07
0.000791579
-1.22753e-06
0.000790045
-2.05167e-06
0.000788149
-3.02535e-06
0.000785831
-4.17091e-06
0.000783026
-5.51483e-06
0.000779657
-7.08872e-06
0.000775633
-8.93102e-06
0.000770849
-1.10886e-05
0.000765182
-1.36188e-05
0.000758485
-1.65927e-05
0.000750581
-2.00993e-05
0.00074126
-2.42504e-05
0.000730263
-2.91917e-05
0.000717273
-3.51071e-05
0.00070189
-4.22535e-05
0.000683613
-5.09566e-05
0.000661794
-6.16828e-05
0.000635601
-7.5069e-05
0.000603904
-9.1968e-05
0.000565238
-0.000113839
0.000517612
-0.000141614
0.000458165
-0.000180376
0.000384606
-0.000225334
0.000291115
-0.000293959
0.000185083
-0.00034133
6.57879e-05
-0.000390128
-0.000260194
0.00120486
9.85918e-08
0.00120521
6.21998e-07
0.00120594
1.34876e-06
0.00120703
2.02105e-06
0.00120835
2.47468e-06
0.00120975
2.62534e-06
0.00121104
2.43684e-06
0.00121207
1.90798e-06
0.00121266
1.06235e-06
0.00121269
-6.12293e-08
0.00121201
-1.45668e-06
0.00121054
-3.04891e-06
0.00120819
-4.80066e-06
0.0012049
-6.67182e-06
0.00120065
-8.62396e-06
0.0011954
-1.06211e-05
0.00118915
-1.26301e-05
0.00118192
-1.46202e-05
0.00117372
-1.65625e-05
0.0011646
-1.84324e-05
0.00115459
-2.02089e-05
0.00114377
-2.18693e-05
0.0011322
-2.3394e-05
0.00111995
-2.47659e-05
0.00110711
-2.59703e-05
0.00109377
-2.69952e-05
0.00108002
-2.78311e-05
0.00106595
-2.84716e-05
0.00105168
-2.89133e-05
0.00103729
-2.91559e-05
0.00102288
-2.92021e-05
0.00100855
-2.90573e-05
0.00099439
-2.87301e-05
0.00098048
-2.82314e-05
0.0009669
-2.75744e-05
0.000953718
-2.67745e-05
0.000940997
-2.58481e-05
0.000928789
-2.48133e-05
0.000917137
-2.36883e-05
0.000906077
-2.24929e-05
0.000895632
-2.12461e-05
0.000885821
-1.99593e-05
0.000876654
-1.86488e-05
0.000868136
-1.7329e-05
0.000860262
-1.60121e-05
0.000853028
-1.47079e-05
0.000846421
-1.34244e-05
0.000840429
-1.21678e-05
0.000835033
-1.09432e-05
0.000830217
-9.75458e-06
0.000825958
-8.60554e-06
0.000822236
-7.49971e-06
0.000819024
-6.4411e-06
0.000816298
-5.43427e-06
0.000814026
-4.48439e-06
0.000812176
-3.59699e-06
0.000810714
-2.77766e-06
0.000809603
-2.03156e-06
0.000808802
-1.36286e-06
0.00080827
-7.73386e-07
0.000807968
-2.62274e-07
0.00080787
1.62229e-07
0.000807905
4.9748e-07
0.000808049
7.51303e-07
0.000808259
9.30927e-07
0.000808502
1.03873e-06
0.000808744
1.07697e-06
0.000808952
1.04923e-06
0.000809098
9.57321e-07
0.000809138
7.99219e-07
0.000809038
5.81818e-07
0.000808806
2.84957e-07
0.00080834
-7.13891e-08
0.000807639
-5.26121e-07
0.000806647
-1.06027e-06
0.000805316
-1.69404e-06
0.000803587
-2.44164e-06
0.000801393
-3.3208e-06
0.000798657
-4.35259e-06
0.000795288
-5.56265e-06
0.000791182
-6.98218e-06
0.000786213
-8.64951e-06
0.000780232
-1.06119e-05
0.000773061
-1.29288e-05
0.000764486
-1.56748e-05
0.000754241
-1.8947e-05
0.000742002
-2.28685e-05
0.000727359
-2.76102e-05
0.000709794
-3.33913e-05
0.000688632
-4.0521e-05
0.000662999
-4.94357e-05
0.000631718
-6.06868e-05
0.000593189
-7.53103e-05
0.000545374
-9.37989e-05
0.000484921
-0.000119924
0.000409603
-0.000150015
0.000312426
-0.000196783
0.000200849
-0.000229753
7.51498e-05
-0.000264429
-0.000185044
0.00121648
4.66674e-08
0.0012168
3.03737e-07
0.00121749
6.62403e-07
0.00121851
9.9569e-07
0.00121977
1.22178e-06
0.00122109
1.29795e-06
0.00122232
1.20547e-06
0.00122329
9.43184e-07
0.00122383
5.22446e-07
0.0012238
-3.3855e-08
0.00122308
-7.33478e-07
0.00122156
-1.52795e-06
0.00121916
-2.40318e-06
0.00121583
-3.33866e-06
0.00121152
-4.31516e-06
0.00120621
-5.31462e-06
0.0011999
-6.32044e-06
0.0011926
-7.31712e-06
0.00118433
-8.28996e-06
0.00117512
-9.22654e-06
0.00116503
-1.01172e-05
0.00115411
-1.09499e-05
0.00114243
-1.17149e-05
0.00113007
-1.24036e-05
0.00111711
-1.30086e-05
0.00110364
-1.35238e-05
0.00108975
-1.39445e-05
0.00107554
-1.42674e-05
0.00106112
-1.44908e-05
0.00104658
-1.46144e-05
0.00103202
-1.46396e-05
0.00101753
-1.45691e-05
0.00100321
-1.4407e-05
0.000989134
-1.41588e-05
0.000975391
-1.38311e-05
0.000962048
-1.34315e-05
0.000949168
-1.29682e-05
0.000936805
-1.24502e-05
0.000925003
-1.18867e-05
0.000913798
-1.1288e-05
0.000903216
-1.06637e-05
0.000893275
-1.00181e-05
0.000883986
-9.36039e-06
0.000875355
-8.69792e-06
0.00086738
-8.03672e-06
0.000860054
-7.38177e-06
0.000853366
-6.73708e-06
0.000847304
-6.1058e-06
0.000841851
-5.49043e-06
0.00083699
-4.89299e-06
0.0008327
-4.31526e-06
0.000828959
-3.75902e-06
0.000825744
-3.22624e-06
0.000823029
-2.71918e-06
0.000820785
-2.2404e-06
0.000818981
-1.79267e-06
0.000817582
-1.37881e-06
0.000816552
-1.00143e-06
0.000815852
-6.62746e-07
0.000815442
-3.63702e-07
0.00081528
-9.99692e-08
0.000815325
1.17011e-07
0.000815539
2.83398e-07
0.000815874
4.15834e-07
0.000816295
5.09934e-07
0.000816766
5.682e-07
0.000817251
5.91863e-07
0.000817717
5.82682e-07
0.000818133
5.41967e-07
0.000818466
4.65607e-07
0.000818688
3.59768e-07
0.000818749
2.23996e-07
0.000818629
4.92787e-08
0.000818278
-1.75366e-07
0.000817657
-4.38928e-07
0.000816712
-7.48868e-07
0.000815385
-1.11551e-06
0.000813612
-1.54755e-06
0.000811315
-2.05543e-06
0.000808404
-2.65188e-06
0.000804774
-3.35242e-06
0.000800301
-4.17613e-06
0.000794836
-5.14653e-06
0.0007882
-6.29313e-06
0.000780178
-7.65298e-06
0.000770505
-9.2743e-06
0.000758855
-1.12183e-05
0.000744814
-1.35693e-05
0.000727861
-1.64376e-05
0.000707313
-1.99732e-05
0.000682278
-2.44011e-05
0.000651568
-2.99767e-05
0.00061352
-3.72622e-05
0.00056613
-4.64093e-05
0.000505671
-5.94645e-05
0.000430078
-7.44219e-05
0.000331369
-9.80739e-05
0.000216692
-0.000115076
8.60322e-05
-0.000133769
-9.90121e-05
0.00122231
5.23936e-11
0.00122261
6.08897e-10
0.00122327
1.5401e-09
0.00122426
2.73881e-09
0.00122548
4.07822e-09
0.00122677
5.42688e-09
0.00122797
6.67712e-09
0.00122891
7.69334e-09
0.00122942
8.54303e-09
0.00122938
9.48122e-09
0.00122864
9.47808e-09
0.0012271
9.37728e-09
0.00122469
9.0518e-09
0.00122134
8.48492e-09
0.00121702
7.71236e-09
0.00121169
6.77517e-09
0.00120537
5.71198e-09
0.00119805
4.55844e-09
0.00118975
3.34644e-09
0.00118052
2.10377e-09
0.00117041
8.52175e-10
0.00115946
-3.87751e-10
0.00114774
-1.59293e-09
0.00113534
-2.74875e-09
0.00112234
-3.83396e-09
0.00110882
-4.82761e-09
0.00109488
-5.70798e-09
0.00108062
-6.4525e-09
0.00106614
-7.0391e-09
0.00105153
-7.44735e-09
0.0010369
-7.66001e-09
0.00102234
-7.66441e-09
0.00100794
-7.4534e-09
0.000993784
-7.02658e-09
0.00097996
-6.39059e-09
0.000966534
-5.55934e-09
0.00095357
-4.55322e-09
0.000941123
-3.39913e-09
0.000929239
-2.12882e-09
0.000917951
-7.76891e-10
0.000907287
6.14234e-10
0.000897267
2.00581e-09
0.000887903
3.36313e-09
0.000879201
4.64608e-09
0.000871158
5.81919e-09
0.00086377
6.84972e-09
0.000857025
7.70914e-09
0.000850911
8.37571e-09
0.000845411
8.83328e-09
0.000840509
9.07165e-09
0.000836185
9.08607e-09
0.000832417
8.8765e-09
0.000829182
8.44628e-09
0.000826455
7.80187e-09
0.000824208
6.95104e-09
0.000822409
5.90607e-09
0.000821026
4.67589e-09
0.000820021
3.28162e-09
0.000819357
1.71788e-09
0.000818993
-2.85514e-11
0.000818895
-1.82467e-09
0.000819015
-3.1716e-09
0.000819303
-4.72726e-09
0.000819725
-6.25794e-09
0.000820243
-7.77971e-09
0.00082082
-9.12281e-09
0.000821423
-1.02131e-08
0.000822016
-1.10459e-08
0.00082257
-1.13569e-08
0.000823047
-1.19315e-08
0.000823419
-1.24937e-08
0.000823655
-1.14607e-08
0.000823715
-1.13046e-08
0.00082355
-9.6103e-09
0.00082312
-8.83626e-09
0.000822378
-7.46901e-09
0.000821269
-5.91818e-09
0.000819725
-4.2621e-09
0.000817672
-2.53947e-09
0.000815021
-8.1458e-10
0.000811668
8.258e-10
0.00080749
2.33357e-09
0.000802339
3.6308e-09
0.000796042
4.6792e-09
0.000788383
5.45209e-09
0.000779103
5.94093e-09
0.000767878
6.14762e-09
0.000754303
6.09308e-09
0.00073786
5.80217e-09
0.000717881
5.31128e-09
0.000693475
4.66122e-09
0.000663495
3.90769e-09
0.00062623
3.08456e-09
0.000579818
2.27916e-09
0.000520352
1.47792e-09
0.000445929
7.99996e-10
0.000347855
1.8537e-10
0.00023278
-3.07054e-10
9.90112e-05
-6.99111e-10
-9.42405e-10
-0.000672407
0.00956645
-0.00944106
-0.000798029
0.00955168
-0.00942605
-0.000924372
0.00952813
-0.00940179
-0.00105199
0.00950645
-0.00937883
-0.00118127
0.00948828
-0.00935901
-0.00131248
0.00947454
-0.00934332
-0.00144608
0.00946589
-0.00933229
-0.00158253
0.00946286
-0.00932641
-0.00172251
0.00946625
-0.00932627
-0.00186708
0.00947787
-0.00933331
-0.00201812
0.00950113
-0.00935009
-0.0021781
0.00954346
-0.00938347
-0.00235109
0.00961309
-0.0094401
-0.00253896
0.00972093
-0.00953307
-0.00273639
0.009856
-0.00965856
-0.00290418
0.00996998
-0.00980219
-0.00293607
0.00985587
-0.00982397
-0.00257652
0.00906747
-0.00942702
-0.0015084
0.00661514
-0.00768326
0.00216142
-0.00366982
-0.000679918
0.00969132
-0.000805302
0.00967706
-0.000931481
0.00965431
-0.00105901
0.00963398
-0.00118811
0.00961738
-0.00131915
0.00960558
-0.00145249
0.00959923
-0.00158858
0.00959895
-0.00172808
0.00960575
-0.00187204
0.00962184
-0.00202232
0.00965141
-0.00218153
0.00970266
-0.00235255
0.00978411
-0.0025341
0.00990248
-0.00271068
0.0100326
-0.00282273
0.010082
-0.0027326
0.00976573
-0.00220151
0.00853639
-0.0010716
0.00548522
0.00108983
-0.000687147
0.00981574
-0.000812184
0.0098021
-0.000938154
0.00978028
-0.00106548
0.00976131
-0.00119439
0.00974628
-0.00132521
0.0097364
-0.00145828
0.0097323
-0.00159403
0.0097347
-0.00173311
0.00974483
-0.00187663
0.00976535
-0.00202643
0.00980121
-0.00218489
0.00986112
-0.00235338
0.00995261
-0.00252571
0.0100748
-0.00267442
0.0101813
-0.00272038
0.010128
-0.00250816
0.00955351
-0.00183664
0.00786487
-0.000694989
0.00434357
0.000394838
-0.000694057
0.0099397
-0.000818705
0.00992675
-0.000944389
0.00990597
-0.00107144
0.00988836
-0.00120008
0.00987492
-0.00133061
0.00986693
-0.00146334
0.00986503
-0.00159869
0.00987005
-0.00173731
0.00988345
-0.00188031
0.00990836
-0.0020295
0.0099504
-0.00218667
0.0100183
-0.00235105
0.010117
-0.00251028
0.010234
-0.00262405
0.0102951
-0.00259702
0.010101
-0.00226776
0.00922425
-0.00147987
0.00707698
-0.000428956
0.00329266
-3.41183e-05
-0.000700626
0.0100632
-0.000824862
0.010051
-0.0009502
0.0100313
-0.00107692
0.0100151
-0.00120522
0.0100032
-0.00133537
0.00999708
-0.00146766
0.00999732
-0.00160249
0.0100049
-0.0017405
0.0100215
-0.00188284
0.0100507
-0.0020311
0.0100987
-0.00218619
0.0101734
-0.00234431
0.0102751
-0.00248579
0.0103755
-0.00255737
0.0103666
-0.00245255
0.00999613
-0.00201862
0.00879032
-0.0011556
0.00621396
-0.000243672
0.00238073
-0.000277791
-0.000706857
0.0101861
-0.000830664
0.0101748
-0.00095562
0.0101563
-0.00108196
0.0101414
-0.00120986
0.0101311
-0.00133957
0.0101268
-0.00147133
0.0101291
-0.00160552
0.0101391
-0.00174278
0.0101587
-0.00188416
0.0101921
-0.00203089
0.0102454
-0.00218249
0.010325
-0.00233146
0.0104241
-0.00245052
0.0104946
-0.00247482
0.0103909
-0.00229134
0.00981265
-0.0017699
0.00826888
-0.000879853
0.00532392
-0.000126004
0.00162688
-0.000403794
-0.000712725
0.0103085
-0.000836079
0.0102981
-0.000960609
0.0102808
-0.00108652
0.0102673
-0.00121396
0.0102586
-0.00134315
0.010256
-0.00147429
0.0102602
-0.00160774
0.0102725
-0.00174414
0.0102951
-0.00188445
0.0103324
-0.00202946
0.0103904
-0.00217702
0.0104725
-0.00231513
0.0105622
-0.0024082
0.0105876
-0.00238126
0.010364
-0.0021202
0.00955159
-0.00152534
0.00767402
-0.000659674
0.00445825
-6.24482e-05
0.00102966
-0.000466242
-0.00071828
0.0104302
-0.000841188
0.0104211
-0.000965286
0.0104049
-0.00109077
0.0103928
-0.00121774
0.0103855
-0.00134639
0.0103846
-0.00147688
0.0103907
-0.00160956
0.0104052
-0.001745
0.0104305
-0.00188392
0.0104713
-0.00202621
0.0105327
-0.00216729
0.0106136
-0.00229016
0.0106851
-0.00235206
0.0106495
-0.00227249
0.0102844
-0.00194238
0.00922148
-0.0012961
0.00702775
-0.000494717
0.00365687
-3.80642e-05
0.000573005
-0.000504307
-0.000723365
0.0105513
-0.00084582
0.0105435
-0.000969376
0.0105284
-0.00109434
0.0105178
-0.00122072
0.0105119
-0.00134869
0.0105126