/*--------------------------------*- C++ -*----------------------------------*\
  =========                 |
  \\      /  F ield         | OpenFOAM: The Open Source CFD Toolbox
   \\    /   O peration     | Website:  https://openfoam.org
    \\  /    A nd           | Version:  7
     \\/     M anipulation  |
\*---------------------------------------------------------------------------*/
FoamFile
{
    version     2.0;
    format      ascii;
    class       volScalarField;
    location    "5";
    object      p;
}
// * * * * * * * * * * * * * * * * * * * * * * * * * * * * * * * * * * * * * //

dimensions      [0 2 -2 0 0 0 0];

internalField   nonuniform List<scalar> 
225
(
-0.00751446
-0.0404352
-0.0434842
-0.0945837
-0.100728
-0.19114
-0.00768863
-0.0408121
-0.0436836
-0.095093
-0.100842
-0.192261
-0.00786879
-0.0411957
-0.0439274
-0.0956359
-0.101105
-0.193495
-0.00804574
-0.0415627
-0.044158
-0.0961468
-0.101345
-0.194653
-0.00821713
-0.0419084
-0.0443613
-0.0966073
-0.101519
-0.195675
-0.00838392
-0.0422351
-0.0445424
-0.0970212
-0.101644
-0.196553
-0.00854696
-0.0425442
-0.0447053
-0.0973918
-0.101736
-0.197293
-0.00870663
-0.042836
-0.0448509
-0.097719
-0.10183
-0.197912
-0.00886361
-0.043111
-0.0449813
-0.0980015
-0.101871
-0.198481
-0.00901803
-0.0433667
-0.0450983
-0.0982161
-0.101881
-0.198986
-0.00560132
-0.036096
-0.0408965
-0.0884361
-0.0985375
-0.177909
-0.00581246
-0.0365853
-0.0412056
-0.0891208
-0.0988631
-0.179312
-0.00602543
-0.0370806
-0.0415549
-0.0898573
-0.0993021
-0.1809
-0.00623269
-0.037561
-0.0418842
-0.0905694
-0.0996977
-0.182449
-0.00643275
-0.0380224
-0.0421826
-0.0912408
-0.100017
-0.183904
-0.00662657
-0.0384668
-0.0424566
-0.0918782
-0.100277
-0.185285
-0.00681485
-0.0388954
-0.0427099
-0.0924859
-0.100486
-0.186603
-0.00699791
-0.0393083
-0.0429429
-0.093064
-0.100645
-0.187858
-0.00717644
-0.0397063
-0.0431573
-0.0936136
-0.100758
-0.18905
-0.00735084
-0.0400867
-0.0433522
-0.0941335
-0.100824
-0.19018
-0.00331223
-0.0309554
-0.0375613
-0.0814627
-0.0944694
-0.00356176
-0.0315196
-0.0379451
-0.0822037
-0.0949829
-0.00381432
-0.0320918
-0.0383639
-0.0830054
-0.0956025
-0.00405918
-0.0326485
-0.03876
-0.0837818
-0.0961688
-0.00429601
-0.0331864
-0.0391276
-0.0845213
-0.0966623
-0.00452887
-0.033706
-0.0394739
-0.085234
-0.0971024
-0.00476073
-0.0342065
-0.0398019
-0.0859247
-0.0974974
-0.00498303
-0.0346967
-0.0401115
-0.0865931
-0.0978465
-0.00519621
-0.0351772
-0.0404038
-0.0872402
-0.0981513
-0.00540229
-0.0356438
-0.0406759
-0.0878621
-0.0984085
-0.000570903
-0.0249871
-0.0334242
-0.0738965
-0.0890413
-0.00124935
-0.0262917
-0.034685
-0.0759676
-0.0910897
-0.00147996
-0.0268384
-0.0349465
-0.0765126
-0.0912375
-0.00166982
-0.0272902
-0.03518
-0.0769691
-0.0914603
-0.00190899
-0.0278197
-0.0355452
-0.0776259
-0.0919805
-0.0021625
-0.0283754
-0.0359382
-0.0783359
-0.092538
-0.00240722
-0.0289172
-0.0363054
-0.0790131
-0.0930256
-0.00264205
-0.0294416
-0.0366479
-0.0796575
-0.0934566
-0.00287051
-0.0299543
-0.036975
-0.0802835
-0.093853
-0.00309244
-0.0304535
-0.0372844
-0.0808863
-0.0942066
0.0504313
0.0485382
0.0493566
0.0473424
0.0414911
)
;

boundaryField
{
    inlet
    {
        type            zeroGradient;
    }
    outlet
    {
        type            fixedValue;
        value           nonuniform 0();
    }
    polygon
    {
        type            zeroGradient;
    }
    top
    {
        type            symmetryPlane;
    }
    bottom
    {
        type            symmetryPlane;
    }
    outside
    {
        type            slip;
    }
    procBoundary13to9
    {
        type            processor;
        value           nonuniform List<scalar> 
42
(
-0.206592
-0.206507
-0.206897
-0.207264
-0.207485
-0.20766
-0.207758
-0.207705
-0.207522
-0.207247
-0.204826
-0.176821
-0.20529
-0.206042
-0.206687
-0.207134
-0.207421
-0.207576
-0.2076
-0.207504
-0.207286
-0.164583
-0.165916
-0.16745
-0.168943
-0.17036
-0.171727
-0.173058
-0.174352
-0.175609
-0.176821
-0.152485
-0.155664
-0.156298
-0.157025
-0.158177
-0.159396
-0.160533
-0.16161
-0.162659
-0.163663
0.0361427
)
;
    }
    procBoundary13to12
    {
        type            processor;
        value           nonuniform List<scalar> 5(0.0790249 0.0681135 0.0591914 0.0546943 0.0496755);
    }
    procBoundary13to14
    {
        type            processor;
        value           nonuniform List<scalar> 6(-0.00915869 -0.04358 -0.0451582 -0.0983215 -0.101739 -0.199253);
    }
}


// ************************************************************************* //
