/*--------------------------------*- C++ -*----------------------------------*\
  =========                 |
  \\      /  F ield         | OpenFOAM: The Open Source CFD Toolbox
   \\    /   O peration     | Website:  https://openfoam.org
    \\  /    A nd           | Version:  7
     \\/     M anipulation  |
\*---------------------------------------------------------------------------*/
FoamFile
{
    version     2.0;
    format      ascii;
    class       volVectorField;
    location    "64";
    object      U;
}
// * * * * * * * * * * * * * * * * * * * * * * * * * * * * * * * * * * * * * //

dimensions      [0 1 -1 0 0 0 0];

internalField   nonuniform List<vector> 
7360
(
(-0.404512 -3.84949e-07 -5.08148e-21)
(-0.404512 7.33223e-06 -2.30162e-20)
(-0.404492 2.99173e-05 -2.39698e-20)
(-0.404424 7.46846e-05 -1.31e-19)
(-0.404268 0.000145792 4.96782e-20)
(-0.403981 0.000244091 -1.28416e-19)
(-0.403519 0.000368315 -1.41247e-19)
(-0.402844 0.00051583 1.25487e-19)
(-0.401923 0.000683215 -2.88982e-19)
(-0.400727 0.000866708 -5.46668e-19)
(-0.399234 0.0010625 -7.82135e-20)
(-0.397429 0.00126688 -4.7856e-19)
(-0.395301 0.00147637 -5.24526e-19)
(-0.392845 0.00168771 -8.70886e-19)
(-0.39006 0.00189788 -1.66279e-19)
(-0.386951 0.0021041 -9.51915e-19)
(-0.383527 0.00230382 -2.89935e-18)
(-0.379799 0.00249465 6.63097e-19)
(-0.375782 0.00267439 -1.9048e-18)
(-0.371496 0.00284102 -4.35962e-18)
(-0.366963 0.00299271 4.62762e-19)
(-0.362207 0.00312787 -2.9526e-19)
(-0.357256 0.00324514 -3.9119e-18)
(-0.352136 0.00334349 9.37761e-19)
(-0.346879 0.00342222 -9.81107e-19)
(-0.341516 0.00348094 -5.35039e-18)
(-0.336077 0.00351965 -1.05492e-18)
(-0.330594 0.00353864 -4.54167e-18)
(-0.325096 0.00353852 -9.8724e-18)
(-0.319612 0.00352015 1.73781e-19)
(-0.314171 0.00348462 -3.31472e-18)
(-0.308797 0.00343322 -2.33188e-18)
(-0.303514 0.00336742 9.9998e-19)
(-0.298343 0.0032888 -4.58165e-18)
(-0.293303 0.00319906 -1.35395e-18)
(-0.288409 0.00309995 -3.76599e-19)
(-0.283676 0.0029932 -3.81851e-18)
(-0.279112 0.00288041 -1.34285e-18)
(-0.274727 0.00276302 -4.75452e-18)
(-0.270526 0.00264212 -2.36249e-18)
(-0.266515 0.00251846 -2.64812e-18)
(-0.262697 0.00239242 -1.16843e-17)
(-0.259075 0.002264 -4.7853e-18)
(-0.255655 0.00213296 -2.17288e-18)
(-0.252438 0.00199895 -3.16026e-19)
(-0.24943 0.00186167 4.63319e-18)
(-0.246635 0.00172157 -8.69959e-18)
(-0.24406 0.0015789 -6.03633e-19)
(-0.241707 0.00143425 2.80275e-18)
(-0.239581 0.00128865 -1.00968e-17)
(-0.23768 0.00114351 -4.14616e-18)
(-0.236004 0.00100059 2.15143e-18)
(-0.234547 0.000861793 6.22925e-19)
(-0.233301 0.000729093 -3.24662e-18)
(-0.232255 0.000604345 -5.82716e-19)
(-0.231396 0.000489136 -2.45345e-18)
(-0.230706 0.00038469 -1.56818e-18)
(-0.230169 0.000291805 -6.53318e-18)
(-0.229767 0.000210853 -3.38075e-18)
(-0.22948 0.000141813 -7.43449e-19)
(-0.229291 8.43401e-05 -4.93422e-18)
(-0.229182 3.7821e-05 -5.63574e-18)
(-0.229138 9.51489e-07 -2.39616e-18)
(-0.229144 -3.01642e-05 1.29796e-19)
(-0.229184 -5.04012e-05 2.14217e-18)
(-0.229248 -6.28311e-05 3.56526e-18)
(-0.229324 -6.88961e-05 6.24263e-19)
(-0.229403 -6.92105e-05 -4.75823e-19)
(-0.229474 -6.39082e-05 -1.29752e-18)
(-0.229528 -5.27491e-05 1.49664e-19)
(-0.229556 -3.40894e-05 1.76117e-18)
(-0.229551 -5.86925e-06 1.33844e-18)
(-0.229501 2.57823e-05 6.24614e-19)
(-0.229394 6.19764e-05 1.62367e-18)
(-0.229219 0.000106434 -2.97455e-19)
(-0.228964 0.000160137 1.51951e-19)
(-0.228613 0.000224278 6.70177e-19)
(-0.228149 0.000300429 1.01639e-19)
(-0.227551 0.000390539 -2.15705e-19)
(-0.226796 0.000496981 1.49107e-19)
(-0.225857 0.000622675 8.7088e-20)
(-0.224701 0.000771227 -4.06995e-20)
(-0.223289 0.000947116 2.74653e-19)
(-0.221576 0.00115597 1.66368e-19)
(-0.219505 0.0014049 7.97277e-20)
(-0.21701 0.00170306 1.25016e-19)
(-0.214004 0.00206228 -6.6244e-20)
(-0.210391 0.00249809 4.88693e-19)
(-0.206027 0.00303154 8.32271e-19)
(-0.200782 0.00368915 -5.76274e-20)
(-0.194364 0.00451465 1.92554e-18)
(-0.186685 0.00553965 3.97817e-19)
(-0.176972 0.00690179 8.55962e-19)
(-0.165656 0.00850194 4.87732e-19)
(-0.15024 0.0109501 -3.02522e-19)
(-0.133277 0.0132018 -1.39869e-20)
(-0.108493 0.0177846 7.24159e-19)
(-0.0813504 0.0197741 -1.86719e-19)
(-0.0465202 0.0235494 5.54505e-19)
(-0.0106307 0.0173662 3.14024e-20)
(-0.408125 -6.13399e-08 6.16488e-21)
(-0.408123 2.68799e-06 -1.20476e-20)
(-0.4081 1.04236e-05 3.16042e-20)
(-0.408027 2.55581e-05 8.05784e-21)
(-0.407865 4.9486e-05 -1.99472e-20)
(-0.407569 8.25177e-05 1.45275e-19)
(-0.407098 0.000124255 -8.93892e-20)
(-0.406413 0.000173836 4.37221e-20)
(-0.40548 0.000230132 -2.24466e-19)
(-0.404269 0.000291891 1.28771e-20)
(-0.40276 0.00035784 -5.18011e-20)
(-0.400935 0.000426737 1.15697e-19)
(-0.398784 0.000497405 1.3011e-19)
(-0.396302 0.000568746 9.1301e-20)
(-0.393487 0.000639741 4.33939e-19)
(-0.390345 0.000709447 4.86109e-19)
(-0.386884 0.000776992 3.16748e-19)
(-0.383115 0.000841566 1.76423e-18)
(-0.379055 0.000902418 -1.42204e-18)
(-0.374722 0.00095886 -2.33504e-18)
(-0.370139 0.00101026 7.37364e-19)
(-0.36533 0.00105608 -7.82899e-19)
(-0.360323 0.00109585 -8.99334e-19)
(-0.355146 0.00112921 -9.65726e-19)
(-0.349829 0.00115592 2.97221e-18)
(-0.344405 0.00117585 -5.32546e-18)
(-0.338904 0.00118897 -4.32938e-18)
(-0.333358 0.0011954 -4.17357e-18)
(-0.327797 0.00119533 -5.02335e-18)
(-0.322252 0.00118906 -1.20363e-18)
(-0.316749 0.00117694 4.45405e-19)
(-0.311314 0.00115942 4.45224e-18)
(-0.305972 0.00113698 1.80516e-18)
(-0.300744 0.00111018 -4.20052e-18)
(-0.295648 0.00107957 -8.12037e-18)
(-0.290701 0.00104576 1.35229e-19)
(-0.285916 0.00100934 -1.76629e-18)
(-0.281304 0.000970839 1.37018e-18)
(-0.276873 0.000930755 2.13165e-18)
(-0.272628 0.000889466 -3.17623e-19)
(-0.268575 0.000847229 -3.98546e-18)
(-0.264717 0.000804172 -7.62056e-18)
(-0.261058 0.000760309 -8.57181e-18)
(-0.257601 0.000715567 1.19159e-19)
(-0.25435 0.000669834 -9.90169e-20)
(-0.251309 0.000622848 6.29122e-18)
(-0.248484 0.000574804 -4.57274e-18)
(-0.245879 0.00052585 2.08675e-18)
(-0.2435 0.00047618 1.4617e-18)
(-0.24135 0.000426133 -3.25325e-18)
(-0.239429 0.000376183 -1.05988e-18)
(-0.237737 0.000326913 2.81544e-18)
(-0.236268 0.000278973 5.77526e-18)
(-0.235015 0.000233031 -6.36929e-18)
(-0.233967 0.000189723 -6.93322e-18)
(-0.233111 0.000149598 -6.02103e-18)
(-0.232431 0.000113087 -1.97335e-18)
(-0.231909 8.04819e-05 -7.7557e-18)
(-0.231526 5.19345e-05 3.13365e-18)
(-0.231265 2.74638e-05 3.62965e-18)
(-0.231106 6.95997e-06 -4.32311e-18)
(-0.231033 -9.88381e-06 -8.03008e-18)
(-0.231029 -2.41313e-05 -3.31786e-18)
(-0.231079 -3.45647e-05 4.22806e-18)
(-0.231167 -4.30869e-05 2.46287e-18)
(-0.231282 -4.92573e-05 2.23242e-18)
(-0.231413 -5.25083e-05 5.05885e-18)
(-0.231549 -5.28559e-05 -1.50785e-18)
(-0.23168 -5.06721e-05 -1.00764e-18)
(-0.231798 -4.64978e-05 -2.67856e-19)
(-0.231894 -4.12983e-05 2.2047e-19)
(-0.231958 -3.50705e-05 2.33352e-18)
(-0.23198 -2.41279e-05 5.5431e-19)
(-0.231949 -1.34223e-05 3.7543e-19)
(-0.231851 1.20931e-07 1.30198e-18)
(-0.231676 1.6932e-05 1.2896e-18)
(-0.231406 3.73535e-05 1.53396e-18)
(-0.231026 6.19096e-05 1.54647e-19)
(-0.230514 9.1268e-05 -2.09693e-19)
(-0.229846 0.000126247 -4.8033e-20)
(-0.228995 0.000167856 2.71942e-20)
(-0.227927 0.000217341 -4.25095e-19)
(-0.226603 0.000276253 -2.50194e-20)
(-0.224976 0.000346536 5.61877e-20)
(-0.222989 0.00043065 7.56142e-20)
(-0.220571 0.00053174 3.34176e-19)
(-0.217637 0.000653891 5.18768e-20)
(-0.214084 0.000802397 3.10997e-19)
(-0.209764 0.000984539 3.74047e-19)
(-0.204541 0.00120913 1.35038e-20)
(-0.198114 0.00149149 5.41579e-19)
(-0.190381 0.00184101 1.31669e-18)
(-0.18055 0.00230758 3.03796e-19)
(-0.169012 0.00285649 1.09742e-18)
(-0.153286 0.00370693 -5.59031e-19)
(-0.135719 0.00447654 -9.32733e-20)
(-0.11029 0.00604614 7.75586e-19)
(-0.0819922 0.00672903 1.75033e-20)
(-0.0458511 0.00794662 -5.44071e-20)
(-0.0101158 0.00578562 6.43964e-21)
(-0.387295 -2.57818e-06 8.14066e-21)
(-0.387304 1.12585e-05 -7.02396e-20)
(-0.387302 5.87944e-05 -8.52515e-22)
(-0.38726 0.00015802 -1.52136e-19)
(-0.387138 0.000318598 -3.66076e-20)
(-0.38689 0.000542004 -1.48172e-20)
(-0.386473 0.000824824 6.95908e-20)
(-0.38585 0.00116064 4.30584e-19)
(-0.384989 0.00154135 -1.86322e-19)
(-0.383863 0.00195825 -2.13599e-19)
(-0.382452 0.00240255 5.3071e-19)
(-0.380742 0.00286586 -1.67869e-19)
(-0.378723 0.00334024 6.73905e-19)
(-0.376393 0.00381837 -1.0478e-18)
(-0.37375 0.00429346 5.27214e-19)
(-0.3708 0.00475927 -2.29865e-19)
(-0.367551 0.00521003 -9.59733e-19)
(-0.364015 0.0056404 1.97965e-18)
(-0.360207 0.00604542 -1.47654e-18)
(-0.356145 0.00642057 1.15597e-20)
(-0.35185 0.00676175 -6.83936e-19)
(-0.347345 0.00706539 -2.41725e-18)
(-0.342655 0.0073285 4.03366e-19)
(-0.337809 0.00754879 3.14509e-18)
(-0.332833 0.00772472 -1.76381e-18)
(-0.327757 0.00785551 -1.26038e-18)
(-0.322609 0.00794116 -4.23832e-18)
(-0.31742 0.00798239 -5.88948e-18)
(-0.312216 0.00798058 -3.58086e-18)
(-0.307025 0.00793771 -5.19129e-18)
(-0.301872 0.00785626 -2.09295e-18)
(-0.296782 0.00773917 2.27628e-18)
(-0.291776 0.00758974 5.00059e-18)
(-0.286874 0.00741157 1.17433e-18)
(-0.282094 0.00720847 -5.2839e-18)
(-0.27745 0.00698436 -1.17549e-18)
(-0.272955 0.00674305 -5.19982e-18)
(-0.268619 0.0064881 -2.77973e-18)
(-0.264449 0.00622255 -5.0362e-19)
(-0.260454 0.0059488 -1.58373e-18)
(-0.256637 0.0056684 2.67032e-18)
(-0.253004 0.00538214 -4.11724e-18)
(-0.249559 0.00509005 3.01574e-19)
(-0.246306 0.00479172 -1.49615e-18)
(-0.243248 0.00448626 2.43709e-18)
(-0.240391 0.00417337 -5.43812e-18)
(-0.237738 0.00385471 -5.73769e-18)
(-0.235294 0.00353108 6.4387e-19)
(-0.23306 0.00320399 -7.17766e-18)
(-0.231037 0.00287602 9.54235e-20)
(-0.229223 0.00255055 -6.69804e-18)
(-0.227614 0.00223161 -5.2133e-18)
(-0.226202 0.00192353 -2.3934e-18)
(-0.224977 0.00163064 4.10192e-19)
(-0.223927 0.00135695 -2.02178e-18)
(-0.223036 0.00110579 -7.52775e-19)
(-0.222289 0.000879615 -5.51057e-18)
(-0.221668 0.000679938 -1.80752e-19)
(-0.221154 0.000507312 -9.66435e-19)
(-0.220732 0.00036143 -4.31179e-18)
(-0.220382 0.000241266 -7.71035e-19)
(-0.22009 0.000145181 1.44123e-19)
(-0.219841 7.15199e-05 3.83555e-18)
(-0.219619 1.93715e-05 -1.76706e-20)
(-0.219415 -1.68604e-05 -3.94672e-18)
(-0.21922 -3.65007e-05 -4.73814e-19)
(-0.219021 -4.16439e-05 1.01491e-18)
(-0.218808 -3.36534e-05 -2.50108e-18)
(-0.218571 -1.19616e-05 -6.87077e-19)
(-0.218303 2.35959e-05 -6.74909e-19)
(-0.217993 7.16559e-05 -3.16093e-18)
(-0.217634 0.000130056 -2.81009e-18)
(-0.217218 0.000205374 -2.59495e-18)
(-0.216733 0.000297561 -1.74501e-18)
(-0.216169 0.00040803 -4.93248e-19)
(-0.215511 0.00053931 -2.36623e-18)
(-0.214745 0.000694422 -2.07215e-18)
(-0.213856 0.000877004 -9.68507e-19)
(-0.212824 0.00109153 -9.16714e-19)
(-0.211627 0.00134339 -1.25503e-19)
(-0.210241 0.00163918 1.83221e-19)
(-0.208636 0.00198704 5.83361e-20)
(-0.206778 0.00239704 2.10111e-19)
(-0.204625 0.00288177 1.59922e-19)
(-0.20213 0.00345716 9.11822e-20)
(-0.199234 0.0041436 -2.13627e-20)
(-0.195866 0.00496735 3.76743e-19)
(-0.191944 0.00596298 5.67392e-19)
(-0.187352 0.00717653 2.93056e-20)
(-0.181987 0.00866801 7.40535e-19)
(-0.175616 0.0105285 1.4533e-18)
(-0.168204 0.0128404 3.92799e-19)
(-0.159085 0.0158691 8.74824e-19)
(-0.148854 0.019454 1.32947e-18)
(-0.13504 0.0248276 5.78675e-19)
(-0.12108 0.0297411 7.229e-19)
(-0.09956 0.0397838 7.63724e-19)
(-0.0784643 0.0432067 2.4965e-19)
(-0.0496324 0.052042 -6.71039e-20)
(-0.0128598 0.0352095 2.16682e-19)
(-0.397457 -1.05499e-06 4.56223e-21)
(-0.39746 1.07046e-05 -6.4546e-20)
(-0.397447 4.69404e-05 4.52428e-20)
(-0.39739 0.000120109 -1.51869e-19)
(-0.397247 0.000237155 -1.12331e-19)
(-0.396975 0.000399376 -1.81476e-19)
(-0.396531 0.000604552 -2.48186e-19)
(-0.395878 0.000848228 3.48619e-19)
(-0.39498 0.00112468 -5.16061e-20)
(-0.393813 0.00142767 -5.973e-19)
(-0.392353 0.00175087 5.02701e-20)
(-0.390587 0.00208819 -2.12499e-19)
(-0.388503 0.00243385 5.3222e-20)
(-0.386099 0.00278249 -5.52941e-19)
(-0.383372 0.00312916 -6.53414e-19)
(-0.380328 0.00346928 -1.21096e-18)
(-0.376976 0.00379861 -2.54054e-18)
(-0.373326 0.00411322 1.62559e-18)
(-0.369395 0.00440949 -1.98203e-18)
(-0.365201 0.00468408 -1.60068e-18)
(-0.360766 0.00493398 -1.78826e-18)
(-0.356113 0.00515653 -1.17678e-18)
(-0.351269 0.00534954 5.965e-19)
(-0.346262 0.00551128 -5.67104e-19)
(-0.341121 0.00564061 -7.66675e-19)
(-0.335876 0.00573692 -4.25983e-18)
(-0.330557 0.00580019 -4.57129e-18)
(-0.325195 0.00583092 -3.64721e-18)
(-0.319818 0.00583011 -7.2858e-18)
(-0.314456 0.00579918 -2.58207e-18)
(-0.309133 0.00573995 -2.11135e-18)
(-0.303877 0.00565455 -4.14385e-19)
(-0.298708 0.00554539 1.90855e-18)
(-0.293649 0.0054151 -6.05512e-19)
(-0.288716 0.00526647 -5.40506e-18)
(-0.283926 0.00510237 -1.22488e-18)
(-0.279291 0.00492563 6.6578e-19)
(-0.274821 0.0047389 -4.59792e-18)
(-0.270525 0.00454445 -5.73745e-18)
(-0.26641 0.00434408 -5.62313e-18)
(-0.262479 0.004139 -4.26003e-18)
(-0.258738 0.00392978 -5.50441e-18)
(-0.255189 0.00371647 -1.99837e-18)
(-0.251838 0.00349872 -5.16617e-18)
(-0.248688 0.00327596 -6.78408e-21)
(-0.245743 0.00304753 -3.98371e-18)
(-0.243008 0.00281458 -1.25239e-18)
(-0.240487 0.00257759 -4.34813e-20)
(-0.238185 0.00233757 -4.98541e-18)
(-0.236103 0.00209631 -7.35693e-18)
(-0.23424 0.00185622 -8.03889e-18)
(-0.232594 0.00162021 -5.5223e-18)
(-0.231158 0.00139146 -4.69394e-18)
(-0.229923 0.00117321 -4.7306e-18)
(-0.228878 0.000968466 -4.84843e-18)
(-0.228008 0.000779803 -1.73416e-18)
(-0.227298 0.000609167 -2.33308e-18)
(-0.226729 0.000457806 -2.41477e-18)
(-0.226284 0.000326267 -1.58174e-18)
(-0.225944 0.000214447 -4.80899e-18)
(-0.225693 0.000121711 -2.29806e-18)
(-0.225512 4.69968e-05 7.93386e-19)
(-0.225386 -1.05363e-05 -2.21043e-18)
(-0.225302 -5.72762e-05 -2.74633e-18)
(-0.225247 -9.30763e-05 -3.48442e-18)
(-0.225207 -0.000115554 5.03818e-19)
(-0.225173 -0.000124905 2.97514e-18)
(-0.225134 -0.000121864 -4.98841e-19)
(-0.225082 -0.000107873 -2.74068e-18)
(-0.225009 -8.37151e-05 1.38904e-18)
(-0.224906 -5.10751e-05 -2.83466e-19)
(-0.22476 -1.11905e-05 1.21378e-18)
(-0.224563 3.7127e-05 1.03922e-18)
(-0.224305 9.81252e-05 9.76844e-20)
(-0.223975 0.00017263 1.10462e-18)
(-0.22356 0.000262283 -5.96537e-19)
(-0.223044 0.000369282 4.65677e-19)
(-0.222411 0.000496295 -2.50659e-19)
(-0.22164 0.000646604 -4.04492e-19)
(-0.22071 0.000824176 5.28368e-19)
(-0.219593 0.00103388 1.52101e-19)
(-0.218259 0.00128173 2.80678e-19)
(-0.216669 0.00157517 3.66405e-19)
(-0.214782 0.00192353 1.8978e-19)
(-0.212542 0.00233858 -5.41934e-20)
(-0.209888 0.00283544 4.94285e-20)
(-0.206739 0.0034336 -3.38404e-19)
(-0.203004 0.00415854 -3.05865e-19)
(-0.19855 0.00504466 2.23698e-19)
(-0.193257 0.00613535 -5.49274e-19)
(-0.186859 0.00750069 8.75367e-19)
(-0.179286 0.00919477 -5.42796e-19)
(-0.169804 0.0114389 -4.72681e-19)
(-0.15891 0.014083 4.36413e-19)
(-0.144122 0.0181128 -7.46707e-19)
(-0.12835 0.0217704 1.01907e-19)
(-0.104869 0.0292726 -2.49191e-19)
(-0.080124 0.0321658 -2.6049e-19)
(-0.0479788 0.0383279 9.58026e-20)
(-0.0117227 0.0269314 -3.11432e-20)
(-0.359626 -1.00068e-05 1.56174e-20)
(-0.359656 -6.75483e-08 -2.56685e-20)
(-0.359691 6.10084e-05 -9.75725e-20)
(-0.359702 0.000203487 -1.03732e-19)
(-0.359643 0.000442213 6.68616e-20)
(-0.359465 0.000777902 9.05837e-20)
(-0.359127 0.00120387 1.37052e-20)
(-0.358592 0.00170931 3.16589e-19)
(-0.357832 0.00228128 6.6717e-20)
(-0.356822 0.00290623 -3.07643e-19)
(-0.355545 0.00357084 7.61168e-19)
(-0.353991 0.00426247 3.90866e-20)
(-0.352151 0.00496936 2.83338e-20)
(-0.350024 0.00568064 4.32983e-19)
(-0.34761 0.00638637 1.14956e-18)
(-0.344915 0.00707736 -4.50833e-20)
(-0.341947 0.00774514 1.07824e-18)
(-0.338718 0.00838185 1.95344e-18)
(-0.335241 0.00898025 1.82234e-18)
(-0.331533 0.00953368 -1.90095e-18)
(-0.327614 0.0100362 -1.30682e-18)
(-0.323505 0.0104826 1.14714e-18)
(-0.319229 0.0108685 2.09452e-18)
(-0.31481 0.0111908 1.68002e-18)
(-0.310273 0.0114473 4.54506e-19)
(-0.305645 0.011637 3.02636e-18)
(-0.300952 0.0117599 -1.03436e-18)
(-0.296219 0.0118172 -2.42996e-18)
(-0.291471 0.0118111 -5.88779e-19)
(-0.286733 0.0117445 -5.77173e-18)
(-0.282027 0.0116212 -1.7155e-18)
(-0.277375 0.0114456 -1.28908e-18)
(-0.272797 0.0112225 5.08316e-18)
(-0.268309 0.0109574 2.1136e-18)
(-0.263928 0.0106558 -1.83618e-19)
(-0.259667 0.0103234 -2.94758e-19)
(-0.255538 0.00996575 -1.82016e-18)
(-0.251549 0.00958777 -1.18888e-18)
(-0.247711 0.00919372 5.62922e-18)
(-0.244028 0.00878681 3.45061e-18)
(-0.240508 0.00836912 1.47501e-18)
(-0.237156 0.00794162 1.25799e-18)
(-0.233977 0.00750435 1.97314e-18)
(-0.230974 0.0070568 3.85832e-19)
(-0.228152 0.00659945 -3.08662e-18)
(-0.225516 0.00613326 -1.94797e-18)
(-0.223066 0.00565941 -1.53571e-18)
(-0.220804 0.00517953 1.36347e-18)
(-0.21873 0.00469677 -2.40376e-18)
(-0.216839 0.00421564 -2.52335e-18)
(-0.215126 0.00374172 4.08996e-21)
(-0.213582 0.0032812 3.00465e-18)
(-0.212198 0.00284051 -1.0928e-18)
(-0.21096 0.00242579 -1.36209e-18)
(-0.209853 0.00204256 -2.24019e-18)
(-0.208862 0.00169512 -6.86021e-19)
(-0.207968 0.00138644 -6.91904e-18)
(-0.207157 0.00111803 -7.12358e-18)
(-0.20641 0.000890022 -1.79484e-18)
(-0.205712 0.000701367 -1.51366e-18)
(-0.205047 0.000550066 4.71283e-18)
(-0.204403 0.000433466 -6.36891e-19)
(-0.203765 0.000348598 4.93628e-18)
(-0.203123 0.000292495 1.01555e-18)
(-0.202467 0.000261273 7.77251e-20)
(-0.201786 0.000252955 -7.87225e-21)
(-0.201073 0.000266949 2.60636e-19)
(-0.200319 0.00030246 -6.57077e-20)
(-0.199515 0.000357999 -7.29593e-19)
(-0.198653 0.000432889 -3.68949e-18)
(-0.197724 0.000527085 -2.20318e-18)
(-0.19672 0.000641611 -1.71501e-18)
(-0.195633 0.000779188 -1.5682e-18)
(-0.194452 0.000942127 -1.74241e-18)
(-0.193167 0.00113326 -1.40927e-18)
(-0.191765 0.0013563 -2.88303e-18)
(-0.190233 0.00161579 -2.77869e-18)
(-0.188556 0.00191717 -1.36181e-18)
(-0.186719 0.00226712 -2.25825e-18)
(-0.184701 0.0026736 -6.30183e-19)
(-0.182483 0.00314631 -1.55272e-19)
(-0.180039 0.00369716 -2.18541e-20)
(-0.177344 0.00434081 1.36052e-19)
(-0.174366 0.0050955 1.57466e-20)
(-0.171069 0.00598411 -1.47556e-19)
(-0.167412 0.00703575 8.48452e-20)
(-0.163349 0.00828752 -5.29374e-19)
(-0.158827 0.00978802 2.39098e-19)
(-0.153778 0.0116004 -8.25753e-19)
(-0.14815 0.013809 1.09101e-18)
(-0.141817 0.0165277 -5.03698e-19)
(-0.134826 0.0198955 1.14412e-18)
(-0.126756 0.0242081 -1.49504e-19)
(-0.11839 0.0293953 1.23184e-18)
(-0.107569 0.0367781 4.15179e-21)
(-0.098802 0.0436207 8.31086e-19)
(-0.083289 0.0570964 1.08944e-19)
(-0.0736359 0.0600395 -8.34304e-19)
(-0.0531031 0.074202 -1.56475e-18)
(-0.0164127 0.0421439 -5.62359e-19)
(-0.374493 -5.31669e-06 9.99455e-21)
(-0.37451 8.18697e-06 -5.89978e-20)
(-0.374523 6.42869e-05 -3.81957e-20)
(-0.374505 0.000186845 -9.5685e-20)
(-0.37441 0.000388237 8.62958e-20)
(-0.374194 0.000669809 1.63036e-19)
(-0.373813 0.00102671 3.68518e-20)
(-0.37323 0.00145043 2.59745e-19)
(-0.372415 0.00193047 -7.01343e-21)
(-0.371342 0.00245568 1.02625e-19)
(-0.369993 0.00301495 4.74247e-19)
(-0.368355 0.00359766 -4.43278e-19)
(-0.366419 0.00419387 2.13648e-19)
(-0.364182 0.0047944 -8.18214e-19)
(-0.361645 0.00539077 4.67248e-19)
(-0.358814 0.00597518 -8.40381e-21)
(-0.355695 0.0065404 -4.15119e-21)
(-0.352301 0.00707976 1.31744e-18)
(-0.348647 0.00758706 3.92301e-19)
(-0.34475 0.00805664 -1.89759e-18)
(-0.34063 0.0084834 -9.11349e-19)
(-0.336309 0.00886287 -6.47351e-19)
(-0.331813 0.00919136 2.40533e-18)
(-0.327166 0.00946605 3.88371e-18)
(-0.322395 0.00968504 5.98299e-20)
(-0.317529 0.0098474 6.84082e-19)
(-0.312594 0.00995317 -1.50584e-18)
(-0.307618 0.0100033 -5.33893e-18)
(-0.302627 0.00999948 -1.8946e-18)
(-0.297648 0.0099443 -3.85523e-18)
(-0.292705 0.00984085 -1.62655e-18)
(-0.287821 0.00969284 -1.53729e-19)
(-0.283016 0.00950443 3.39923e-18)
(-0.278309 0.00928013 1.49514e-18)
(-0.273716 0.00902471 -1.63528e-18)
(-0.269252 0.00874303 -5.36292e-19)
(-0.264929 0.00843982 -5.76632e-18)
(-0.260756 0.00811943 -1.95025e-18)
(-0.256743 0.00778556 5.09094e-18)
(-0.252895 0.00744111 1.26703e-18)
(-0.249218 0.00708793 1.48327e-18)
(-0.245718 0.00672696 2.85122e-18)
(-0.242399 0.00635829 4.83034e-18)
(-0.239264 0.00598154 3.18941e-19)
(-0.236319 0.00559566 -3.67754e-18)
(-0.233568 0.0052005 -2.96877e-18)
(-0.231014 0.00479836 -2.67289e-18)
(-0.228658 0.00439054 3.93449e-18)
(-0.226503 0.00397933 -6.35029e-18)
(-0.224547 0.00356826 -1.35056e-18)
(-0.222786 0.00316182 -2.35118e-18)
(-0.221214 0.00276518 2.49949e-18)
(-0.219822 0.00238381 -8.60844e-19)
(-0.218599 0.00202303 -3.87082e-18)
(-0.21753 0.00168773 -1.80699e-18)
(-0.216601 0.00138182 -5.73182e-19)
(-0.215794 0.0011081 -4.34981e-18)
(-0.215093 0.00086815 -6.01789e-18)
(-0.214481 0.00066234 -1.65418e-18)
(-0.213939 0.000489985 9.65909e-19)
(-0.213453 0.000349523 1.22666e-18)
(-0.213008 0.000238735 -5.18077e-20)
(-0.212589 0.000155049 5.60153e-18)
(-0.212184 9.64222e-05 9.33588e-19)
(-0.211782 6.12738e-05 -1.0927e-18)
(-0.211372 4.57876e-05 -3.18309e-19)
(-0.210944 4.71025e-05 4.2931e-19)
(-0.210491 6.35181e-05 -7.93351e-19)
(-0.210003 9.51912e-05 1.53127e-18)
(-0.209473 0.000142371 -3.24668e-18)
(-0.208891 0.000206628 -3.93005e-18)
(-0.208249 0.000290541 -3.61036e-18)
(-0.207536 0.000393244 -3.40527e-18)
(-0.206744 0.000516554 -8.71023e-20)
(-0.205862 0.000663071 -1.93542e-18)
(-0.204875 0.000836003 -3.06576e-18)
(-0.203772 0.0010392 -2.96827e-18)
(-0.202536 0.00127729 -1.93083e-18)
(-0.201149 0.00155595 -1.98203e-18)
(-0.199591 0.001882 -5.07389e-19)
(-0.197839 0.00226377 3.47275e-19)
(-0.195866 0.00271148 -1.77013e-19)
(-0.19364 0.0032378 1.28552e-19)
(-0.191126 0.00385854 1.30579e-19)
(-0.18828 0.00459358 4.67293e-20)
(-0.185053 0.00546835 -2.83661e-19)
(-0.181382 0.00651544 -7.00824e-20)
(-0.177201 0.00777759 2.43126e-19)
(-0.172415 0.00931115 -1.95534e-19)
(-0.166942 0.0111898 5.3527e-19)
(-0.1606 0.0135202 1.18555e-18)
(-0.153386 0.0164101 1.46515e-18)
(-0.144736 0.0201568 3.15288e-19)
(-0.135335 0.0246261 7.89345e-19)
(-0.122854 0.0311924 -7.55291e-19)
(-0.111231 0.0371592 -3.58231e-19)
(-0.0923942 0.0493005 1.78715e-19)
(-0.0763499 0.0525733 -5.28413e-19)
(-0.051734 0.0636514 -4.65427e-19)
(-0.0144807 0.0394717 -1.69461e-19)
(-0.326322 -2.77242e-05 8.11923e-21)
(-0.326395 -3.56076e-05 -1.20713e-20)
(-0.32649 2.51114e-05 -7.51498e-20)
(-0.326579 0.000198574 -8.85998e-20)
(-0.326608 0.000503107 2.1151e-19)
(-0.326523 0.000936441 7.50604e-20)
(-0.326285 0.00148709 1.78709e-21)
(-0.325861 0.00213925 4.53593e-20)
(-0.325224 0.00287516 -1.36098e-20)
(-0.324355 0.00367682 2.45751e-19)
(-0.323241 0.00452694 5.831e-19)
(-0.321874 0.00540938 2.24914e-19)
(-0.320247 0.00630925 -3.59751e-19)
(-0.318362 0.00721293 8.75871e-19)
(-0.316219 0.00810793 4.12935e-19)
(-0.313824 0.00898276 -1.19182e-18)
(-0.311186 0.00982682 1.01333e-18)
(-0.308315 0.0106303 1.28825e-18)
(-0.305224 0.011384 -9.79979e-19)
(-0.301928 0.0120798 -5.54558e-19)
(-0.298444 0.0127101 -2.32206e-19)
(-0.294792 0.0132686 3.40906e-20)
(-0.290991 0.0137501 2.59093e-18)
(-0.287062 0.0141506 -1.79825e-18)
(-0.283028 0.0144677 2.44741e-18)
(-0.278911 0.0147001 7.18424e-19)
(-0.274734 0.0148482 -1.55967e-18)
(-0.270519 0.0149137 -1.35898e-18)
(-0.266287 0.0148994 2.77649e-18)
(-0.26206 0.0148091 -2.43821e-18)
(-0.257858 0.0146477 -1.23918e-18)
(-0.253699 0.0144209 -5.07421e-18)
(-0.2496 0.014135 -3.30319e-18)
(-0.245576 0.0137967 3.92494e-18)
(-0.24164 0.013413 2.54314e-19)
(-0.237806 0.0129911 -5.38344e-19)
(-0.234082 0.0125374 3.86186e-18)
(-0.230479 0.0120579 -3.74501e-19)
(-0.227005 0.0115577 2.42789e-19)
(-0.223666 0.0110402 6.8491e-18)
(-0.220469 0.0105079 1.07813e-18)
(-0.21742 0.00996208 -1.20083e-20)
(-0.214524 0.00940301 -4.73498e-19)
(-0.211784 0.00883066 -3.33155e-19)
(-0.209205 0.00824453 -1.16934e-17)
(-0.206789 0.00764809 -3.00868e-18)
(-0.204532 0.00704448 -1.25571e-18)
(-0.202433 0.00643783 -6.6822e-20)
(-0.200487 0.00583325 -9.97413e-19)
(-0.198685 0.00523724 -3.12514e-18)
(-0.197017 0.00465731 3.76427e-19)
(-0.195472 0.00410136 4.58353e-18)
(-0.194033 0.00357713 -6.98824e-19)
(-0.192686 0.0030917 1.88588e-18)
(-0.191415 0.00265111 -1.74285e-18)
(-0.1902 0.0022596 -9.91355e-19)
(-0.189027 0.00191956 -3.51379e-18)
(-0.187879 0.00163161 -2.75289e-18)
(-0.18674 0.00139475 -1.39504e-18)
(-0.185596 0.00120674 -2.55709e-18)
(-0.184436 0.00106437 1.49382e-18)
(-0.183247 0.000963967 -1.47239e-18)
(-0.182018 0.000901681 2.84645e-19)
(-0.180741 0.000873837 1.52148e-20)
(-0.179407 0.000876804 2.97907e-18)
(-0.178007 0.000908119 4.51047e-20)
(-0.176533 0.000966407 -2.90401e-19)
(-0.174979 0.00105062 2.38767e-18)
(-0.173335 0.00115996 7.71657e-19)
(-0.171595 0.00129447 -3.08845e-18)
(-0.169749 0.00145499 -9.06619e-19)
(-0.167789 0.00164334 -4.37826e-19)
(-0.165706 0.00186219 -3.19792e-19)
(-0.163491 0.00211469 -4.06131e-19)
(-0.161132 0.00240478 6.21657e-19)
(-0.158619 0.00273733 -1.95918e-18)
(-0.155939 0.00311818 -9.03816e-19)
(-0.15308 0.00355434 -1.55729e-18)
(-0.150027 0.00405437 -1.88433e-18)
(-0.146766 0.00462827 -5.17854e-19)
(-0.143281 0.00528835 -3.57478e-19)
(-0.139555 0.00604955 -2.12067e-19)
(-0.13557 0.00693015 3.46554e-21)
(-0.131306 0.00795277 2.08269e-19)
(-0.126747 0.00914551 5.03382e-20)
(-0.121872 0.0105439 1.6244e-19)
(-0.116666 0.0121925 -5.7396e-22)
(-0.111118 0.0141492 2.67906e-19)
(-0.105222 0.0164876 7.91151e-20)
(-0.0989973 0.0193053 1.23952e-18)
(-0.0924609 0.0227222 -1.07111e-19)
(-0.0857637 0.0269119 -2.16887e-19)
(-0.0788221 0.0320626 -5.38157e-19)
(-0.072566 0.0383146 1.59864e-19)
(-0.065572 0.0463029 1.49432e-18)
(-0.0631134 0.0542801 1.65445e-19)
(-0.0557328 0.0668622 7.38725e-20)
(-0.0624143 0.0692617 -1.84097e-19)
(-0.0512044 0.082832 -3.71844e-19)
(-0.0329726 0.0363766 -4.67576e-19)
(-0.343344 -1.71965e-05 8.80733e-21)
(-0.343393 -1.42944e-05 -3.68858e-20)
(-0.343455 4.81953e-05 -1.09058e-19)
(-0.343502 0.000207612 -1.56443e-19)
(-0.343484 0.000480886 1.68479e-19)
(-0.343352 0.000867484 8.05566e-20)
(-0.343062 0.00135848 9.66309e-21)
(-0.342581 0.00194061 1.28731e-19)
(-0.341881 0.00259849 4.03914e-20)
(-0.340941 0.00331628 -4.83502e-20)
(-0.339744 0.00407857 8.34469e-19)
(-0.338282 0.00487087 2.04441e-19)
(-0.336547 0.00567974 -1.17196e-19)
(-0.334539 0.00649285 4.4444e-19)
(-0.332259 0.00729888 6.22045e-19)
(-0.329712 0.00808741 -4.18982e-19)
(-0.326907 0.00884881 6.60675e-19)
(-0.323855 0.00957418 1.18556e-18)
(-0.320569 0.0102553 4.75527e-19)
(-0.317066 0.0108846 -7.66953e-19)
(-0.313362 0.0114553 -2.07128e-18)
(-0.30948 0.0119616 1.10745e-19)
(-0.30544 0.0123987 3.44338e-18)
(-0.301264 0.012763 3.54686e-19)
(-0.296978 0.0130521 1.04748e-18)
(-0.292604 0.013265 1.56183e-18)
(-0.288168 0.0134017 -3.06458e-18)
(-0.283693 0.0134638 -1.68853e-18)
(-0.279202 0.0134537 7.40191e-19)
(-0.274719 0.0133748 -5.51023e-18)
(-0.270265 0.0132315 -1.58914e-18)
(-0.265859 0.0130288 -2.58065e-18)
(-0.26152 0.0127724 3.39129e-18)
(-0.257264 0.0124683 2.51945e-18)
(-0.253106 0.0121229 3.37933e-19)
(-0.249059 0.0117427 -2.81474e-19)
(-0.245133 0.0113337 7.78641e-19)
(-0.241339 0.0109014 -3.55145e-19)
(-0.237683 0.0104505 2.0435e-18)
(-0.234174 0.00998439 7.37466e-18)
(-0.230817 0.00950532 1.67642e-18)
(-0.227619 0.00901427 4.87456e-19)
(-0.224583 0.00851128 5.2471e-19)
(-0.221716 0.00799569 1.93695e-19)
(-0.21902 0.00746789 -5.38306e-18)
(-0.216497 0.00693234 -2.28335e-18)
(-0.21415 0.00639045 -1.15522e-18)
(-0.211977 0.00584402 2.16414e-19)
(-0.209974 0.00529688 -1.10429e-18)
(-0.208137 0.00475452 -5.71344e-18)
(-0.206457 0.00422345 3.11818e-18)
(-0.204925 0.00371074 6.51015e-18)
(-0.203527 0.00322354 -3.54152e-18)
(-0.202249 0.00276852 -6.53196e-20)
(-0.201076 0.00235146 -4.78665e-18)
(-0.19999 0.0019767 -1.10917e-18)
(-0.198976 0.00164699 -6.72425e-18)
(-0.198016 0.00136343 -4.10355e-18)
(-0.197094 0.00112566 -1.59505e-18)
(-0.196195 0.000932026 -4.45706e-18)
(-0.195307 0.000779936 4.55338e-18)
(-0.194414 0.000666214 -3.02762e-18)
(-0.193508 0.000587472 1.56149e-18)
(-0.192576 0.000540614 4.98244e-19)
(-0.191609 0.000522526 1.09711e-18)
(-0.190599 0.00053047 9.00635e-20)
(-0.189536 0.000562491 6.61032e-20)
(-0.188415 0.000617196 7.45609e-19)
(-0.187225 0.000693913 2.22219e-18)
(-0.18596 0.000792773 -2.26238e-18)
(-0.184611 0.000914735 -1.29531e-18)
(-0.183169 0.0010615 -8.70923e-19)
(-0.181625 0.00123484 -7.6436e-19)
(-0.17997 0.00143729 -7.8946e-19)
(-0.178193 0.00167227 -1.5817e-18)
(-0.176283 0.00194405 -1.86204e-18)
(-0.174226 0.00225782 -1.46661e-18)
(-0.172009 0.00261977 -1.22252e-18)
(-0.169618 0.00303751 -2.23215e-18)
(-0.167034 0.00352002 -6.35786e-19)
(-0.16424 0.00407831 -5.90666e-19)
(-0.161214 0.00472582 -3.15383e-19)
(-0.157935 0.00547908 4.49234e-20)
(-0.154377 0.00635866 -2.70604e-20)
(-0.150512 0.00739025 3.98505e-20)
(-0.146311 0.00860655 4.90199e-19)
(-0.141742 0.0100491 -1.04239e-19)
(-0.136771 0.0117723 8.35887e-19)
(-0.131361 0.0138466 -2.11872e-19)
(-0.125493 0.0163669 6.60102e-19)
(-0.119111 0.0194577 -2.35456e-19)
(-0.112316 0.0232838 -7.77488e-19)
(-0.10485 0.0281047 -1.25047e-18)
(-0.0975573 0.0338959 2.85578e-19)
(-0.0886569 0.0417899 4.73085e-19)
(-0.0829996 0.0492973 2.90633e-19)
(-0.0714906 0.0630825 1.05505e-19)
(-0.0695731 0.065557 -3.38722e-19)
(-0.0536548 0.0806023 -8.29595e-19)
(-0.0209869 0.0402817 -1.70449e-18)
(1.30258 0.174282 1.71606e-18)
(1.30146 0.18605 8.07834e-18)
(1.29975 0.192668 -1.86339e-18)
(1.29844 0.201758 1.00194e-17)
(1.29772 0.210378 8.01586e-18)
(1.29772 0.219626 -5.85248e-18)
(1.29856 0.229066 -8.48229e-18)
(1.30042 0.238823 2.94489e-18)
(1.30356 0.248809 -4.67234e-19)
(1.30827 0.258981 -1.8046e-18)
(1.31473 0.269138 -2.51747e-18)
(1.32239 0.278683 1.99275e-18)
(1.32787 0.285779 -5.77687e-18)
(1.31934 0.284636 -3.0434e-18)
(1.26822 0.264089 3.04612e-18)
(1.12722 0.21157 3.62334e-18)
(0.843837 0.127771 9.6153e-18)
(0.422037 0.0337197 3.3494e-18)
(0.0662034 0.018995 1.26577e-17)
(-0.059801 0.0237913 3.88043e-18)
(1.30598 0.175961 6.45897e-18)
(1.30502 0.187471 6.82267e-18)
(1.30339 0.193985 3.39635e-18)
(1.30226 0.203021 3.95357e-18)
(1.3017 0.211537 5.8944e-18)
(1.3019 0.220691 -8.36114e-19)
(1.30299 0.229986 -1.46303e-18)
(1.30516 0.239551 6.08916e-18)