/*--------------------------------*- C++ -*----------------------------------*\
  =========                 |
  \\      /  F ield         | OpenFOAM: The Open Source CFD Toolbox
   \\    /   O peration     | Website:  https://openfoam.org
    \\  /    A nd           | Version:  7
     \\/     M anipulation  |
\*---------------------------------------------------------------------------*/
FoamFile
{
    version     2.0;
    format      ascii;
    class       volVectorField;
    location    "86";
    object      U;
}
// * * * * * * * * * * * * * * * * * * * * * * * * * * * * * * * * * * * * * //

dimensions      [0 1 -1 0 0 0 0];

internalField   nonuniform List<vector> 
8000
(
(-0.246079 -0.000340684 -6.44106e-20)
(-0.24682 -0.000856772 2.73704e-19)
(-0.247773 -0.00150181 -2.73753e-19)
(-0.249109 -0.00194505 7.0908e-19)
(-0.250543 -0.00213996 -5.56082e-19)
(-0.251967 -0.00211148 -7.41833e-19)
(-0.253304 -0.00189226 1.08972e-18)
(-0.254499 -0.00152085 3.4054e-19)
(-0.255516 -0.00103455 2.07918e-19)
(-0.256331 -0.000465256 3.09835e-19)
(-0.256931 0.000160425 -9.52966e-19)
(-0.257309 0.000813969 -9.26156e-19)
(-0.257461 0.00148362 -5.81038e-18)
(-0.257389 0.00215508 -1.60604e-18)
(-0.257096 0.00281665 8.59367e-19)
(-0.256588 0.00345918 1.00589e-18)
(-0.255873 0.00407553 3.99798e-18)
(-0.254959 0.00466002 -8.88998e-19)
(-0.253858 0.00520813 1.30777e-18)
(-0.252581 0.00571618 2.92156e-19)
(-0.25114 0.00618116 1.74768e-18)
(-0.249547 0.00660049 2.79856e-18)
(-0.247816 0.00697203 8.81049e-19)
(-0.245962 0.00729396 -5.82336e-19)
(-0.244 0.00756487 1.02211e-19)
(-0.241943 0.00778378 1.09603e-18)
(-0.23981 0.00795018 -2.06574e-19)
(-0.237614 0.00806415 2.08325e-18)
(-0.235371 0.00812637 1.05339e-19)
(-0.233098 0.00813814 -2.21349e-20)
(-0.230809 0.00810136 9.91056e-19)
(-0.228518 0.00801848 6.55315e-20)
(-0.226239 0.00789245 4.11175e-18)
(-0.223984 0.00772665 -6.09087e-19)
(-0.221763 0.00752476 -3.02883e-18)
(-0.219587 0.00729071 -8.43566e-20)
(-0.217465 0.00702858 2.42151e-19)
(-0.215403 0.00674252 4.41093e-18)
(-0.213407 0.00643669 1.75851e-18)
(-0.211481 0.0061152 4.93428e-18)
(-0.209629 0.00578205 1.24042e-18)
(-0.207852 0.00544112 8.1927e-19)
(-0.206152 0.00509609 4.83603e-18)
(-0.204526 0.00475047 -4.69198e-19)
(-0.202973 0.00440753 2.03636e-19)
(-0.201492 0.00407032 4.55674e-19)
(-0.200077 0.00374161 -4.24172e-18)
(-0.198725 0.00342392 -5.23813e-19)
(-0.197431 0.0031195 3.19425e-19)
(-0.196188 0.00283032 7.8281e-19)
(-0.19499 0.00255808 8.51649e-19)
(-0.193831 0.00230417 -8.04631e-19)
(-0.192704 0.00206976 -1.17635e-18)
(-0.1916 0.00185573 -1.99495e-18)
(-0.190514 0.00166274 -1.50053e-18)
(-0.189436 0.00149123 1.09216e-19)
(-0.18836 0.00134143 -1.51299e-18)
(-0.187277 0.00121345 3.24022e-19)
(-0.186181 0.00110724 -8.95302e-19)
(-0.185063 0.00102273 6.09324e-19)
(-0.183916 0.000959729 5.69405e-18)
(-0.182733 0.000918394 1.46515e-18)
(-0.181507 0.000898621 6.43227e-18)
(-0.180229 0.000900158 2.42282e-19)
(-0.178893 0.0009231 4.26828e-19)
(-0.177491 0.000967642 3.62647e-18)
(-0.176016 0.00103432 1.93975e-18)
(-0.17446 0.00112379 8.40975e-18)
(-0.172816 0.00123682 2.30316e-18)
(-0.171074 0.00137488 7.58073e-19)
(-0.169228 0.00153925 8.16723e-18)
(-0.167267 0.00173257 4.41547e-18)
(-0.165183 0.00195691 1.10431e-17)
(-0.162966 0.0022153 1.84533e-18)
(-0.160605 0.00251135 2.52717e-18)
(-0.15809 0.00284925 -2.87243e-18)
(-0.155408 0.00323425 -2.6136e-18)
(-0.152546 0.00367264 5.38596e-18)
(-0.149491 0.00417179 8.92396e-18)
(-0.146228 0.00474072 7.81961e-19)
(-0.142739 0.00539028 7.7322e-18)
(-0.139009 0.00613369 3.23505e-18)
(-0.135019 0.00698711 1.00444e-17)
(-0.130748 0.00797048 -5.03681e-18)
(-0.126178 0.00910853 7.18107e-18)
(-0.121287 0.0104325 8.20669e-18)
(-0.116055 0.0119811 1.05313e-17)
(-0.110468 0.0138082 -3.68332e-18)
(-0.10451 0.0159749 7.28117e-18)
(-0.0981912 0.018572 -7.29775e-18)
(-0.091515 0.0217043 -1.77721e-18)
(-0.0845861 0.0255403 -1.91165e-18)
(-0.0774049 0.0302366 -5.0443e-19)
(-0.0705186 0.0361086 -3.44865e-19)
(-0.0633999 0.0433667 1.66819e-19)
(-0.0590135 0.0519963 3.50794e-18)
(-0.0526029 0.0632437 2.4725e-19)
(-0.0559595 0.0709881 -1.6158e-17)
(-0.0469992 0.083828 -4.35396e-18)
(-0.0369859 0.0507784 -2.40503e-17)
(-0.260259 -0.000238072 -8.46937e-20)
(-0.26079 -0.000644086 3.64843e-20)
(-0.261546 -0.00117896 -1.88844e-19)
(-0.262648 -0.00155985 3.1068e-19)
(-0.263862 -0.00173633 -5.60171e-19)
(-0.265086 -0.00172 -1.36128e-18)
(-0.266241 -0.0015342 -3.18027e-19)
(-0.267267 -0.00121081 1.95888e-19)
(-0.268124 -0.000782319 5.29446e-20)
(-0.268783 -0.000276783 1.10415e-19)
(-0.269231 0.000278726 -4.50897e-19)
(-0.269457 0.000863572 -1.55018e-18)
(-0.269455 0.00146379 -5.21314e-18)
(-0.269226 0.00206631 -1.73197e-18)
(-0.268773 0.00266046 2.14672e-18)
(-0.268102 0.00323781 1.68738e-18)
(-0.26722 0.00379172 1.92554e-18)
(-0.266139 0.00431697 -4.21817e-19)
(-0.264867 0.00480937 2.83064e-18)
(-0.263417 0.00526553 8.02076e-20)
(-0.261803 0.00568267 3.53731e-19)
(-0.260036 0.00605848 5.94654e-18)
(-0.258132 0.006391 4.1613e-18)
(-0.256106 0.0066786 -1.48806e-18)
(-0.253973 0.00692004 -5.42884e-20)
(-0.251749 0.00711442 1.56062e-18)
(-0.24945 0.00726133 -1.51325e-18)
(-0.247093 0.00736083 3.68982e-18)
(-0.244694 0.00741352 -1.1179e-18)
(-0.242269 0.00742058 -7.9222e-19)
(-0.239834 0.0073837 1.35393e-18)
(-0.237403 0.00730506 -8.45225e-19)
(-0.23499 0.00718731 1.51278e-18)
(-0.232608 0.00703345 -3.23531e-18)
(-0.230269 0.00684679 -5.35768e-19)
(-0.227984 0.00663083 -1.45922e-19)
(-0.225761 0.00638922 -2.43727e-19)
(-0.223608 0.00612569 1.97206e-18)
(-0.221531 0.00584395 2.10227e-18)
(-0.219536 0.00554769 2.53438e-18)
(-0.217626 0.0052405 8.07115e-19)
(-0.215803 0.00492585 5.24015e-19)
(-0.214069 0.00460706 2.41908e-18)
(-0.212422 0.00428728 -2.98532e-18)
(-0.210863 0.00396944 -3.84084e-19)
(-0.209389 0.0036563 5.49726e-20)
(-0.207996 0.00335035 -1.97037e-18)
(-0.20668 0.00305388 -4.63834e-19)
(-0.205437 0.00276893 1.02269e-19)
(-0.204261 0.00249729 6.4149e-19)
(-0.203146 0.00224051 5.06699e-19)
(-0.202086 0.00199988 1.35199e-18)
(-0.201073 0.00177646 -1.65266e-18)
(-0.200101 0.00157111 -3.57901e-19)
(-0.199162 0.00138442 -2.62845e-18)
(-0.198249 0.00121683 -4.89276e-19)
(-0.197354 0.00106858 -4.31386e-18)
(-0.196469 0.000939762 -1.92908e-19)
(-0.195588 0.000830343 -2.80465e-18)
(-0.194701 0.000740268 2.71134e-19)
(-0.193803 0.000669323 1.61939e-18)
(-0.192885 0.000617737 5.29932e-19)
(-0.19194 0.000585226 2.82224e-18)
(-0.19096 0.000571865 -2.18796e-18)
(-0.18994 0.000577951 -2.71086e-19)
(-0.188871 0.000603206 6.84145e-18)
(-0.187745 0.00064787 1.51914e-18)
(-0.186556 0.000712533 3.97699e-18)
(-0.185295 0.000798263 1.48473e-18)
(-0.183954 0.000906937 6.09848e-19)
(-0.182525 0.00103894 3.6195e-18)
(-0.180999 0.00119647 7.7339e-18)
(-0.179367 0.00138166 9.27307e-18)
(-0.177618 0.00159737 1.66945e-18)
(-0.175743 0.00184686 5.23255e-18)
(-0.173729 0.00213389 -6.84357e-18)
(-0.171564 0.0024633 -5.60921e-18)
(-0.169234 0.00284086 1.20571e-17)
(-0.166724 0.00327342 1.95097e-18)
(-0.164018 0.00376933 2.46956e-19)
(-0.161097 0.00433869 -5.41076e-19)
(-0.157941 0.00499387 4.34223e-18)
(-0.154528 0.00575005 3.19066e-18)
(-0.150834 0.0066261 -1.34617e-17)
(-0.146831 0.00764556 -2.12598e-18)
(-0.142492 0.00883846 -3.45353e-18)
(-0.137784 0.0102422 2.84626e-18)
(-0.132677 0.0119092 -1.01186e-17)
(-0.127133 0.0139006 -2.98105e-18)
(-0.121135 0.0163073 -1.75358e-17)
(-0.114639 0.0192376 -2.74551e-18)
(-0.107702 0.0228638 -3.42681e-18)
(-0.100213 0.0273706 -1.20279e-18)
(-0.0926452 0.0330535 -2.53832e-19)
(-0.0842304 0.040291 1.11717e-19)
(-0.07764 0.0488514 7.47818e-18)
(-0.0680492 0.0606089 5.5984e-19)
(-0.065177 0.068302 -1.29496e-17)
(-0.0500565 0.0803238 -4.39611e-18)
(-0.0252725 0.0465524 -1.11516e-17)
(-0.272954 -0.000165756 -9.38675e-21)
(-0.273332 -0.000480757 -1.71471e-19)
(-0.273927 -0.000918487 -2.06236e-19)
(-0.274829 -0.00123855 1.28316e-19)
(-0.27585 -0.00139357 -1.10036e-18)
(-0.276894 -0.00138487 -5.31948e-19)
(-0.277882 -0.00122849 1.03123e-18)
(-0.278753 -0.000950237 2.87412e-19)
(-0.279463 -0.000577978 -1.53027e-19)
(-0.279981 -0.000136166 -4.4557e-20)
(-0.28029 0.000350877 -1.43444e-19)
(-0.280377 0.000867289 9.27272e-19)
(-0.280236 0.00139785 -3.12576e-18)
(-0.279865 0.00193101 -1.6581e-18)
(-0.279268 0.00245718 1.18174e-19)
(-0.27845 0.00296872 3.18957e-18)
(-0.277419 0.00345959 7.57121e-19)
(-0.276185 0.00392503 -4.52224e-19)
(-0.27476 0.00436126 5.19414e-19)
(-0.273155 0.00476521 -7.14267e-19)
(-0.271384 0.00513437 -5.80182e-19)
(-0.26946 0.00546666 6.92331e-18)
(-0.2674 0.00576035 2.40788e-18)
(-0.265218 0.00601401 1.98218e-18)
(-0.26293 0.00622653 9.41251e-20)
(-0.260553 0.00639715 3.04729e-18)
(-0.258104 0.00652551 -3.96074e-18)
(-0.2556 0.00661166 1.62874e-18)
(-0.253058 0.00665614 -3.93854e-18)
(-0.250494 0.00665999 -1.83137e-18)
(-0.247924 0.00662468 2.63587e-18)
(-0.245364 0.00655214 -2.47285e-18)
(-0.242827 0.00644469 -4.98358e-20)
(-0.240329 0.00630495 -1.65718e-18)
(-0.23788 0.00613584 2.5163e-18)
(-0.235491 0.00594042 -3.05843e-19)
(-0.233173 0.00572192 -9.09676e-19)
(-0.230934 0.00548361 1.04068e-18)
(-0.22878 0.00522876 3.58014e-18)
(-0.226717 0.00496063 1.4834e-18)
(-0.224749 0.00468239 4.30632e-19)
(-0.222878 0.00439709 5.31332e-19)
(-0.221107 0.00410768 1.32191e-18)
(-0.219436 0.00381693 -8.41607e-19)
(-0.217864 0.00352747 -6.30899e-19)
(-0.216388 0.00324172 -1.56672e-19)
(-0.215007 0.00296192 -1.14314e-18)
(-0.213717 0.0026901 -2.07112e-19)
(-0.212512 0.0024281 2.67037e-20)
(-0.211388 0.00217752 1.04121e-18)
(-0.210339 0.00193977 4.94603e-19)
(-0.209358 0.00171603 4.18911e-18)
(-0.20844 0.00150728 -3.38367e-18)
(-0.207577 0.0013143 1.36668e-18)
(-0.206761 0.00113767 -5.35765e-18)
(-0.205986 0.000977819 -6.34123e-19)
(-0.205243 0.000834996 -9.56143e-19)
(-0.204526 0.00070933 1.299e-20)
(-0.203826 0.00060082 3.20081e-18)
(-0.203137 0.000509458 7.98238e-19)
(-0.20245 0.000434971 -1.45247e-18)
(-0.201759 0.000377711 -2.18039e-19)
(-0.201055 0.000338018 1.355e-18)
(-0.200332 0.000314813 -6.78607e-18)
(-0.199582 0.000307846 -5.3876e-19)
(-0.198799 0.000317897 3.03121e-18)
(-0.197975 0.00034567 1.52959e-18)
(-0.197101 0.000391611 2.15755e-18)
(-0.19617 0.00045583 8.42258e-19)
(-0.195175 0.000538671 4.64489e-19)
(-0.194106 0.00064195 1.54942e-18)
(-0.192956 0.000769013 2.12426e-18)
(-0.191714 0.000920523 -1.77478e-18)
(-0.19037 0.00109895 5.66306e-19)
(-0.188913 0.00130735 1.16705e-17)
(-0.187332 0.00154915 -1.77029e-18)
(-0.185613 0.00182874 4.25294e-18)
(-0.183742 0.00215136 1.24239e-17)
(-0.181702 0.00252323 -5.69253e-18)
(-0.179475 0.00295194 -1.00724e-18)
(-0.177042 0.00344674 -8.71448e-18)
(-0.174379 0.00401896 8.27425e-18)
(-0.171462 0.00468258 -1.0458e-18)
(-0.16826 0.00545504 -1.33534e-17)
(-0.164742 0.00635815 -1.0605e-17)
(-0.16087 0.00742 -1.76048e-17)
(-0.156602 0.00867569 -1.8848e-18)
(-0.151893 0.0101744 -4.85993e-18)
(-0.146684 0.011975 -1.27004e-17)
(-0.14093 0.0141642 -1.87029e-17)
(-0.134542 0.0168489 -2.49069e-18)
(-0.127532 0.0201945 -7.77142e-18)
(-0.119678 0.0243997 -2.13588e-18)
(-0.111369 0.0297358 -2.5178e-20)
(-0.101616 0.0366965 -2.21196e-20)
(-0.0927736 0.0448966 1.51866e-17)
(-0.080032 0.0565099 1.4465e-18)
(-0.0713492 0.0639478 -1.9417e-17)
(-0.0512302 0.0743354 -3.93521e-18)
(-0.0196575 0.0431093 -8.57209e-18)
(-0.28413 -0.000114701 5.07273e-20)
(-0.284397 -0.000357816 -4.90942e-19)
(-0.284864 -0.000709421 -3.25335e-19)
(-0.285601 -0.00097302 1.27181e-20)
(-0.286456 -0.00110489 -6.54404e-19)
(-0.287341 -0.00110026 2.60968e-19)
(-0.288181 -0.000969649 6.33313e-19)
(-0.288912 -0.000733395 3.11482e-19)
(-0.289491 -0.000414602 -4.89869e-19)
(-0.289882 -3.1394e-05 -2.7209e-19)
(-0.290067 0.000385441 5.50894e-20)
(-0.290031 0.000831963 -4.36353e-19)
(-0.289765 0.00129192 -3.48918e-18)
(-0.289269 0.0017548 -1.99577e-18)
(-0.288544 0.00221206 -1.16124e-18)
(-0.287596 0.00265687 1.47882e-18)
(-0.286433 0.00308386 -6.72384e-19)
(-0.285065 0.00348879 -9.43057e-19)
(-0.283503 0.00386826 -1.20408e-18)
(-0.281761 0.00421956 -1.93597e-18)
(-0.27985 0.00454046 -1.30582e-18)
(-0.277788 0.00482915 6.878e-18)
(-0.275588 0.00508408 8.5316e-19)
(-0.273267 0.00530403 -2.6103e-19)
(-0.270842 0.00548803 2.93313e-20)
(-0.268329 0.00563543 -6.93878e-20)
(-0.265746 0.00574589 -3.31079e-18)
(-0.26311 0.00581949 1.45147e-18)
(-0.260439 0.00585669 -3.28853e-18)
(-0.25775 0.00585835 -3.04676e-18)
(-0.255059 0.00582577 -4.16576e-19)
(-0.252382 0.0057606 5.47592e-20)
(-0.249734 0.00566482 -1.01375e-18)
(-0.247129 0.00554073 -1.11689e-18)
(-0.24458 0.00539082 9.4235e-19)
(-0.242097 0.00521775 -1.27823e-18)
(-0.239692 0.00502432 -2.12745e-18)
(-0.237372 0.00481335 1.21542e-18)
(-0.235146 0.0045877 4.86333e-19)
(-0.233019 0.00435018 6.54059e-19)
(-0.230995 0.00410355 2.13739e-19)
(-0.229078 0.00385046 7.72157e-19)
(-0.22727 0.00359349 1.11511e-18)
(-0.225572 0.00333504 4.26606e-19)
(-0.223982 0.0030774 -1.36009e-18)
(-0.222501 0.00282269 -2.73448e-19)
(-0.221124 0.00257287 -1.19213e-18)
(-0.219849 0.00232973 7.61957e-20)
(-0.218672 0.00209486 2.17782e-19)
(-0.217587 0.0018697 2.03279e-18)
(-0.216589 0.00165548 6.72861e-19)
(-0.215673 0.00145325 1.29142e-18)
(-0.21483 0.00126389 3.12566e-19)
(-0.214056 0.00108811 4.42639e-18)
(-0.213341 0.00092643 -3.47651e-18)
(-0.21268 0.000779245 1.32764e-19)
(-0.212064 0.000646794 1.96424e-18)
(-0.211487 0.000529188 6.42511e-19)
(-0.21094 0.000426408 1.60899e-18)
(-0.210416 0.000338417 9.26892e-19)
(-0.209908 0.000265005 -5.82947e-18)
(-0.209407 0.000206839 -8.55584e-19)
(-0.208907 0.000162248 4.26816e-19)
(-0.208402 0.000132979 -5.50951e-18)
(-0.207882 0.000119832 -1.76937e-19)
(-0.207342 0.00012059 1.7242e-18)
(-0.206772 0.000134985 1.94124e-18)
(-0.206167 0.000163403 1.49499e-18)
(-0.205518 0.000207494 6.92218e-19)
(-0.204818 0.000272056 3.28416e-19)
(-0.204056 0.000354106 8.77038e-19)
(-0.203225 0.000453844 -2.0134e-18)
(-0.202315 0.000575149 1.31446e-20)
(-0.201316 0.000720237 6.92748e-19)
(-0.200216 0.000891565 1.18632e-17)
(-0.199004 0.00109191 -5.88271e-19)
(-0.197665 0.00132515 1.67208e-18)
(-0.196184 0.00159591 4.93425e-18)
(-0.194544 0.00190976 -3.4914e-18)
(-0.192726 0.00227346 -1.87427e-18)
(-0.190707 0.00269526 -5.68874e-18)
(-0.188464 0.0031853 2.92334e-18)
(-0.185967 0.00375612 -7.66912e-18)
(-0.183183 0.00442345 -3.90321e-18)
(-0.180074 0.00520701 -5.08379e-18)
(-0.176595 0.00613235 -2.26331e-17)
(-0.172696 0.0072315 -4.50674e-18)
(-0.168316 0.0085494 -2.87927e-18)
(-0.163378 0.0101409 -9.89179e-18)
(-0.157815 0.0120864 -1.05159e-17)
(-0.151493 0.0144873 -1.24873e-18)
(-0.144382 0.0174969 -1.65427e-17)
(-0.13616 0.0213179 -2.32321e-18)
(-0.12713 0.026182 -7.06335e-20)
(-0.11611 0.032649 -1.96336e-19)
(-0.105134 0.0402298 1.29742e-17)
(-0.0894923 0.0512016 1.78801e-18)
(-0.0756893 0.0582026 -1.83549e-17)
(-0.0514731 0.0669042 -3.78101e-18)
(-0.0168349 0.0395945 -1.3374e-17)
(-0.293757 -7.88279e-05 1.24348e-19)
(-0.293946 -0.000264173 -6.16355e-19)
(-0.294314 -0.000540945 -5.58755e-19)
(-0.294918 -0.000752884 -5.92396e-20)
(-0.295633 -0.000861377 -6.39713e-19)
(-0.296384 -0.000858618 1.45255e-18)
(-0.297095 -0.000751091 6.16884e-19)
(-0.297705 -0.000554467 3.27327e-19)
(-0.298167 -0.00028752 -1.33004e-18)
(-0.298449 3.44771e-05 -5.51642e-19)
(-0.298526 0.000385239 3.21086e-19)
(-0.298382 0.000762466 -2.29861e-18)
(-0.298008 0.00115164 -1.67463e-18)
(-0.297402 0.00154376 -2.80191e-18)
(-0.296567 0.00193145 -2.50272e-18)
(-0.295507 0.00230881 1.0422e-18)
(-0.294229 0.00267119 -3.05914e-18)
(-0.292745 0.00301489 -2.0401e-18)
(-0.291065 0.00333698 -3.67075e-18)
(-0.289203 0.00363512 -4.19873e-18)
(-0.287173 0.00390739 -2.12795e-18)
(-0.284989 0.0041522 1.1769e-17)
(-0.282668 0.00436828 -1.88565e-18)
(-0.280227 0.00455454 -2.75601e-18)
(-0.277681 0.00471019 -7.11063e-20)
(-0.27505 0.00483466 -3.32988e-18)
(-0.27235 0.00492767 -4.81393e-18)
(-0.269599 0.00498929 2.88795e-18)
(-0.266815 0.00501989 -5.30808e-18)
(-0.264017 0.0050202 -5.63826e-18)
(-0.261219 0.0049913 -2.99097e-18)
(-0.25844 0.00493459 2.71188e-18)
(-0.255693 0.00485173 -2.78449e-18)
(-0.252994 0.00474467 -9.52173e-19)
(-0.250355 0.0046155 3.33642e-19)
(-0.247789 0.00446648 -3.43003e-18)
(-0.245306 0.00429998 -4.35698e-18)
(-0.242914 0.0041184 2.63063e-18)
(-0.240622 0.00392413 -2.48939e-18)
(-0.238436 0.00371959 1.6236e-19)
(-0.236361 0.00350708 -4.10145e-20)
(-0.2344 0.00328889 1.60339e-18)
(-0.232557 0.00306716 1.41945e-18)
(-0.230831 0.00284396 1.70831e-18)
(-0.229223 0.00262123 -3.36197e-18)
(-0.227731 0.00240075 -3.74341e-19)
(-0.226354 0.0021842 -1.89442e-18)
(-0.225089 0.0019731 7.76458e-19)
(-0.22393 0.00176881 5.01077e-19)
(-0.222875 0.00157256 4.39655e-18)
(-0.221916 0.0013854 9.38373e-19)
(-0.221049 0.00120825 -9.60351e-19)
(-0.220267 0.00104187 3.82769e-18)
(-0.219564 0.000886876 1.07997e-17)
(-0.218931 0.000743751 -4.90425e-18)
(-0.218363 0.00061285 1.57853e-18)
(-0.217851 0.000494418 6.29326e-18)
(-0.217388 0.000388594 1.22977e-18)
(-0.216967 0.000295439 1.0855e-18)
(-0.21658 0.000215027 1.29941e-18)
(-0.216219 0.000146884 -1.45443e-17)
(-0.215878 9.09273e-05 -1.1139e-18)
(-0.215548 5.0892e-05 7.06817e-20)
(-0.215221 2.15346e-05 -7.85619e-18)
(-0.214893 1.70763e-06 1.09078e-18)
(-0.214556 -5.23684e-06 1.94025e-18)
(-0.214201 1.14329e-06 3.68776e-18)
(-0.21382 2.14679e-05 1.4777e-18)
(-0.213405 5.55389e-05 6.98814e-19)
(-0.212949 9.80405e-05 6.21806e-19)
(-0.212445 0.000154949 6.93604e-19)
(-0.211882 0.000234256 5.74807e-18)
(-0.21125 0.000330198 2.18489e-18)
(-0.210539 0.000445555 1.45939e-18)
(-0.209738 0.000582945 5.80072e-18)
(-0.208835 0.000744976 -2.41603e-18)
(-0.207814 0.000935108 3.8493e-19)
(-0.20666 0.00115728 8.96985e-19)
(-0.205355 0.00141624 -4.93447e-18)
(-0.203879 0.00171777 -3.07862e-18)
(-0.202208 0.00206898 -6.20797e-18)
(-0.200315 0.00247864 4.8737e-19)
(-0.198169 0.00295763 -2.64739e-18)
(-0.195734 0.00351961 3.41932e-18)
(-0.192967 0.00418181 -2.26919e-18)
(-0.189816 0.0049666 -2.39994e-17)
(-0.186222 0.00590218 -5.57958e-18)
(-0.182115 0.00702809 -1.96755e-18)
(-0.1774 0.00839337 -1.37711e-17)
(-0.171987 0.0100695 -7.8006e-18)
(-0.165708 0.0121493 1.98467e-18)
(-0.158493 0.0147681 -1.61004e-17)
(-0.149934 0.0181234 -1.57083e-18)
(-0.140254 0.0224 7.01709e-19)
(-0.128109 0.0281779 1.93697e-17)
(-0.115227 0.0349126 1.9774e-17)
(-0.0970395 0.0448401 2.36988e-18)
(-0.0788861 0.0512399 -1.13673e-17)
(-0.0512524 0.0584668 -3.13511e-18)
(-0.0152685 0.0356114 -8.34486e-18)
(-0.301812 -5.35888e-05 9.02058e-20)
(-0.301948 -0.000192088 -6.38006e-19)
(-0.302241 -0.000404268 -6.9533e-20)
(-0.30274 -0.000569507 -8.13786e-20)
(-0.303343 -0.000655461 8.648e-19)
(-0.303982 -0.000653438 1.60549e-18)
(-0.304585 -0.000567142 7.66922e-19)
(-0.305093 -0.00040837 3.56842e-19)
(-0.305458 -0.000191996 2.83167e-19)
(-0.305646 6.70582e-05 -8.19636e-19)
(-0.305632 0.000355323 8.57565e-19)
(-0.305396 0.000663642 -1.5235e-18)
(-0.304932 0.00098191 -6.27171e-19)
(-0.304235 0.00130292 -2.99652e-19)
(-0.303306 0.00162056 1.77175e-19)
(-0.302152 0.00192989 1.80051e-18)
(-0.300778 0.00222705 -2.38692e-18)
(-0.299196 0.00250894 1.85883e-18)
(-0.297417 0.00277313 -2.48336e-18)
(-0.295455 0.00301765 -2.62109e-18)
(-0.293323 0.0032409 -2.65192e-18)
(-0.291038 0.0034416 1.27682e-17)
(-0.288615 0.00361865 -2.57539e-18)
(-0.286071 0.0037712 -3.19273e-19)
(-0.283425 0.00389857 2.88908e-19)
(-0.280693 0.00400031 -2.72733e-18)
(-0.277893 0.00407618 -2.15335e-18)
(-0.275045 0.00412624 5.04223e-19)
(-0.272166 0.00415077 -5.40489e-18)
(-0.269274 0.00415039 -4.42011e-18)
(-0.266386 0.00412594 5.76689e-19)
(-0.263519 0.00407858 1.19818e-18)
(-0.260688 0.00400967 -5.81401e-19)
(-0.257909 0.00392078 -8.95905e-19)
(-0.255194 0.00381364 6.91867e-20)
(-0.252555 0.00369009 -1.46498e-18)
(-0.250004 0.00355207 -1.9929e-18)
(-0.24755 0.00340153 6.23928e-20)
(-0.245201 0.00324047 -8.93039e-19)
(-0.242963 0.00307082 3.49471e-19)
(-0.240842 0.0028945 -2.4006e-19)
(-0.238843 0.00271335 3.45269e-18)
(-0.236966 0.00252916 2.39528e-18)
(-0.235215 0.00234359 3.83218e-18)
(-0.233588 0.00215824 -6.89453e-19)
(-0.232085 0.00197457 -5.3442e-20)
(-0.230705 0.00179396 -3.80853e-18)
(-0.229444 0.00161764 2.56812e-18)
(-0.228298 0.00144674 1.21121e-18)
(-0.227263 0.00128227 1.65451e-18)
(-0.226334 0.0011251 1.02143e-18)
(-0.225505 0.000975982 -3.97845e-18)
(-0.22477 0.00083556 2.11117e-18)
(-0.224122 0.000704347 5.96424e-18)
(-0.223554 0.000582749 -3.31127e-18)
(-0.22306 0.000471067 5.22641e-18)
(-0.22263 0.000369514 5.16765e-18)
(-0.222259 0.000278198 1.7148e-18)
(-0.221939 0.00019715 1.30594e-18)
(-0.221662 0.000126342 2.34232e-18)
(-0.221421 6.55754e-05 -1.33174e-17)
(-0.221206 1.85993e-05 1.04918e-18)
(-0.221013 -2.17809e-05 -1.52075e-19)
(-0.220836 -5.3359e-05 -4.59929e-18)
(-0.220664 -7.63653e-05 4.78027e-18)
(-0.22049 -8.74702e-05 3.18597e-18)
(-0.220307 -8.6535e-05 7.5965e-18)
(-0.220109 -7.33388e-05 1.78502e-18)
(-0.219889 -4.86942e-05 7.00277e-19)
(-0.219636 -1.61653e-05 1.68973e-18)
(-0.219339 3.16251e-05 7.94915e-19)
(-0.218992 8.44132e-05 3.84987e-18)
(-0.218588 0.000156217 4.58579e-18)
(-0.218113 0.000245237 3.12312e-18)
(-0.217557 0.000353265 3.73841e-18)
(-0.216905 0.000481556 -7.11232e-18)
(-0.216144 0.00063274 -6.77138e-19)
(-0.215258 0.000810108 -2.59447e-18)
(-0.214227 0.00101763 -1.01298e-17)
(-0.21303 0.00126012 -5.45808e-18)
(-0.211643 0.00154349 -1.06818e-17)
(-0.210037 0.00187501 -4.06041e-19)
(-0.208178 0.00226375 6.23019e-19)
(-0.206028 0.00272111 -4.45458e-18)
(-0.20354 0.00326146 -1.84544e-18)
(-0.200658 0.00390358 -2.3148e-17)
(-0.197313 0.00467117 -6.03223e-18)
(-0.193429 0.00559745 -1.81959e-18)
(-0.188894 0.00672417 -7.11588e-18)
(-0.183604 0.00811176 -8.3887e-18)
(-0.177356 0.00984083 8.30708e-18)
(-0.170052 0.0120246 -7.36709e-18)
(-0.161208 0.014845 1.63434e-19)
(-0.150978 0.0184393 2.06807e-18)
(-0.137891 0.0233667 2.95288e-17)
(-0.123388 0.029073 1.75183e-17)
(-0.103062 0.0376321 1.83998e-18)
(-0.0813259 0.0432492 -1.35874e-17)
(-0.0507984 0.0492181 -2.59062e-18)
(-0.0142423 0.0310354 -1.09192e-17)
(-0.308278 -3.56322e-05 9.89174e-20)
(-0.308377 -0.000135622 -5.33941e-19)
(-0.308616 -0.000291786 5.2648e-19)
(-0.309035 -0.000414979 -6.66346e-20)
(-0.309552 -0.00047973 1.29685e-18)
(-0.310102 -0.000477986 5.21151e-19)
(-0.31062 -0.000411641 9.79929e-19)
(-0.311045 -0.000289181 3.75526e-19)
(-0.311332 -0.000121505 1.91184e-18)
(-0.311444 7.90136e-05 -1.67295e-18)
(-0.311355 0.000301754 2.02383e-18)
(-0.311047 0.000540775 -2.20783e-18)
(-0.310509 0.000787989 3.33846e-19)
(-0.309738 0.0010376 2.12428e-18)
(-0.308735 0.00128477 3.27245e-18)
(-0.307504 0.00152561 3.68462e-18)
(-0.306053 0.00175705 1.90956e-18)
(-0.304392 0.00197665 1.70423e-18)
(-0.302534 0.00218246 2.1325e-18)
(-0.30049 0.00237295 -2.39812e-18)
(-0.298277 0.00254687 -3.44503e-18)
(-0.29591 0.00270318 1.06497e-17)
(-0.293404 0.00284104 -2.06957e-18)
(-0.290778 0.00295979 2.4208e-18)
(-0.28805 0.0030589 8.53002e-19)
(-0.285236 0.003138 -4.30876e-18)
(-0.282357 0.00319693 -3.33252e-19)
(-0.27943 0.0032357 -1.18933e-18)
(-0.276473 0.00325456 -3.22861e-18)
(-0.273505 0.00325395 -4.88992e-18)
(-0.270544 0.00323454 -1.14924e-18)
(-0.267605 0.0031972 3.47227e-19)
(-0.264705 0.00314301 7.58066e-19)
(-0.26186 0.00307317 -1.45326e-18)
(-0.259082 0.00298904 -2.52524e-20)
(-0.256384 0.00289205 -6.49263e-19)
(-0.253777 0.0027837 -8.30187e-19)
(-0.251271 0.00266552 -1.92903e-18)
(-0.248874 0.00253905 2.0979e-19)
(-0.246594 0.00240581 7.36761e-19)
(-0.244435 0.00226729 -5.24499e-19)
(-0.242402 0.00212491 7.7715e-19)
(-0.240497 0.00198006 4.44121e-18)
(-0.238723 0.00183405 9.34721e-19)
(-0.237079 0.0016881 3.04112e-19)
(-0.235566 0.00154336 2.9627e-19)
(-0.234181 0.00140089 -8.31789e-18)
(-0.232921 0.00126168 -6.55303e-19)
(-0.231783 0.00112659 2.18446e-18)
(-0.230763 0.000996414 -1.53964e-19)
(-0.229855 0.000871845 1.31683e-18)
(-0.229054 0.000753483 -9.8052e-18)
(-0.228354 0.000641833 3.36463e-18)
(-0.227748 0.000537315 4.50475e-18)
(-0.22723 0.000440267 -5.32011e-18)
(-0.226792 0.00035095 4.86307e-18)
(-0.226426 0.000269565 6.72849e-18)
(-0.226127 0.000196241 2.19493e-18)
(-0.225885 0.000131124 2.18946e-18)
(-0.225694 7.43843e-05 4.34573e-18)
(-0.225544 2.59488e-05 -1.19181e-17)
(-0.225431 -1.5296e-05 -3.71446e-18)
(-0.225348 -5.57441e-05 -9.09218e-19)
(-0.225283 -8.57696e-05 -4.38282e-18)
(-0.225232 -0.00010546 1.55918e-18)
(-0.225188 -0.000117091 5.89423e-18)
(-0.225141 -0.000120629 4.01828e-18)
(-0.225086 -0.000115688 1.38506e-18)
(-0.225014 -0.000100755 6.69464e-19)
(-0.224916 -7.18822e-05 3.81258e-18)
(-0.224789 -3.21578e-05 8.58604e-19)
(-0.224617 1.1965e-05 4.9946e-18)
(-0.224388 6.3612e-05 9.73216e-18)
(-0.224098 0.000129297 6.26958e-18)
(-0.223733 0.000208552 3.44893e-18)
(-0.22328 0.000303492 -3.04885e-18)
(-0.222724 0.000416628 -6.07576e-19)
(-0.222048 0.000550404 -7.55766e-18)
(-0.221233 0.000707799 -5.62991e-18)
(-0.220257 0.000892519 -9.57269e-18)
(-0.219093 0.00110914 -2.22355e-17)
(-0.217713 0.00136335 -2.61788e-20)
(-0.216082 0.00166224 4.32271e-18)
(-0.214157 0.00201477 2.67574e-18)
(-0.211889 0.00243226 -2.05163e-18)
(-0.20922 0.00292953 -1.95999e-17)
(-0.206073 0.00352534 -6.43232e-18)
(-0.202366 0.00424597 -1.77527e-18)
(-0.197976 0.00512483 -4.99778e-18)
(-0.192785 0.00620978 -1.33938e-17)
(-0.186565 0.00756672 2.04219e-18)
(-0.179193 0.00928376 -5.16355e-18)
(-0.170127 0.0115179 3.43042e-18)
(-0.159462 0.0143612 3.42795e-18)
(-0.14563 0.0183103 1.89457e-17)
(-0.129831 0.0228511 2.23406e-17)
(-0.107791 0.0297825 1.2088e-18)
(-0.0832152 0.0344316 -5.91073e-18)
(-0.0502488 0.0392633 -1.34255e-18)
(-0.0134482 0.0257558 -4.29753e-18)
(-0.31314 -2.25393e-05 1.61823e-19)
(-0.313215 -9.00548e-05 -2.1096e-19)
(-0.313417 -0.000196896 6.53838e-19)
(-0.313779 -0.000281965 -1.56883e-19)
(-0.314233 -0.000326972 8.95438e-19)
(-0.314718 -0.000325552 -4.75668e-19)
(-0.315171 -0.000278569 1.82907e-18)
(-0.315534 -0.000191799 5.88348e-19)
(-0.315761 -7.27854e-05 1.28525e-18)
(-0.315817 6.93913e-05 -3.22055e-19)
(-0.315673 0.000228374 8.73284e-19)
(-0.315308 0.000398858 -5.53935e-19)
(-0.314715 0.000575241 2.1581e-18)
(-0.313889 0.000753421 1.30512e-18)
(-0.312829 0.000929925 2.99393e-18)
(-0.311541 0.00110196 1.83813e-18)
(-0.310032 0.0012673 9.07829e-19)
(-0.308312 0.00142419 2.41978e-18)
(-0.306393 0.00157123 1.6988e-18)
(-0.304289 0.00170732 -4.65287e-18)
(-0.302014 0.00183155 -5.32653e-18)
(-0.299585 0.00194319 4.29819e-18)
(-0.297017 0.00204165 9.46767e-19)
(-0.294329 0.00212644 1.19445e-18)
(-0.291538 0.0021972 1.17122e-18)
(-0.288663 0.00225367 -2.65555e-18)
(-0.285723 0.00229573 -4.27981e-18)
(-0.282736 0.00232338 -3.8615e-18)
(-0.27972 0.00233679 -3.23555e-18)
(-0.276694 0.00233627 -1.50875e-18)
(-0.273677 0.00232228 -2.35884e-18)
(-0.270684 0.00229545 7.84276e-20)
(-0.267731 0.00225653 -4.00368e-18)
(-0.264835 0.0022064 -3.0652e-18)
(-0.262009 0.00214602 2.10629e-19)
(-0.259266 0.00207641 -1.53977e-19)
(-0.256616 0.00199867 -2.44045e-19)
(-0.25407 0.00191386 -5.11157e-18)
(-0.251637 0.0018231 -4.95451e-18)
(-0.249323 0.00172746 1.5962e-18)
(-0.247134 0.00162799 -1.36124e-18)
(-0.245074 0.0015257 -1.07684e-18)
(-0.243148 0.00142158 2.31636e-18)
(-0.241355 0.00131655 -2.31726e-18)
(-0.239698 0.00121147 1.32016e-18)
(-0.238175 0.00110716 6.11217e-19)
(-0.236784 0.00100437 -3.70131e-18)
(-0.235524 0.000903777 -2.33096e-18)
(-0.234391 0.000806013 -3.13023e-18)
(-0.23338 0.000711632 -2.49168e-18)
(-0.232487 0.000621127 2.28432e-18)
(-0.231706 0.000534923 -6.5984e-18)
(-0.231031 0.000453385 1.12232e-18)
(-0.230455 0.000376816 -3.49783e-18)
(-0.229973 0.000305464 -2.98378e-18)
(-0.229575 0.000239524 -7.52492e-20)
(-0.229256 0.000179158 2.61955e-18)
(-0.229008 0.000124471 3.08179e-18)
(-0.228823 7.56142e-05 4.20148e-18)
(-0.228695 3.25932e-05 -1.39349e-18)
(-0.228615 -4.29195e-06 -9.64341e-18)
(-0.228576 -4.04635e-05 -8.56171e-18)
(-0.228571 -6.84505e-05 -1.67809e-18)
(-0.228591 -9.09118e-05 -6.97225e-18)
(-0.22863 -0.00010814 -1.47649e-20)
(-0.22868 -0.000119191 1.18285e-18)
(-0.228734 -0.000123671 1.8268e-18)
(-0.228784 -0.000121499 8.00314e-19)
(-0.228824 -0.00011321 1.26797e-18)
(-0.228843 -9.90403e-05 8.82781e-18)
(-0.228834 -7.74564e-05 3.35826e-19)
(-0.228789 -4.16631e-05 9.70005e-18)
(-0.228697 -4.40883e-06 6.91009e-18)
(-0.228544 3.59172e-05 1.18659e-17)
(-0.228322 9.06746e-05 4.19051e-18)
(-0.228016 0.000157218 -2.08115e-18)
(-0.227611 0.000236534 -7.6491e-19)
(-0.227091 0.000330476 -1.75183e-18)
(-0.226436 0.00044125 -4.0406e-18)
(-0.225623 0.000571527 -3.35351e-18)
(-0.224626 0.000724585 -1.29064e-17)
(-0.223414 0.000904495 5.42359e-18)
(-0.221952 0.00111634 1.11972e-17)
(-0.220195 0.00136654 1.07346e-17)
(-0.218092 0.00166324 -4.30423e-18)
(-0.215581 0.00201709 -2.97732e-17)
(-0.212584 0.00244164 -7.12345e-18)
(-0.20901 0.00295576 -2.0052e-18)
(-0.20473 0.0035838 -6.70191e-18)
(-0.199617 0.00436004 -6.72951e-18)
(-0.193422 0.0053336 1.13466e-19)
(-0.186007 0.00656619 -7.11108e-18)
(-0.176782 0.00818197 9.79117e-18)
(-0.165805 0.0102304 6.23769e-18)
(-0.15143 0.0131058 2.21408e-17)
(-0.13467 0.0163878 1.91143e-17)
(-0.111347 0.0214884 -1.92287e-18)
(-0.0846499 0.0249937 -2.95537e-18)
(-0.0497065 0.0286763 -1.99184e-19)
(-0.0127851 0.0196902 -2.12629e-18)
(-0.316388 -1.2395e-05 1.68766e-19)
(-0.316448 -5.12643e-05 -4.0323e-20)
(-0.316627 -0.00011339 2.92511e-19)
(-0.316953 -0.000163049 -4.95986e-19)
(-0.317365 -0.000189222 1.11628e-18)
(-0.317807 -0.000187853 2.99306e-19)
(-0.318218 -0.000159241 1.50537e-18)
(-0.31854 -0.0001067 7.54325e-19)
(-0.318727 -3.4521e-05 1.45078e-18)
(-0.318745 5.01774e-05 5.60659e-19)
(-0.318563 0.000144672 3.3604e-19)
(-0.318162 0.00024616 5.93011e-19)
(-0.317532 0.000351277 1.14328e-18)
(-0.316668 0.000457534 9.4311e-19)
(-0.315571 0.000562836 -3.63994e-19)
(-0.314245 0.000665495 6.02805e-19)
(-0.312697 0.000764174 2.8657e-19)
(-0.310937 0.000857814 4.61097e-18)
(-0.308978 0.000945581 1.49494e-18)
(-0.306833 0.00102681 -4.76745e-18)
(-0.304517 0.00110096 -3.3088e-18)
(-0.302046 0.0011676 2.33945e-18)
(-0.299437 0.00122639 3.38167e-18)
(-0.296707 0.00127703 6.00539e-19)