/*--------------------------------*- C++ -*----------------------------------*\
  =========                 |
  \\      /  F ield         | OpenFOAM: The Open Source CFD Toolbox
   \\    /   O peration     | Website:  https://openfoam.org
    \\  /    A nd           | Version:  7
     \\/     M anipulation  |
\*---------------------------------------------------------------------------*/
FoamFile
{
    version     2.0;
    format      ascii;
    class       surfaceScalarField;
    location    "10";
    object      phi;
}
// * * * * * * * * * * * * * * * * * * * * * * * * * * * * * * * * * * * * * //

dimensions      [0 3 -1 0 0 0 0];

internalField   nonuniform List<scalar> 
203
(
0.00316377
-0.0035268
0.00280505
0.00244966
0.00209679
0.00174574
0.00139591
0.00104681
0.000698018
0.000349188
-0.000363673
0.00369738
-0.00406122
0.0064062
-0.00676987
-0.000351788
0.0033526
0.00605441
-0.000341545
0.00302865
0.00571286
-0.000332295
0.00272544
0.00538057
-0.00032403
0.00244271
0.00505654
-0.000316757
0.00218015
0.00473978
-0.000310446
0.00193733
0.00442934
-0.000305051
0.00171373
0.00412429
-0.000300544
0.00150873
0.00382374
-0.000296945
-0.00105426
0.0196679
-0.0195287
-0.00113822
0.020407
-0.0203231
-0.00101198
0.0201854
-0.0203117
0.0134098
-0.0144218
-0.00103651
0.0197991
-0.00110294
0.0204735
-0.000952793
0.0200353
0.012457
-0.00101922
0.0199224
-0.00106923
0.0205235
-0.000890469
0.0198565
0.0115665
-0.00100168
0.0200375
-0.00103639
0.0205582
-0.00083155
0.0196517
0.010735
-0.000983216
0.0201441
-0.00100289
0.0205779
-0.000775744
0.0194245
0.00995923
-0.000866336
0.0197768
-0.00096387
0.0202417
-0.000968499
0.0205825
-0.000721322
0.0191774
0.00923791
-0.00085569
0.0198885
-0.000943825
0.0203298
-0.00093346
0.0205721
-0.000668064
0.018912
0.00856985
-0.000844717
0.0199957
-0.000923134
0.0204082
-0.000897804
0.0205468
-0.000616059
0.0186302
0.00795379
-0.000833467
0.0200982
-0.000901956
0.0204767
-0.000861594
0.0205064
-0.000565465
0.0183341
0.00738832
-0.000821268
0.0201954
-0.000878601
0.020534
-0.000822931
0.0204508
-0.000520483
0.0180316
0.00686784
-0.000595288
0.0190315
-0.000695776
0.0200511
-0.000724634
0.0207038
0.0189383
-0.000580022
0.0191078
-0.00066359
0.0201347
-0.000673475
0.0207137
0.0182648
-0.000564694
0.0191794
-0.000632669
0.0202026
-0.000625154
0.0207062
0.0176396
-0.000549034
0.0192461
-0.000602979
0.0202566
-0.000580329
0.0206835
0.0170593
-0.000532877
0.0193075
-0.00057381
0.0202975
-0.000537888
0.0206476
0.0165214
-0.000516271
0.0193634
-0.000544798
0.0203261
-0.000497008
0.0205998
0.0160244
-0.000499323
0.0194136
-0.000515854
0.0203426
-0.000457353
0.0205413
0.0155671
-0.000482129
0.019458
-0.000486982
0.0203474
-0.000418759
0.0204731
0.0151483
-0.000464643
0.0194962
-0.000457785
0.0203406
-0.000380832
0.0203961
0.0147675
-0.000447661
-0.000430161
-0.000345706
-0.0187283
0.00704218
-0.00649728
-0.0182216
0.00824314
-0.00418483
-0.0166751
0.0090642
-0.000409143
-0.0127226
0.00847567
0.0048999
-0.00499787
)
;

boundaryField
{
    inlet
    {
        type            calculated;
        value           nonuniform 0();
    }
    outlet
    {
        type            calculated;
        value           nonuniform 0();
    }
    polygon
    {
        type            calculated;
        value           uniform 0;
    }
    top
    {
        type            symmetryPlane;
        value           uniform 0;
    }
    bottom
    {
        type            symmetryPlane;
        value           uniform 0;
    }
    outside
    {
        type            calculated;
        value           nonuniform 0();
    }
    procBoundary10to6
    {
        type            processor;
        value           uniform 1.18175e-11;
    }
    procBoundary10to9
    {
        type            processor;
        value           nonuniform List<scalar> 4(-0.0189503 -0.0199506 -0.0206749 -0.0196629);
    }
    procBoundary10to11
    {
        type            processor;
        value           nonuniform List<scalar> 
16
(
0.000363024
0.00132163
0.000358725
0.000355384
0.000352869
0.000351055
0.000349831
0.000349102
0.000348789
0.00034883
0.000349188
0.00057932
0.000553267
0.000528651
0.00050554
0.000484051
)
;
    }
    procBoundary10to14
    {
        type            processor;
        value           nonuniform List<scalar> 
23
(
0.000915053
0.000905317
0.000895962
0.000886502
0.000876629
-0.0196608
0.000750319
0.00074397
0.000737509
0.000730951
0.000724135
0.000514113
0.000503662
0.000493114
0.000482401
0.000471472
0.000460357
0.000449108
0.000437773
0.000426366
0.000415188
-0.00575848
0.00796437
)
;
    }
    procBoundary10to15
    {
        type            processor;
        value           nonuniform List<scalar> 10(0.000727511 0.000696575 0.000665495 0.000635506 0.000606754 0.0174446 0.0170206 0.015854 0.0133111 0.00941231);
    }
}


// ************************************************************************* //
