/*--------------------------------*- C++ -*----------------------------------*\
  =========                 |
  \\      /  F ield         | OpenFOAM: The Open Source CFD Toolbox
   \\    /   O peration     | Website:  https://openfoam.org
    \\  /    A nd           | Version:  7
     \\/     M anipulation  |
\*---------------------------------------------------------------------------*/
FoamFile
{
    version     2.0;
    format      ascii;
    class       volVectorField;
    location    "10";
    object      U;
}
// * * * * * * * * * * * * * * * * * * * * * * * * * * * * * * * * * * * * * //

dimensions      [0 1 -1 0 0 0 0];

internalField   nonuniform List<vector> 
125
(
(0.114807 -0.0289738 -1.99909e-17)
(0.12177 -0.0258744 -2.50485e-17)
(0.128301 -0.0227563 -2.71159e-17)
(0.134288 -0.0196864 -1.98831e-17)
(0.13963 -0.0166422 -1.57108e-17)
(0.144232 -0.0136079 -1.33859e-17)
(0.148014 -0.0105793 -5.9896e-18)
(0.15091 -0.00755396 8.53032e-19)
(0.152869 -0.00452618 8.12266e-18)
(0.153855 -0.00148464 9.78246e-18)
(0.453549 -0.033557 1.31238e-17)
(0.0474607 -0.0567232 -8.21315e-19)
(0.430554 -0.0303802 7.91133e-18)
(0.0528284 -0.0536395 -1.07753e-18)
(0.408488 -0.0276216 3.39038e-18)
(0.0587012 -0.0504899 -9.31102e-19)
(0.387409 -0.0249649 -1.27488e-18)
(0.0650073 -0.0476219 -8.58915e-19)
(0.367369 -0.022453 -6.56241e-18)
(0.0716733 -0.0448665 -1.08484e-18)
(0.348407 -0.020117 -1.25216e-17)
(0.0786247 -0.0421533 5.11781e-18)
(0.330557 -0.0179499 -1.24097e-17)
(0.0857848 -0.0394858 5.963e-18)
(0.31384 -0.0159483 -1.35413e-17)
(0.0930744 -0.0368736 6.2344e-19)
(0.298271 -0.0141248 -8.97554e-18)
(0.100413 -0.034317 -4.96335e-18)
(0.283858 -0.012427 -5.37361e-18)
(0.107718 -0.0317239 -1.15771e-17)
(1.26736 0.0487162 -8.36819e-18)
(1.31539 0.0411238 1.60836e-17)
(1.30447 -0.0481296 -8.63714e-18)
(0.899961 -0.018563 -4.68601e-17)
(1.26676 0.0422162 -6.4912e-18)
(1.31018 0.0293345 1.54899e-17)
(1.28597 -0.0634008 -9.26682e-18)
(0.826558 -0.0312094 -4.34408e-17)
(1.26637 0.0355625 -6.14584e-18)
(1.30509 0.0172688 1.44115e-17)
(1.26751 -0.0775555 -9.91781e-18)
(0.758739 -0.0423215 -3.6761e-17)
(1.26539 0.0287637 -4.4741e-18)
(1.29893 0.00499404 1.35651e-17)
(1.24723 -0.0910975 -9.7566e-18)
(0.700161 -0.0525985 -1.30447e-17)
(1.26372 0.0218448 -3.74115e-18)
(1.29166 -0.00740841 4.53686e-18)
(1.22511 -0.104321 -1.01626e-17)
(0.646194 -0.0624999 -8.11572e-18)
(1.23298 0.0500044 -2.06747e-17)
(1.2615 0.0148196 -2.75121e-18)
(1.28353 -0.0198932 4.31094e-18)
(1.20183 -0.11737 -1.01111e-17)
(0.595544 -0.0722684 8.31841e-18)
(1.23175 0.045478 -1.90216e-17)
(1.25876 0.00769685 -2.12338e-18)
(1.27464 -0.0324395 3.65939e-18)
(1.17774 -0.130378 -9.18436e-18)
(0.548715 -0.08206 -1.2325e-17)
(1.23027 0.0409357 -1.2658e-17)
(1.25546 0.000484339 -2.33467e-18)
(1.26492 -0.0450374 -4.64292e-18)
(1.15285 -0.143479 -8.04628e-18)
(0.505936 -0.0918147 -1.15415e-17)
(1.22856 0.0363946 -1.26117e-17)
(1.25171 -0.00677976 -2.05923e-18)
(1.25477 -0.057619 3.52203e-18)
(1.12788 -0.156836 -7.6118e-18)
(0.465497 -0.100861 -9.99561e-18)
(1.22653 0.0317155 -7.44578e-18)
(1.24706 -0.0145299 -2.12072e-18)
(1.24216 -0.0710619 2.95907e-18)
(1.09787 -0.170257 -1.96563e-17)
(0.425797 -0.10699 -9.41833e-18)
(1.26396 0.119942 -4.3042e-18)
(1.33112 0.144961 -1.50331e-17)
(1.37538 0.137147 5.81273e-18)
(1.29014 0.166214 -1.8599e-17)
(1.26512 0.112987 2.43022e-18)
(1.33264 0.136 -1.47704e-17)
(1.37006 0.114195 4.71202e-18)
(1.23882 0.142563 -3.92491e-17)
(1.26691 0.105909 2.46446e-18)
(1.33448 0.126622 -4.4527e-18)
(1.36714 0.0932133 5.19089e-18)
(1.18541 0.120887 -3.48487e-17)
(1.2685 0.0987254 1.85355e-18)
(1.33542 0.116819 -4.28155e-18)
(1.36372 0.0736713 -6.26545e-18)
(1.14069 0.100787 -5.09387e-17)
(1.2696 0.091483 9.47903e-19)
(1.33522 0.106681 -5.55205e-18)
(1.35879 0.0550132 -7.04849e-18)
(1.10205 0.0817094 -4.92039e-17)
(1.27027 0.084218 5.83545e-19)
(1.33407 0.0962845 4.41632e-18)
(1.35268 0.036986 -7.83365e-18)
(1.06619 0.063403 -4.56917e-17)
(1.27057 0.0769556 5.74499e-19)
(1.33214 0.0856755 2.61303e-18)
(1.34579 0.0194525 -6.71267e-18)
(1.03252 0.0457526 -4.27721e-17)
(1.2705 0.0697206 1.3266e-18)
(1.3295 0.0748979 1.04761e-17)
(1.33847 0.00228311 -1.8201e-17)
(1.00133 0.028631 -3.8996e-17)
(1.27006 0.0625157 -4.3462e-18)
(1.326 0.0638919 8.44834e-18)
(1.32977 -0.0147507 -1.95559e-17)
(0.972761 0.0119209 -5.40896e-17)
(1.26893 0.0555376 -1.01842e-17)
(1.32193 0.0533013 1.72867e-17)
(1.32451 -0.0311094 -8.06074e-18)
(0.95403 -0.0041288 -5.12558e-17)
(1.10838 -0.0529703 -4.19255e-17)
(1.15781 0.0661139 2.83771e-18)
(1.08526 -0.0694707 -4.78703e-18)
(1.11713 0.0446262 4.58222e-18)
(1.01347 -0.0700724 -3.95201e-17)
(0.997874 0.0285965 4.50003e-17)
(0.841069 -0.0879375 -2.97949e-18)
(0.687787 -0.0221284 -5.2359e-20)
(0.569802 -0.0548666 4.52327e-17)
(0.0246319 -0.0634942 -1.85351e-18)
)
;

boundaryField
{
    inlet
    {
        type            uniformFixedValue;
        uniformValue    constant (1 0 0);
        value           nonuniform 0();
    }
    outlet
    {
        type            pressureInletOutletVelocity;
        value           nonuniform 0();
    }
    polygon
    {
        type            fixedValue;
        value           uniform (0 0 0);
    }
    top
    {
        type            symmetryPlane;
    }
    bottom
    {
        type            symmetryPlane;
    }
    outside
    {
        type            zeroGradient;
    }
    procBoundary10to6
    {
        type            processor;
        value           uniform (0.153855 0.00148463 1.30102e-17);
    }
    procBoundary10to9
    {
        type            processor;
        value           nonuniform List<vector> 4((1.26372 0.126811 -3.58341e-18) (1.33058 0.153644 -1.57371e-17) (1.38297 0.161089 -4.00314e-18) (1.30912 0.190434 -2.42039e-17));
    }
    procBoundary10to11
    {
        type            processor;
        value           nonuniform List<vector> 
16
(
(0.270551 -0.0106407 -2.2815e-18)
(0.270551 -0.0106407 -2.2815e-18)
(0.258252 -0.00904602 7.3929e-19)
(0.247414 -0.00760106 -3.84319e-18)
(0.238011 -0.00629132 -1.11255e-18)
(0.230013 -0.00510845 8.89336e-18)
(0.223394 -0.00403508 2.05008e-17)
(0.218129 -0.00305213 2.73536e-17)
(0.214197 -0.002139 3.07208e-17)
(0.211583 -0.00127527 3.07139e-17)
(0.210277 -0.000456902 2.73048e-17)
(0.394562 -0.029432 -2.66347e-19)
(0.378253 -0.0278095 -3.01184e-19)
(0.362659 -0.0261537 -7.52898e-19)
(0.34783 -0.0244875 -8.02602e-19)
(0.333816 -0.0227548 -9.10935e-19)
)
;
    }
    procBoundary10to14
    {
        type            processor;
        value           nonuniform List<vector> 
23
(
(1.23569 0.0719918 -2.27176e-17)
(1.23536 0.0677265 -2.71274e-17)
(1.23517 0.0633825 -2.53984e-17)
(1.23473 0.0589687 -2.37639e-17)
(1.23398 0.0545047 -2.18863e-17)
(1.23398 0.0545047 -2.18863e-17)
(1.20715 0.0596218 -1.05406e-17)
(1.20657 0.0567994 -1.02756e-17)
(1.20586 0.0539829 -1.4127e-17)
(1.20502 0.051179 -1.36792e-17)
(1.20401 0.0483707 -1.33389e-17)
(1.23271 0.116526 -5.52351e-18)
(1.23376 0.112319 5.61865e-19)
(1.23506 0.108032 5.75956e-19)
(1.23615 0.103658 8.83558e-20)
(1.23692 0.0992117 -1.22133e-19)
(1.23738 0.0947128 6.27375e-20)
(1.23759 0.0901742 7.36969e-19)
(1.23755 0.0856084 -4.30412e-18)
(1.23727 0.0810207 -1.43433e-17)
(1.23652 0.0765135 -1.85065e-17)
(1.11356 -0.0445868 -3.90334e-17)
(1.17007 0.071715 2.78058e-18)
)
;
    }
    procBoundary10to15
    {
        type            processor;
        value           nonuniform List<vector> 10((0.484869 -0.0369788 1.27781e-18) (0.465841 -0.0354878 1.15151e-18) (0.447233 -0.0340141 5.28035e-19) (0.42911 -0.0325399 -7.21977e-20) (0.411533 -0.0310115 -1.94917e-19) (1.01907 -0.0379955 -1.12724e-17) (0.991121 -0.045577 -2.17666e-18) (0.921799 -0.0480045 -9.05155e-18) (0.785027 -0.0540366 -1.86282e-18) (0.581913 -0.0428938 2.17953e-18));
    }
}


// ************************************************************************* //
