/*--------------------------------*- C++ -*----------------------------------*\
  =========                 |
  \\      /  F ield         | OpenFOAM: The Open Source CFD Toolbox
   \\    /   O peration     | Website:  https://openfoam.org
    \\  /    A nd           | Version:  7
     \\/     M anipulation  |
\*---------------------------------------------------------------------------*/
FoamFile
{
    version     2.0;
    format      ascii;
    class       volVectorField;
    location    "16";
    object      U;
}
// * * * * * * * * * * * * * * * * * * * * * * * * * * * * * * * * * * * * * //

dimensions      [0 1 -1 0 0 0 0];

internalField   nonuniform List<vector> 
125
(
(0.683797 -0.0425099 4.95119e-18)
(0.670354 -0.0446975 -5.07597e-18)
(0.656233 -0.0470805 -7.58633e-18)
(0.641375 -0.0496859 -1.67775e-17)
(0.62571 -0.052544 -5.99081e-18)
(0.609161 -0.0556886 -1.57355e-17)
(0.591639 -0.0591571 -1.99058e-18)
(0.573043 -0.0629901 -6.23699e-18)
(0.55326 -0.0672314 -1.31883e-17)
(0.532163 -0.0719263 4.87291e-18)
(0.509606 -0.0771166 -2.15136e-18)
(0.485431 -0.0828429 2.18667e-18)
(0.459468 -0.0891424 1.22854e-17)
(0.431532 -0.0960396 -3.68431e-18)
(0.401428 -0.103542 -2.49762e-18)
(0.368956 -0.111629 -9.60818e-19)
(0.674764 -0.0383846 -2.70083e-18)
(0.660978 -0.0403583 -2.46169e-18)
(0.646493 -0.042508 -6.07715e-18)
(0.631247 -0.0448578 -1.01432e-17)
(0.615168 -0.0474347 -6.42842e-18)
(0.598176 -0.0502691 -7.07649e-18)
(0.580178 -0.0533948 -1.04353e-18)
(0.561071 -0.0568483 -3.57535e-18)
(0.540737 -0.0606689 -3.4735e-18)
(0.519047 -0.0648974 1.35808e-17)
(0.495852 -0.0695702 -1.0212e-18)
(0.470987 -0.0747195 2.16315e-18)
(0.444279 -0.0803801 5.70318e-18)
(0.41554 -0.0865735 -3.01223e-18)
(0.38457 -0.0933051 -1.53778e-18)
(0.351169 -0.100557 -9.2663e-19)
(0.665867 -0.034171 -9.78512e-18)
(0.651737 -0.0359273 9.79156e-19)
(0.636887 -0.0378399 -4.14031e-18)
(0.652968 -0.160454 -1.8008e-19)
(0.639856 -0.171505 -5.30392e-19)
(0.626409 -0.183638 -2.35675e-19)
(0.612602 -0.196906 5.92674e-19)
(0.5984 -0.211319 1.42732e-18)
(0.774707 -0.0772931 -5.40909e-19)
(0.764914 -0.080922 -2.33615e-19)
(0.754762 -0.0848341 -7.2505e-19)
(0.744237 -0.0890691 -4.33056e-19)
(0.73332 -0.0936713 -1.99068e-19)
(0.721994 -0.098689 -3.08659e-19)
(0.710241 -0.104175 2.84077e-20)
(0.698043 -0.110187 -3.79905e-19)
(0.685383 -0.116788 -2.26162e-19)
(0.67224 -0.124049 3.17032e-19)
(0.658592 -0.132048 -4.03603e-20)
(0.644409 -0.140867 3.11525e-19)
(0.629655 -0.150591 1.45109e-19)
(0.614284 -0.1613 -1.51876e-19)
(0.598239 -0.173063 3.43528e-19)
(0.581451 -0.185921 9.5848e-19)
(0.563838 -0.199877 1.31276e-18)
(0.762075 -0.0703219 -5.85603e-19)
(0.751743 -0.0736843 -8.55678e-19)
(0.740994 -0.0773165 -9.01136e-19)
(0.729804 -0.0812565 -5.73728e-19)
(0.718146 -0.0855471 -4.70424e-19)
(0.705988 -0.0902355 -5.02582e-19)
(0.693296 -0.0953735 -2.90513e-19)
(0.680035 -0.101018 -4.235e-19)
(0.666165 -0.10723 7.397e-21)
(0.651642 -0.114078 3.53434e-20)
(0.636415 -0.121635 -1.61642e-19)
(0.620425 -0.129977 4.24529e-19)
(0.603602 -0.139183 4.32017e-20)
(0.585866 -0.149324 2.92293e-21)
(0.56712 -0.16046 3.24595e-19)
(0.547257 -0.172622 9.62732e-19)
(0.526154 -0.185804 1.72782e-18)
(0.747235 -0.0629633 -3.32816e-18)
(0.736304 -0.066019 -3.68731e-18)
(0.724896 -0.0693256 -3.48181e-18)
(0.712977 -0.072918 -4.00927e-18)
(0.700511 -0.0768361 -3.84206e-18)
(0.687452 -0.0811243 -3.56499e-18)
(0.673753 -0.0858317 -3.43639e-18)
(0.659361 -0.0910117 -3.44999e-18)
(0.644214 -0.0967224 -3.04697e-18)
(0.628246 -0.103027 -2.81562e-18)
(0.61138 -0.109991 -2.89687e-18)
(0.593529 -0.117685 -1.63227e-18)
(0.574592 -0.126177 -1.05235e-18)
(0.554458 -0.135531 -2.94287e-19)
(0.532997 -0.145793 -6.9125e-19)
(0.510069 -0.156989 -7.33291e-19)
(0.48552 -0.169103 6.63611e-19)
(0.730054 -0.0551894 -2.17711e-17)
(0.718461 -0.0578974 -2.26011e-17)
(0.706331 -0.0608316 -2.28175e-17)
(0.693623 -0.064023 -2.37415e-17)
(0.680288 -0.0675073 -2.43004e-17)
(0.666273 -0.0713245 -2.45253e-17)
(0.651514 -0.0755191 -2.50961e-17)
(0.635942 -0.0801394 -2.46484e-17)
(0.619479 -0.0852378 -2.44231e-17)
(0.602037 -0.0908703 -2.40849e-17)
(0.583515 -0.0970953 -2.31004e-17)
(0.563801 -0.103973 -2.11906e-17)
(0.542767 -0.111563 -1.51258e-17)
(0.520275 -0.11992 2.30938e-19)
(0.496168 -0.129082 -7.84541e-18)
(0.470279 -0.139063 -2.11586e-17)
(0.442433 -0.149844 -1.54811e-17)
(0.710921 -0.0470109 -4.21241e-18)
(0.698618 -0.0493351 -5.69705e-18)
(0.685722 -0.0518554 -7.49626e-18)
(0.672185 -0.0545982 -7.96767e-18)
(0.65795 -0.057594 -9.18282e-18)
(0.642953 -0.060877 -7.58435e-18)
(0.627122 -0.0644852 -8.82298e-18)
(0.610372 -0.0684601 -6.53933e-18)
(0.59261 -0.0728464 -7.78689e-18)
(0.573731 -0.0776915 -7.69178e-18)
(0.553614 -0.0830448 -4.67318e-18)
(0.532125 -0.0889577 -5.06631e-18)
(0.509113 -0.0954804 -2.08791e-18)
(0.484414 -0.102651 5.04813e-19)
(0.457854 -0.110493 -4.2748e-18)
(0.429244 -0.119014 -5.8507e-18)
(0.39839 -0.128185 -2.81247e-18)
)
;

boundaryField
{
    inlet
    {
        type            uniformFixedValue;
        uniformValue    constant (1 0 0);
        value           nonuniform 0();
    }
    outlet
    {
        type            pressureInletOutletVelocity;
        value           nonuniform 0();
    }
    polygon
    {
        type            fixedValue;
        value           nonuniform 0();
    }
    top
    {
        type            symmetryPlane;
    }
    bottom
    {
        type            symmetryPlane;
    }
    outside
    {
        type            zeroGradient;
    }
    procBoundary45to37
    {
        type            processor;
        value           nonuniform List<vector> 
17
(
(0.621253 -0.0399299 -7.87442e-18)
(0.604761 -0.0422211 -1.12686e-17)
(0.587329 -0.0447403 -3.00036e-18)
(0.568861 -0.0475169 -6.70181e-19)
(0.549251 -0.0505831 -2.11185e-18)
(0.528379 -0.0539731 2.67471e-19)
(0.506111 -0.0577223 7.27589e-18)
(0.482297 -0.0618654 7.49021e-19)
(0.456769 -0.0664308 1.5681e-18)
(0.429349 -0.071448 1.97513e-18)
(0.399847 -0.0769356 -2.69978e-18)
(0.368063 -0.0828979 -1.19201e-18)
(0.333793 -0.0893193 -1.87397e-18)
(0.657319 -0.0298479 -1.97735e-18)
(0.642851 -0.031382 4.90074e-18)
(0.621253 -0.0399299 -7.87442e-18)
(0.627644 -0.0330525 -1.24636e-18)
)
;
    }
    procBoundary45to38
    {
        type            processor;
        value           uniform (0.679333 -0.0325529 2.56175e-18);
    }
    procBoundary45to44
    {
        type            processor;
        value           nonuniform List<vector> 6((0.333921 -0.120246 1.52145e-18) (0.315139 -0.108278 8.34626e-19) (0.503681 -0.19994 4.18374e-18) (0.459192 -0.182065 1.73395e-18) (0.412453 -0.161355 -1.00357e-17) (0.3651 -0.137937 1.32006e-18));
    }
    procBoundary45to46
    {
        type            processor;
        value           nonuniform List<vector> 8((0.696615 -0.0404947 5.55072e-18) (0.696615 -0.0404947 5.55072e-18) (0.687906 -0.0365664 1.06319e-17) (0.784157 -0.0739125 -2.84466e-19) (0.772012 -0.0671965 -2.01864e-19) (0.757717 -0.0601285 -3.47535e-18) (0.741145 -0.0526811 -2.13276e-17) (0.722674 -0.0448602 -6.28605e-18));
    }
    procBoundary45to52
    {
        type            processor;
        value           nonuniform List<vector> 2((0.583754 -0.226826 3.04969e-18) (0.545306 -0.214871 2.07172e-18));
    }
    procBoundary45to53
    {
        type            processor;
        value           nonuniform List<vector> 
18
(
(0.673892 -0.168875 -8.06349e-19)
(0.662862 -0.180044 -8.56284e-19)
(0.651824 -0.192293 -1.07415e-18)
(0.640802 -0.205681 -6.37688e-19)
(0.629812 -0.220226 4.23334e-19)
(0.78555 -0.0839202 -6.22039e-19)
(0.776244 -0.087778 -8.70673e-19)
(0.766634 -0.0919269 -2.58383e-19)
(0.756711 -0.0964071 -6.35983e-19)
(0.74647 -0.101263 -8.04129e-19)
(0.735905 -0.106541 -8.03369e-19)
(0.725014 -0.112294 -5.50171e-19)
(0.713799 -0.118578 -5.76825e-19)
(0.702261 -0.125457 -7.14287e-19)
(0.690406 -0.133001 -4.36593e-19)
(0.678239 -0.141291 -6.55756e-19)
(0.66576 -0.150412 -3.31559e-19)
(0.66576 -0.150412 -3.31559e-19)
)
;
    }
}


// ************************************************************************* //
