/*--------------------------------*- C++ -*----------------------------------*\
  =========                 |
  \\      /  F ield         | OpenFOAM: The Open Source CFD Toolbox
   \\    /   O peration     | Website:  https://openfoam.org
    \\  /    A nd           | Version:  7
     \\/     M anipulation  |
\*---------------------------------------------------------------------------*/
FoamFile
{
    version     2.0;
    format      ascii;
    class       surfaceScalarField;
    location    "26";
    object      phi;
}
// * * * * * * * * * * * * * * * * * * * * * * * * * * * * * * * * * * * * * //

dimensions      [0 3 -1 0 0 0 0];

internalField   nonuniform List<scalar> 
14496
(
-0.00393467
8.17195e-05
-0.00016327
-0.00385126
8.35841e-05
-0.000166998
-0.00376621
8.52555e-05
-0.000170302
-0.00367832
8.80435e-05
-0.000175931
-0.00358768
9.08635e-05
-0.000181507
-0.00349313
9.47214e-05
-0.000189269
-0.00339463
9.8716e-05
-0.000197216
-0.00329118
0.000103642
-0.00020709
-0.00318254
0.000108857
-0.000217498
-0.00306786
0.000114888
-0.000229569
-0.00294672
0.000121358
-0.000242496
-0.00281838
0.000128567
-0.000256915
-0.00268228
0.000136324
-0.000272422
-0.00253772
0.000144784
-0.000289338
-0.0023841
0.000153856
-0.000307478
-0.00222073
0.000163604
-0.000326974
-0.00204699
0.000173978
-0.000347721
-0.00186225
0.000184976
-0.000369718
-0.00166594
0.000196532
-0.000392834
-0.0014576
0.000208567
-0.000416912
-0.00123689
0.000220923
-0.000441635
-0.00100357
0.000233504
-0.000466825
-0.000757527
0.000246196
-0.000492235
-0.000498932
0.00025872
-0.000517315
-0.000228301
0.000270725
-0.000541356
5.37791e-05
0.000282082
-0.000564162
0.000344715
0.000290943
-0.000581878
0.000643444
0.000298672
-0.000597402
0.000946994
0.000303496
-0.000607045
0.00125192
0.00030486
-0.000609789
0.00155413
0.000302173
-0.000604381
0.00184898
0.000294898
-0.000589748
0.00213157
0.000282771
-0.000565362
0.00239705
0.000265834
-0.000531308
0.00264094
0.000244463
-0.000488358
0.00285949
0.000219334
-0.000437885
0.00304983
0.000191317
-0.000381658
0.00321007
0.000161371
-0.00032161
0.00333926
0.000130433
-0.000259625
0.00343731
9.93468e-05
-0.000197397
0.00350486
6.88485e-05
-0.000136393
0.00354309
3.95088e-05
-7.77412e-05
0.0035537
1.18932e-05
-2.25006e-05
0.00353871
-1.39714e-05
2.89561e-05
0.00350037
-3.73145e-05
7.56546e-05
0.00344118
-5.83063e-05
0.000117497
0.00336371
-7.67292e-05
0.000154198
0.00327062
-9.25068e-05
0.000185605
0.00316454
-0.000105632
0.000211708
0.0030481
-0.000116149
0.000232592
0.0029238
-0.000124142
0.000248434
0.00279405
-0.000129738
0.000259489
0.00266108
-0.00013309
0.000266064
0.00252694
-0.000134373
0.00026851
0.00239351
-0.000133778
0.000267212
0.00226244
-0.000131511
0.000262582
0.00213517
-0.000127786
0.00025505
0.00201295
-0.00012282
0.000245048
0.00189677
-0.000116824
0.000233002
0.00178745
-0.000110005
0.000219324
0.0016856
-0.000102558
0.000204403
0.00159166
-9.46643e-05
0.000188604
0.00150589
-8.64938e-05
0.000172263
0.00142841
-7.8199e-05
0.000155685
0.00135918
-6.99171e-05
0.000139142
0.00129808
-6.17698e-05
0.000122878
0.00124484
-5.38625e-05
0.0001071
0.00119913
-4.62868e-05
9.19918e-05
0.00116055
-3.91213e-05
7.77082e-05
0.0011286
-3.24329e-05
6.43823e-05
0.00110275
-2.62784e-05
5.21262e-05
0.00108241
-2.0712e-05
4.10501e-05
0.00106694
-1.57704e-05
3.12382e-05
0.00105573
-1.14616e-05
2.26768e-05
0.00104818
-7.75498e-06
1.52984e-05
0.00104363
-4.70385e-06
9.25909e-06
0.0010414
-2.31702e-06
4.54898e-06
0.00104084
-5.65674e-07
1.12283e-06
0.00104128
5.09657e-07
-9.54089e-07
0.00104211
9.54982e-07
-1.77989e-06
0.00104275
8.45455e-07
-1.48555e-06
0.00104267
1.85372e-07
-1.02849e-07
0.00104128
-1.05354e-06
2.4354e-06
0.00103814
-2.7753e-06
5.92477e-06
0.00103273
-4.98361e-06
1.03866e-05
0.00102458
-7.6986e-06
1.58481e-05
0.00101316
-1.09621e-05
2.23889e-05
0.000997848
-1.48507e-05
3.01583e-05
0.000977932
-1.94963e-05
3.94125e-05
0.000952507
-2.50742e-05
5.04994e-05
0.000920364
-3.1917e-05
6.406e-05
0.000880071
-4.02317e-05
8.05244e-05
0.000829246
-5.10732e-05
0.000101899
0.00076612
-6.37668e-05
0.000126893
0.000684432
-8.294e-05
0.000164628
0.000585737
-0.000100822
0.000199517
0.000452473
-0.00013627
0.000269534
0.000305569
-0.000152107
0.000299011
0.000128282
-0.000180405
0.000357692
-0.00013171
0.000259992
-0.00392824
9.67211e-12
-0.00384466
8.77218e-12
-0.0037594
8.41277e-12
-0.00367136
7.63442e-12
-0.0035805
7.01365e-12
-0.00348577
6.31036e-12
-0.00338706
5.55218e-12
-0.00328342
4.79944e-12
-0.00317456
4.15901e-12
-0.00305967
3.29329e-12
-0.00293831
2.50275e-12
-0.00280975
1.54391e-12
-0.00267342
4.14293e-13
-0.00252864
-8.50251e-13
-0.00237478
-2.19308e-12
-0.00221118
-3.91169e-12
-0.0020372
-6.21679e-12
-0.00185222
-8.94243e-12
-0.00165569
-1.08921e-11
-0.00144713
-1.21138e-11
-0.0012262
-1.29889e-11
-0.000992699
-1.42215e-11
-0.000746503
-1.57853e-11
-0.000487783
-1.74901e-11
-0.000217058
-1.94248e-11
6.50238e-05
-2.15905e-11
0.000355967
-2.37781e-11
0.000654639
-2.62931e-11
0.000958135
-2.84305e-11
0.00126299
-3.23287e-11
0.00156517
-3.60252e-11
0.00186007
-3.79838e-11
0.00214284
-3.79408e-11
0.00240867
-3.51471e-11
0.00265313
-3.23917e-11
0.00287247
-3.05195e-11
0.00306379
-2.89285e-11
0.00322516
-2.7162e-11
0.00335559
-2.54623e-11
0.00345494
-2.34345e-11
0.00352378
-2.14338e-11
0.00356329
-1.8797e-11
0.00357519
-1.59037e-11
0.00356122
-1.33239e-11
0.0035239
-9.70049e-12
0.00346559
-6.19162e-12
0.00338886
-3.12071e-12
0.00329636
3.88795e-13
0.00319073
3.91116e-12
0.00307458
7.57566e-12
0.00295044
1.17341e-11
0.0028207
1.56792e-11
0.00268761
1.86122e-11
0.00255323
2.10819e-11
0.00241946
2.34293e-11
0.00228795
2.54751e-11
0.00216016
2.74581e-11
0.00203734
2.89451e-11
0.00192052
2.97455e-11
0.00181051
3.05094e-11
0.00170795
3.1649e-11
0.00161329
3.32439e-11
0.00152679
3.43998e-11
0.0014486
3.48814e-11
0.00137868
3.46799e-11
0.00131691
3.40173e-11
0.00126305
3.27713e-11
0.00121676
3.0881e-11
0.00117764
2.85845e-11
0.00114521
2.57431e-11
0.00111893
2.24311e-11
0.00109821
1.88419e-11
0.00108244
1.51863e-11
0.00107098
1.17395e-11
0.00106323
8.47156e-12
0.00105852
5.44614e-12
0.00105621
2.93306e-12
0.00105564
8.54273e-13
0.00105615
-8.81077e-13
0.00105711
-2.39922e-12
0.00105795
-3.91223e-12
0.00105814
-5.31896e-12
0.00105708
-7.01282e-12
0.00105431
-8.53458e-12
0.00104932
-9.79725e-12
0.00104163
-1.06558e-11
0.00103066
-1.09591e-11
0.00101581
-1.05605e-11
0.000996317
-9.50755e-12
0.000971243
-8.02457e-12
0.000939326
-6.37842e-12
0.000899094
-4.7494e-12
0.000848021
-3.37511e-12
0.000784254
-2.35157e-12
0.000701314
-1.80705e-12
0.000600492
-1.61809e-12
0.000464222
-1.71531e-12
0.000312115
-1.8853e-12
0.00013171
-1.80647e-12
-9.75588e-13
-0.00381092
0.000241418
-0.000319135
-0.00373102
0.000247229
-0.00032713
-0.00365011
0.000251734
-0.000332638
-0.00356594
0.000260425
-0.000344598
-0.00347957
0.000268397
-0.000354772
-0.00338909
0.000280118
-0.000370594
-0.00329505
0.000291742
-0.000385786
-0.00319606
0.000306486
-0.000405469
-0.00309218
0.000321844
-0.000425724
-0.0029824
0.000339787
-0.000449567
-0.00286644
0.000358923
-0.000474888
-0.00274348
0.000380321
-0.000503274
-0.00261307
0.000403304
-0.000533722
-0.00247447
0.000428396
-0.000566994
-0.00232712
0.000455294
-0.000602647
-0.00217034
0.000484212
-0.00064099
-0.00200353
0.000514984
-0.000681792
-0.00182608
0.000547618
-0.000725071
-0.00163743
0.000581915
-0.000770563
-0.0014371
0.000617647
-0.000817974
-0.00122476
0.000654352
-0.000866696
-0.00100013
0.000691759
-0.000916388
-0.000763126
0.000729487
-0.00096649
-0.000513905
0.000766723
-0.00101594
-0.000252993
0.000802386
-0.0010633
1.87413e-05
0.000836093
-0.00110783
0.000299845
0.000862743
-0.00114385
0.000588245
0.00088562
-0.00117402
0.000881177
0.000899793
-0.00119273
0.00117522
0.000903701
-0.00119775
0.00146617
0.000895375
-0.00118633
0.00174931
0.000873238
-0.00115638
0.00201964
0.000836498
-0.00110682
0.00227226
0.000785315
-0.00103793
0.00250277
0.000720892
-0.000951398
0.00270757
0.000645341
-0.000850141
0.00288406
0.000561354
-0.000737849
0.00303068
0.000471845
-0.000618469
0.00314683
0.000379636
-0.000495779
0.0032327
0.00028724
-0.000373114
0.00328919
0.000196811
-0.000253298
0.00331767
0.000110024
-0.000138508
0.00331998
2.84847e-05
-3.0794e-05
0.00329831
-4.76401e-05
6.93128e-05
0.00325474
-0.00011629
0.000159861
0.00319187
-0.000177867
0.000240731
0.00311224
-0.000231753
0.000311386
0.00301843
-0.000277761
0.000371571
0.00291302
-0.000315889
0.000421296
0.00279853
-0.000346276
0.000460765
0.00267738
-0.000369196
0.000490348
0.00255184
-0.000385039
0.000510579
0.00242402
-0.000394263
0.000522083
0.00229584
-0.000397405
0.000525583
0.00216903
-0.000395037
0.000521846
0.00204512
-0.000387777
0.000511694
0.0019254
-0.000376267
0.000495986
0.00181097
-0.000361151
0.000475578
0.00170272
-0.000343061
0.000451309
0.00160135
-0.000322607
0.000423986
0.00150734
-0.000300364
0.000394371
0.00142104
-0.000276871
0.000363171
0.00134263
-0.000252622
0.000331035
0.00127214
-0.000228066
0.000298553
0.0012095
-0.000203601
0.000266244
0.00115451
-0.000179582
0.00023457
0.00110689
-0.000156314
0.000203928
0.00106629
-0.000134061
0.000174661
0.00103228
-0.000113051
0.000147063
0.00100438
-9.34762e-05
0.000121382
0.000982042
-7.55007e-05
9.78356e-05
0.000964685
-5.92938e-05
7.66505e-05
0.000951654
-4.49348e-05
5.79665e-05
0.000942476
-3.24428e-05
4.1621e-05
0.000936452
-2.17593e-05
2.77833e-05
0.000932927
-1.30498e-05
1.65748e-05
0.000931245
-6.31483e-06
7.99663e-06
0.000930743
-1.47309e-06
1.97521e-06
0.00093081
1.36871e-06
-1.43601e-06
0.00093085
2.34858e-06
-2.38821e-06
0.000930287
1.68299e-06
-1.12069e-06
0.000928594
-6.40152e-07
2.3331e-06
0.000925341
-4.61517e-06
7.86862e-06
0.000920058
-9.98194e-06
1.52645e-05
0.000912332
-1.67711e-05
2.44972e-05
0.000901753
-2.50142e-05
3.55939e-05
0.000887889
-3.48226e-05
4.86864e-05
0.000870252
-4.64145e-05
6.40509e-05
0.00084826
-6.01598e-05
8.21524e-05
0.000821168
-7.65805e-05
0.000103672
0.00078804
-9.65743e-05
0.000129703
0.000747627
-0.000120866
0.000161278
0.000698285
-0.000152159
0.000201502
0.000638178
-0.00018907
0.000249177
0.000563197
-0.000243719
0.0003187
0.000474446
-0.000294754
0.000383506
0.000358446
-0.000395649
0.000511648
0.000238412
-0.000433635
0.000553669
8.52203e-05
-0.000519289
0.000672481
-0.00035373
0.00043895
-0.00379507
-0.00371484
-0.00363341
-0.00354892
-0.00346203
-0.00337118
-0.00327665
-0.00317725
-0.00307291
-0.00296269
-0.00284626
-0.00272286
-0.00259198
-0.00245292
-0.0023051
-0.00214787
-0.0019806
-0.0018027
-0.00161362
-0.00141289
-0.00120017
-0.000975235
-0.000737983
-0.000488575
-0.000227545
4.43861e-05
0.000325251
0.000613469
0.000906217
0.00120013
0.00149112
0.00177461
0.00204575
0.00229976
0.00253229
0.00273975
0.00291944
0.00306968
0.00318969
0.00327953
0.00333995
0.00337223
0.00337822
0.00335953
0.0033189
0.00325853
0.00318097
0.00308882
0.00298463
0.00287095
0.00275019
0.00262464
0.00249644
0.00236755
0.00223972
0.00211453
0.00199331
0.0018772
0.00176715
0.00166386
0.0015679
0.00147963
0.00139928
0.00132689
0.00126244
0.00120573
0.00115652
0.00111445
0.00107911
0.00105001
0.00102664
0.00100839
0.000994696
0.00098493
0.000978469
0.000974679
0.000972913
0.000972563
0.000972977
0.000973546
0.000973743
0.000973
0.000970821
0.000966763
0.000960379
0.000951213
0.000938779
0.000922523
0.000901776
0.000875695
0.00084318
0.000802839
0.000752579
0.000690401
0.000611311
0.000516073
0.000389959
0.000255335
9.37375e-05
-0.00354706
0.000390361
-0.000461032
-0.00347322
0.00040112
-0.000474958
-0.00339978
0.000406699
-0.00048014
-0.00332224
0.00042238
-0.000499919
-0.00324344
0.000434096
-0.000512901
-0.00316025
0.000454096
-0.000537282
-0.00307411
0.000472369
-0.000558513
-0.0029831
0.00049682
-0.000587824
-0.00288769
0.000521532
-0.000616948
-0.00278666
0.000550945
-0.000651973
-0.00267992
0.000581985
-0.000688719
-0.00256662
0.000616917
-0.000730219
-0.00244638
0.000654306
-0.000774549
-0.00231848
0.000695218
-0.000823116
-0.00218242
0.000739029
-0.000875091
-0.00203754
0.00078617
-0.000931044
-0.0018833
0.000836326
-0.000990568
-0.00171911
0.000889541
-0.00105374
-0.00154444
0.000945481
-0.00112015
-0.00135883
0.0010038
-0.0011894
-0.00116197
0.00106376
-0.00126062
-0.000953556
0.00112492
-0.00133333
-0.000733554
0.00118656
-0.00140656
-0.000502153
0.00124737
-0.00147877
-0.000259814
0.0013056
-0.00154793
-7.81292e-06
0.0013599
-0.0016119
0.000253736
0.00140514
-0.00166669
0.000521697
0.00144175
-0.00170971
0.00079352
0.00146438
-0.0017362
0.00106567
0.00146995
-0.00174211
0.00133387
0.00145497
-0.00172316
0.00159328
0.00141684
-0.00167624
0.00183883
0.00135425
-0.00159981
0.00206571
0.00126764
-0.00149452
0.00226975
0.00115928
-0.00136332
0.00244781
0.00103297
-0.00121103
0.00259788
0.000893425
-0.0010435
0.00271903
0.000745621
-0.000866771
0.00281126
0.000594247
-0.000686472
0.00287529
0.000443387
-0.000507415
0.00291237
0.000296444
-0.000333531
0.0029242
0.000156068
-0.000167895
0.00291281
2.46327e-05
-1.32409e-05
0.00288019
-9.72406e-05
0.000129857
0.00282875
-0.000207171
0.000258616
0.00276083
-0.000305138
0.000373057
0.00267889
-0.000390457
0.000472399
0.00258537
-0.000462862
0.000556382
0.00248266
-0.000522404
0.000625107
0.00237309
-0.000569356
0.000678934
0.00225882
-0.000604214
0.000718484
0.00214194
-0.000627651
0.000744531
0.00202433
-0.000640417
0.000758019
0.00190766
-0.000643449
0.000760126
0.00179337
-0.000637716
0.000752001
0.00168274
-0.000624247
0.00073488
0.00157681
-0.000604101
0.000710029
0.00147644
-0.000578338
0.00067871
0.00138228
-0.000547987
0.000642141
0.00129483
-0.000514036
0.000601488
0.0012144
-0.000477413
0.00055784
0.00114118
-0.000438978
0.000512206
0.0010752
-0.000399518
0.000465499
0.00101639
-0.00035974
0.000418541
0.000964609
-0.000320271
0.000372056
0.000919592
-0.000281662
0.000326679
0.000881028
-0.000244386
0.000282951
0.000848539
-0.000208852
0.00024134
0.000821701
-0.000175408
0.000202246
0.000800046
-0.000144352
0.000166007
0.000783059
-0.000115949
0.000132937
0.00077009
-9.04697e-05
0.000103438
0.000760737
-6.79857e-05
7.73387e-05
0.000754346
-4.85228e-05
5.49143e-05
0.000750246
-3.21381e-05
3.6238e-05
0.000747818
-1.90018e-05
2.14298e-05
0.00074641
-9.11146e-06
1.05192e-05
0.000745326
-2.36923e-06
3.45301e-06
0.000744093
1.15782e-06
7.54034e-08
0.00074214
1.64127e-06
3.11793e-07
0.000738787
-5.10409e-07
3.86334e-06
0.000733835
-5.48066e-06
1.04331e-05
0.000726815
-1.28134e-05
1.98335e-05
0.000717403
-2.23975e-05
3.18087e-05
0.000705326
-3.41609e-05
4.62386e-05
0.00069033
-4.81196e-05
6.31156e-05
0.000672159
-6.44208e-05
8.25914e-05
0.000650521
-8.33932e-05
0.000105032
0.000625063
-0.000105585
0.000131043
0.000595319
-0.000131826
0.000161569
0.00056076
-0.000163343
0.000197902
0.00052055
-0.000201528
0.000241739
0.000474186
-0.000249537
0.0002959
0.000419987
-0.000307134
0.000361333
0.000357869
-0.000388086
0.000450203
0.000286665
-0.000465674
0.000536878
0.00020565
-0.000611825
0.000692841
0.000126252
-0.00065325
0.000732647
1.78722e-05
-0.000795638
0.000904018
-0.000465118
0.00048299
-0.00352908
-0.00345509
-0.00338103
-0.00330324
-0.00322392
-0.00314042
-0.00305383
-0.00296248
-0.00286668
-0.0027653
-0.0026582
-0.00254456
-0.00242397
-0.00229575
-0.00215937
-0.00201419
-0.00185965
-0.00169518
-0.00152026
-0.00133444
-0.00113738
-0.00092885
-0.000708779
-0.000477354
-0.000235055
1.7016e-05
0.000278314
0.000546045
0.000817701
0.00108991
0.00135855
0.00161901
0.00186643
0.00209614
0.00230403
0.00248686
0.00264243
0.00276958
0.00286805
0.00293833
0.00298147
0.00299903
0.00299287
0.00296494
0.00291763
0.00285323
0.00277416
0.00268286
0.00258176
0.00247316
0.0023593
0.00224223
0.00212389
0.00200603
0.00189016
0.0017776
0.00166949
0.00156673
0.00147005
0.00138
0.00129696
0.00122115
0.00115267
0.00109148
0.00103745
0.000990362
0.000949904
0.000915713
0.000887367
0.000864398
0.000846284
0.000832465
0.000822446
0.000815544
0.000811189
0.000808762
0.000807647
0.000807253
0.000806975
0.000806228
0.000804597
0.000801449
0.000796505
0.000789372
0.000779708
0.000767182
0.000751448
0.000732105
0.000708673
0.000680519
0.000646879
0.000606629
0.000558593
0.000500636
0.00043125
0.000349083
0.000248906
0.000149325
2.61678e-05
-0.00313811
0.00052258
-0.000584064
-0.00307305
0.000540639
-0.000605695
-0.00300903
0.000544121
-0.00060814
-0.00294096
0.000568472
-0.000636544
-0.00287191
0.000581985
-0.000651038
-0.00279882
0.000610698
-0.000683786
-0.00272309
0.000634318
-0.000710048
-0.00264297
0.000668159
-0.000748279
-0.00255888
0.000701124
-0.000785216
-0.00246974
0.000741252
-0.000830395
-0.00237546
0.000783066
-0.000877344
-0.00227528
0.000830481
-0.000930662
-0.00216885
0.000881013
-0.000987435
-0.00205556
0.000936452
-0.00104975
-0.00193493
0.000995737
-0.00111637
-0.00180639
0.00105959
-0.00118813
-0.00166945
0.0011275
-0.00126444
-0.00152359
0.00119959
-0.00134545
-0.00136835
0.00127538
-0.00143062
-0.00120331
0.00135443
-0.00151947
-0.00102808
0.00143576
-0.00161098
-0.000842531
0.00151877
-0.00170432
-0.000646631
0.00160232
-0.00179822
-0.000440619
0.00168461
-0.00189062
-0.000225004
0.00176341
-0.00197902
-1.45024e-06
0.00183559
-0.00205914
0.000231821
0.00189941
-0.00213268
0.000469848
0.00194746
-0.00218549
0.000710502
0.00197682
-0.00221748
0.000950199
0.00198213
-0.00222183
0.0011846
0.00195848
-0.00219288
0.00140882
0.00190225
-0.00212647
0.00161788
0.00181176
-0.00202082
0.00180725
0.001688
-0.00187736
0.00197334
0.00153472
-0.0017008
0.00211379
0.0013578
-0.00149825
0.0022275
0.00116424
-0.00127794
0.00231441
0.000961106
-0.00104802
0.00237527
0.000754837
-0.0008157
0.00241138
0.000550847
-0.00058696
0.00242437
0.000353477
-0.00036647
0.00241617
0.000166178
-0.000157976
0.00238899
-8.43643e-06
3.56161e-05
0.0023444
-0.000169137
0.000213729
0.0022852
-0.000313517
0.000372717
0.00221333
-0.000441353
0.000513223
0.00213106
-0.000551867
0.000634137
0.00204057
-0.000644826
0.000735321
0.00194395
-0.000720406
0.000817027
0.00184319
-0.000779063
0.000879822
0.00174012
-0.000821461
0.00092453
0.0016364
-0.000848538
0.00095225
0.0015336
-0.000861524
0.000964326
0.00143314
-0.000861789
0.000962249
0.00133613
-0.000850645
0.000947656
0.00124346
-0.000829511
0.000922181
0.00115585
-0.000799847
0.000887463
0.00107383
-0.00076309
0.000845107
0.000997794
-0.000720625
0.000796659
0.000927989
-0.000673767
0.000743573
0.00086453
-0.000623741
0.0006872
0.000807426
-0.000571673
0.000628778
0.00075659
-0.000518582
0.000569418
0.000711859
-0.000465377
0.000510108
0.000673
-0.000412855
0.000451715
0.000639726
-0.000361715
0.000394988
0.000611706
-0.000312546
0.000340566
0.000588567
-0.000265863
0.000289002
0.000569898
-0.000222102
0.000240771
0.000555246
-0.000181634
0.000196286
0.000544126
-0.000144809
0.000155929
0.000536149
-0.000112097
0.000120074
0.000530557
-8.33279e-05
8.89197e-05
0.000526724
-5.88123e-05
6.26463e-05
0.000524107
-3.86056e-05
4.12218e-05
0.000522076
-2.28565e-05
2.48879e-05
0.000519989
-1.16447e-05
1.37314e-05
0.000517214
-4.84971e-06
7.62485e-06
0.000513169
-2.28439e-06
6.32994e-06
0.000507441
-3.79743e-06
9.52495e-06
0.000499615
-8.99637e-06
1.68222e-05
0.000489429
-1.76189e-05
2.78051e-05
0.000476677
-2.93145e-05
4.20667e-05
0.000461225
-4.37951e-05
5.92466e-05
0.000442995
-6.09007e-05
7.91309e-05
0.000421931
-8.06052e-05
0.00010167
0.000397975
-0.000103069
0.000127025
0.000371048
-0.000128696
0.000155622
0.000341045
-0.000158147
0.00018815
0.000307826
-0.000192452
0.000225671
0.000271292
-0.00023294
0.000269474
0.000231236
-0.000281522
0.000321577
0.000188163
-0.000340552
0.000383625
0.000141251
-0.000412242
0.000459154
9.58313e-05
-0.000504898
0.000550318
4.66305e-05
-0.000599199
0.0006484
1.72365e-05
-0.000750034
0.000779428
-1.49625e-05
-0.000791819
0.000824018
-2.5456e-05
-0.000959815
0.000970308
-0.000439442
0.000413986
-0.0031243
-0.00305861
-0.00299463
-0.00292608
-0.002857
-0.00278358
-0.00270778
-0.00262744
-0.00254327
-0.00245399
-0.00235964
-0.00225938
-0.00215291
-0.00203958
-0.00191893
-0.00179039
-0.00165345
-0.0015076
-0.00135237
-0.00118734
-0.00101221
-0.000826774
-0.000631015
-0.000425174
-0.000209701
1.39897e-05
0.000246708
0.000484457
0.000725074
0.000965099
0.00120042
0.00142643
0.00163838
0.00183185
0.00200325
0.00215001
0.00227075
0.00236509
0.00243345
0.00247689
0.00249683
0.00249511
0.00247344
0.00243416
0.00237926
0.00231096
0.00223149
0.00214305
0.00204775
0.00194762
0.00184464
0.00174064
0.00163713
0.00153547
0.00143683
0.00134219
0.00125238
0.001168
0.00108951
0.00101723
0.000951332
0.000891865
0.000838781
0.000791945
0.000751145
0.00071611
0.000686514
0.000661991
0.000642136
0.000626508
0.000614636
0.000605978
0.000599989
0.000596091
0.000593723
0.000592296
0.000591171
0.000589774
0.000587565
0.000584079
0.000578946
0.000571761
0.00056228
0.000550293
0.000535631
0.000518141
0.000497663
0.000473999
0.000446894
0.000416011
0.000380973
0.00034119
0.000296539
0.00024563
0.000190935
0.000128614
7.14205e-05
1.22493e-05
-4.3548e-05
-0.000885984
0.0105301
-0.0102999
-0.00111682
0.0105215
-0.0102906
-0.00134854
0.0105088
-0.010277
-0.00158155
0.0104997
-0.0102667
-0.00181597
0.010496
-0.0102616
-0.00205222
0.0104986
-0.0102624
-0.00229074
0.0105089
-0.0102704
-0.00253214
0.0105283
-0.0102869
-0.00277719
0.0105589
-0.0103138
-0.00302653
0.0106027
-0.0103534
-0.00327923
0.0106592
-0.0104065
-0.00352728
0.0107174
-0.0104693
-0.00374136
0.0107332
-0.0105192
-0.00384363
0.0105833
-0.010481
-0.00368406
0.0100122
-0.0101718
-0.00307971
0.0086497
-0.00925405
-0.00198965
0.00616458
-0.00725463
-0.000774433
0.0028061
-0.00402132
-0.000100635
0.000221619
-0.000895418
-0.000521898
0.000421264
-0.000891695
0.010759
-0.00112375
0.0107535
-0.00135567
0.0107407
-0.0015894
0.0107334
-0.00182436
0.0107309
-0.00206124
0.0107355
-0.00230032
0.010748
-0.00254213
0.0107701
-0.00278694
0.0108037
-0.00303364
0.0108494
-0.00327628
0.0109018
-0.00349523
0.0109363
-0.00364117
0.0108792
-0.00361844
0.0105605
-0.00328823
0.009682
-0.00254056
0.00790203
-0.00145061
0.00507463
-0.000481032
0.00183652
-3.5654e-05
-0.000223759
-0.000557552
-0.00091526
0.0101166
-0.00993262
-0.00109955
0.0101071
-0.00992276
-0.00128502
0.010092
-0.00990655
-0.00147191
0.0100803
-0.00989343
-0.00166047
0.0100735
-0.00988499
-0.00185101
0.0100725
-0.00988192
-0.00204397
0.0100782
-0.00988525
-0.00223985
0.0100921
-0.00989619
-0.00243941
0.010116
-0.00991641
-0.0026435
0.0101523
-0.00994825
-0.00285255
0.0102035
-0.00999447
-0.00306444
0.0102694
-0.0100576
-0.00326836
0.0103379
-0.010134
-0.00342878
0.0103623
-0.0102019
-0.00346302
0.0102154
-0.0101811
-0.00322321
0.00962324
-0.00986305
-0.00252757
0.00809107
-0.00878671
-0.00131707
0.00519688
-0.00640738
-0.000273205
0.00167498
-0.00271885
-0.000280607
7.40251e-06
-0.000923442
-0.00110702
-0.00129206
-0.00147839
-0.00166641
-0.00185631
-0.00204847
-0.00224327
-0.00244114
-0.00264215
-0.00284513
-0.003045
-0.00322627
-0.00334498
-0.0033014
-0.00293222
-0.00209578
-0.000920217
-0.000140656
-0.000903451
0.00980179
-0.00966986
-0.00103591
0.00979156
-0.0096591
-0.00116967
0.00977385
-0.00964008
-0.00130518
0.00975926
-0.00962376
-0.0014426
0.00974889
-0.00961147
-0.00158229
0.00974374
-0.00960405
-0.00172466
0.00974462
-0.00960226
-0.00187018
0.00975278
-0.00960726
-0.00201949
0.00976976
-0.00962044
-0.00217339
0.0097979
-0.00964401
-0.00233255
0.00984003
-0.00968087
-0.00249692
0.00989912
-0.00973475
-0.0026639
0.00997446
-0.00980749
-0.00282216
0.0100575
-0.00989929
-0.00293988
0.0101004
-0.00998271
-0.00292569
0.00996033
-0.00997451
-0.00260376
0.0092441
-0.00956603
-0.00175901
0.00735541
-0.00820016
-0.000572804
0.0037387
-0.00492491
0.000334425
-0.000907229
-0.000913604
-0.00104481
-0.00117752
-0.00131168
-0.00144778
-0.00158596
-0.00172658
-0.00186999
-0.00201664
-0.00216699
-0.00232142
-0.00247985
-0.00263936
-0.00278369
-0.00286437
-0.0027671
-0.00230971
-0.00136168
-0.000341827
-0.000852419
0.0095951
-0.00951871
-0.000929782
0.00958351
-0.00950615
-0.00100882
0.00956274
-0.0094837
-0.00108974
0.00954484
-0.00946392
-0.00117302
0.00953025
-0.00944697
-0.00125897
0.00952043
-0.00943447
-0.00134802
0.00951585
-0.0094268
-0.00144062
0.00951773
-0.00942514
-0.00153741
0.0095273
-0.0094305
-0.0016392
0.00954664
-0.00944485
-0.00174691
0.00957844
-0.00947073
-0.00186118
0.0096265
-0.00951222
-0.00198273
0.00969291
-0.00957136
-0.00210935
0.00978218
-0.00965556
-0.00223468
0.00987732
-0.00975199
-0.0023142
0.00994038
-0.00986086
-0.00224723
0.00972429
-0.00979126
-0.00179567
0.00874681
-0.00919837
-0.000836962
0.00585499
-0.00681369
0.00148143
-0.0023184
-0.000864146
-0.000939739
-0.00101708
-0.001096
-0.00117722
-0.00126085
-0.00134726
-0.00143678
-0.00152993
-0.0016273
-0.00172973
-0.00183798
-0.00195255
-0.00206966
-0.00217506
-0.00220919
-0.00205093
-0.00150429
-0.000574205
-0.000766278
0.00950138
-0.00948197
-0.000787354
0.00948729
-0.00946621
-0.000810606
0.00946283
-0.00943957
-0.000836266
0.00944077
-0.00941511
-0.000864678
0.00942139
-0.00939298
-0.000896235
0.00940602
-0.00937446
-0.00093142
0.0093951
-0.00935991
-0.000970767
0.00938981
-0.00935046
-0.00101494
0.00939101
-0.00934684
-0.00106486
0.00940043
-0.00935051
-0.00112175
0.00942051
-0.00936362
-0.00118675
0.00945514
-0.00939014
-0.0012618
0.00950633
-0.00943129
-0.00134751
0.00958182
-0.00949611
-0.00144627
0.0096716
-0.00957283
-0.0015441
0.00979005
-0.00969223
-0.00160474
0.00978426
-0.00972361
-0.00144777
0.00942437
-0.00958134
-0.000855575
0.00740374
-0.00799593
0.00295332
-0.0038089
-0.000778868
-0.000797728
-0.000818599
-0.000841748
-0.000867324
-0.000895778
-0.000927475
-0.000962801
-0.00100229
-0.00104671
-0.00109694
-0.00115402
-0.00121904
-0.00129278
-0.00137317
-0.00144398
-0.00145098
-0.00122498
-0.000634927
-0.000651285
0.00952157
-0.00955882
-0.000616664
0.00950332
-0.00953794
-0.00058435
0.00947474
-0.00950706
-0.000555083
0.00944724
-0.00947651
-0.000528924
0.00942245
-0.00944861
-0.000506557
0.00940045
-0.00942281
-0.000488645
0.00938214
-0.00940005
-0.000475331
0.00936852
-0.00938183
-0.000467612
0.00936012
-0.00936784
-0.000466823
0.009358
-0.00935879
-0.000474181
0.0093645
-0.00935714
-0.00049148
0.00938266
-0.00936536
-0.000520544
0.00941483
-0.00938576
-0.000565775
0.00946577
-0.00942054
-0.000628891
0.00953051
-0.00946739
-0.000720102
0.00962542
-0.00953421
-0.000819898
0.00966292
-0.00956312
-0.000863314
0.00958487
-0.00954145
-0.000623031
0.00823001
-0.00847029
0.0042373
-0.00486033
-0.000663695
-0.000626582
-0.000591412
-0.000559286
-0.000529816
-0.000503831
-0.000481606
-0.000463551
-0.000450275
-0.000442779
-0.000441905
-0.000449385
-0.000465843
-0.000496181
-0.000538502
-0.000605311
-0.000666004
-0.000662482
-0.000428405
-0.000515401
0.00965317
-0.00974503
-0.000427568
0.0096286
-0.00971643
-0.000342038
0.00959608
-0.00968161
-0.000259877
0.00956197
-0.00964413
-0.000180457
0.00953142
-0.00961084
-0.000105151
0.00950177
-0.00957708
-3.44419e-05
0.009475
-0.0095457
3.00639e-05
0.00945053
-0.00951503
8.69146e-05
0.00943035
-0.0094872
0.000136012
0.00941447
-0.00946356
0.000175765
0.00940497
-0.00944472
0.000203909
0.00940347
-0.00943161
0.000217829
0.00941296
-0.00942688
0.000212085
0.00943106
-0.00942532
0.000183027
0.00946152
-0.00943246
0.000110941
0.00948744
-0.00941536
1.29812e-05
0.00949505
-0.00939709
-0.000178568
0.00938901
-0.00919746
-0.000198558
0.00844353
-0.00842354
0.0048742
-0.00507276
-0.000526335
-0.000435683
-0.000346662
-0.0002612
-0.000178387
-9.94282e-05
-2.44837e-05
4.42082e-05
0.000106726
0.0001624
0.000210229
0.000248335
0.000275535
0.000286054
0.000280183
0.000233414
0.000165338
1.28995e-05
-1.38654e-05
-0.000368453
0.00989027
-0.0100298
-0.000231698
0.00985577
-0.00999252
-9.52487e-05
0.00982101
-0.00995746
3.57565e-05
0.00977866
-0.00990966
0.000160448
0.00974052
-0.00986521
0.000280169
0.00970243
-0.00982215
0.000393858
0.00966593
-0.00977962
0.000501027
0.00962998
-0.00973715
0.000600649
0.00959597
-0.00969559
0.000691206
0.00956476
-0.00965532
0.000771041
0.00953699
-0.00961683
0.000837843
0.009513
-0.0095798
0.000887915
0.00949398
-0.00954406
0.000915556
0.00947317
-0.00950081
0.000910414
0.00945074
-0.0094456
0.000854797
0.00938805
-0.00933243
0.000721203
0.0092978
-0.0091642
0.00045001
0.00895972
-0.00868853
0.000128903
0.00813748
-0.00781637
0.00467828
-0.00454938
-0.00037546
-0.000236119
-9.67163e-05
3.78137e-05
0.000167495
0.000292846
0.00041307
0.000528024
0.00063679
0.00073799
0.000830263
0.000911645
0.000978745
0.0010266
0.00104488
0.00101757
0.000918278
0.000680535
0.000394474
0.00378758
3.75682e-06
-2.92441e-06
0.00378837
-1.57668e-07
-6.28836e-07
0.0037858
1.25695e-05
-9.99927e-06
0.0037857
1.00061e-05
-9.90927e-06
0.00378171
2.05817e-05
-1.65879e-05
0.00377957
2.94504e-05
-2.73178e-05
0.00377283
3.64009e-05
-2.96555e-05
0.00376629
6.81828e-05
-6.16429e-05
0.0037541
6.878e-05
-5.65882e-05
0.00373808
0.000146532
-0.000130511
0.00371441
0.000138087
-0.000114425
0.0036779
0.000308909
-0.000272396
0.00362833
0.000293819
-0.000244244
0.00354548
0.000666489
-0.000583643
0.00343083
0.00067468
-0.000560025
0.00323144
0.00155555
-0.00135616
0.00292108
0.00177831
-0.00146795
0.00236651
0.00431929
-0.00376472
0.00136286
0.00607756
-0.00507391
0.0153581
-0.0139953
0.0037876
4.57309e-06
0.0037883
-8.56324e-07
0.00378584
1.50237e-05
0.00378565
1.01989e-05
0.00378175
2.44851e-05
0.00377954
3.1659e-05
0.0037728
4.31374e-05
0.00376622
7.47682e-05
0.0037538
8.11943e-05
0.00373779
0.000162542
0.00371329
0.000162592
0.00367689
0.000345306
0.00362484
0.000345868
0.00354235
0.000748981
0.00342094
0.000796082
0.00322326
0.00175323
0.00289615
0.00210542
0.00235829
0.00485715
0.00135229
0.00708357
0.0167104
0.00432155
2.1785e-06
-1.55496e-06
0.00432178
1.0989e-06
-1.33408e-06
0.00431977
7.68329e-06
-5.66925e-06
0.0043187
9.19508e-06
-8.12866e-06
0.00431547
1.29284e-05
-9.70156e-06
0.00431182
2.41498e-05
-2.04925e-05
0.00430622
2.33925e-05
-1.77953e-05
0.00429731
5.33995e-05
-4.4492e-05
0.00428691
4.51189e-05
-3.47124e-05
0.00426726
0.000111728
-9.20785e-05
0.00424657
9.19317e-05
-7.12416e-05
0.00420453
0.000231449
-0.000189409
0.00416055
0.000196915