/*--------------------------------*- C++ -*----------------------------------*\
  =========                 |
  \\      /  F ield         | OpenFOAM: The Open Source CFD Toolbox
   \\    /   O peration     | Website:  https://openfoam.org
    \\  /    A nd           | Version:  7
     \\/     M anipulation  |
\*---------------------------------------------------------------------------*/
FoamFile
{
    version     2.0;
    format      ascii;
    class       volScalarField;
    location    "78";
    object      p;
}
// * * * * * * * * * * * * * * * * * * * * * * * * * * * * * * * * * * * * * //

dimensions      [0 2 -2 0 0 0 0];

internalField   nonuniform List<scalar> 
8000
(
-0.000627809
-0.00213822
-0.00364414
-0.00527874
-0.00694619
-0.00861135
-0.0102477
-0.0118314
-0.0133448
-0.0147747
-0.0161117
-0.0173466
-0.0184793
-0.0195063
-0.0204274
-0.0212442
-0.0219594
-0.0225771
-0.0231018
-0.0235393
-0.0238958
-0.0241779
-0.0243928
-0.024548
-0.0246512
-0.0247104
-0.0247334
-0.0247282
-0.0247024
-0.0246635
-0.0246186
-0.0245743
-0.0245368
-0.0245117
-0.024504
-0.0245183
-0.0245585
-0.0246279
-0.0247295
-0.0248654
-0.0250377
-0.0252477
-0.0254965
-0.0257849
-0.0261132
-0.0264818
-0.0268904
-0.027339
-0.0278271
-0.0283544
-0.0289201
-0.0295238
-0.0301648
-0.0308424
-0.031556
-0.032305
-0.0330888
-0.0339069
-0.0347587
-0.0356438
-0.0365618
-0.0375122
-0.0384949
-0.0395094
-0.0405555
-0.0416328
-0.0427412
-0.0438804
-0.0450499
-0.0462492
-0.0474779
-0.0487353
-0.0500205
-0.0513323
-0.0526694
-0.05403
-0.0554119
-0.0568124
-0.0582282
-0.0596551
-0.0610883
-0.0625218
-0.0639484
-0.0653594
-0.0667445
-0.0680914
-0.0693854
-0.0706094
-0.0717434
-0.0727625
-0.0736461
-0.0743535
-0.0748949
-0.0751464
-0.075406
-0.0749052
-0.0761079
-0.0740367
-0.0815591
-0.0779432
-0.000659729
-0.00215974
-0.00366591
-0.00528446
-0.00693307
-0.00858106
-0.0102022
-0.0117732
-0.0132762
-0.0146979
-0.0160282
-0.0172606
-0.0183924
-0.0194193
-0.0203413
-0.0211599
-0.0218778
-0.0224987
-0.0230273
-0.0234691
-0.0238302
-0.0241173
-0.0243375
-0.0244981
-0.0246068
-0.0246715
-0.0247001
-0.0247003
-0.0246797
-0.0246458
-0.0246056
-0.0245657
-0.0245321
-0.0245105
-0.0245058
-0.0245227
-0.0245649
-0.0246359
-0.0247384
-0.0248748
-0.025047
-0.0252564
-0.0255042
-0.0257911
-0.0261176
-0.0264838
-0.0268899
-0.0273355
-0.0278204
-0.0283441
-0.0289061
-0.0295059
-0.0301428
-0.0308161
-0.0315254
-0.0322699
-0.0330492
-0.0338627
-0.0347099
-0.0355904
-0.0365037
-0.0374496
-0.0384275
-0.0394375
-0.0404794
-0.0415529
-0.0426574
-0.0437926
-0.0449585
-0.0461546
-0.04738
-0.0486339
-0.0499156
-0.0512241
-0.0525579
-0.0539152
-0.0552938
-0.056691
-0.0581036
-0.0595274
-0.0609576
-0.0623882
-0.0638118
-0.06522
-0.0666021
-0.0679457
-0.0692359
-0.0704548
-0.0715821
-0.0725908
-0.0734599
-0.0741415
-0.0746499
-0.0748421
-0.0750399
-0.0744177
-0.075349
-0.0731398
-0.0788886
-0.0763493
-0.000683969
-0.00217624
-0.00368462
-0.00528822
-0.00692019
-0.00855249
-0.0101596
-0.0117189
-0.0132126
-0.0146276
-0.0159548
-0.0171825
-0.0183118
-0.0193377
-0.0202602
-0.0210802
-0.0218004
-0.0224243
-0.0229566
-0.0234025
-0.0237681
-0.02406
-0.0242852
-0.024451
-0.0245651
-0.0246351
-0.0246689
-0.0246741
-0.0246585
-0.0246291
-0.0245931
-0.024557
-0.0245268
-0.0245081
-0.0245059
-0.0245247
-0.0245684
-0.0246403
-0.0247432
-0.0248797
-0.0250515
-0.0252601
-0.0255067
-0.0257922
-0.0261169
-0.0264811
-0.0268849
-0.0273281
-0.0278104
-0.0283314
-0.0288907
-0.0294876
-0.0301216
-0.0307921
-0.0314984
-0.0322401
-0.0330165
-0.0338271
-0.0346715
-0.0355493
-0.03646
-0.0374032
-0.0383788
-0.0393867
-0.0404248
-0.0414942
-0.0425951
-0.0437269
-0.0448883
-0.0460788
-0.0472988
-0.0485479
-0.0498245
-0.0511277
-0.052456
-0.0538078
-0.0551808
-0.0565723
-0.0579791
-0.059397
-0.0608211
-0.0622455
-0.0636629
-0.0650646
-0.0664402
-0.067777
-0.0690601
-0.0702711
-0.0713898
-0.0723876
-0.0732442
-0.0739054
-0.0743905
-0.0745316
-0.0746658
-0.0739312
-0.0745895
-0.0722959
-0.076544
-0.0746365
-0.000701893
-0.00219089
-0.00370091
-0.00529182
-0.00690911
-0.00852717
-0.0101214
-0.0116698
-0.0131548
-0.0145627
-0.0158819
-0.01711
-0.0182375
-0.0192629
-0.0201858
-0.0210072
-0.0217296
-0.0223563
-0.0228918
-0.0233415
-0.0237113
-0.0240076
-0.0242374
-0.024408
-0.0245268
-0.0246017
-0.0246403
-0.0246502
-0.0246389
-0.0246137
-0.0245816
-0.0245489
-0.0245218
-0.0245057
-0.0245058
-0.0245263
-0.0245713
-0.024644
-0.0247474
-0.0248839
-0.0250553
-0.0252633
-0.0255088
-0.0257929
-0.0261159
-0.0264782
-0.0268798
-0.0273206
-0.0278003
-0.0283186
-0.0288749
-0.0294687
-0.0300995
-0.0307666
-0.0314695
-0.0322076
-0.0329804
-0.0337872
-0.0346276
-0.0355012
-0.0364074
-0.0373459
-0.0383159
-0.0393168
-0.0403524
-0.0414193
-0.0425157
-0.0436416
-0.0447993
-0.0459888
-0.0472068
-0.0484514
-0.0497242
-0.0510236
-0.052348
-0.0536957
-0.0550643
-0.0564513
-0.0578534
-0.0592665
-0.0606856
-0.0621048
-0.0635168
-0.0649129
-0.0662824
-0.0676126
-0.0688884
-0.0700909
-0.0711996
-0.0721843
-0.0730251
-0.0736618
-0.0741182
-0.0742059
-0.0742668
-0.0734254
-0.0738066
-0.0714739
-0.0745063
-0.0728346
-0.000714983
-0.00220299
-0.00371415
-0.00529432
-0.0068988
-0.00850412
-0.0100867
-0.0116252
-0.0131022
-0.0145041
-0.0158202
-0.0170444
-0.0181701
-0.0191949
-0.0201183
-0.0209411
-0.0216654
-0.0222947
-0.0228333
-0.0232865
-0.02366
-0.0239604
-0.0241944
-0.0243693
-0.0244926
-0.0245718
-0.0246147
-0.0246288
-0.0246215
-0.0246
-0.0245713
-0.0245417
-0.0245173
-0.0245036
-0.0245055
-0.0245275
-0.0245736
-0.024647
-0.0247506
-0.0248869
-0.0250578
-0.0252649
-0.0255092
-0.0257918
-0.026113
-0.0264732
-0.0268724
-0.0273107
-0.0277877
-0.028303
-0.0288563
-0.029447
-0.0300745
-0.0307384
-0.031438
-0.0321727
-0.0329421
-0.0337457
-0.034583
-0.0354538
-0.0363577
-0.0372942
-0.0382639
-0.0392685
-0.0402964
-0.0413567
-0.0424508
-0.0435776
-0.0447311
-0.0459094
-0.0471188
-0.048361
-0.0496284
-0.0509221
-0.052241
-0.0535832
-0.0549466
-0.0563284
-0.0577254
-0.0591333
-0.0605473
-0.0619614
-0.0633684
-0.0647593
-0.0661235
-0.0674482
-0.0687181
-0.0699136
-0.0710144
-0.0719882
-0.0728153
-0.0734299
-0.0738583
-0.0738962
-0.0738867
-0.0729528
-0.0730711
-0.0707053
-0.072758
-0.0710863
-0.000724373
-0.0022124
-0.00372425
-0.00529542
-0.00688895
-0.00848325
-0.0100557
-0.0115854
-0.0130553
-0.0144518
-0.0157639
-0.0169859
-0.0181101
-0.0191345
-0.0200584
-0.0208823
-0.0216084
-0.0222401
-0.0227815
-0.0232379
-0.0236148
-0.0239189
-0.0241567
-0.0243355
-0.0244628
-0.0245459
-0.0245926
-0.0246103
-0.0246065
-0.0245883
-0.0245625
-0.0245356
-0.0245135
-0.0245017
-0.0245051
-0.0245283
-0.024575
-0.0246488
-0.0247524
-0.0248883
-0.0250585
-0.0252644
-0.0255074
-0.0257882
-0.0261075
-0.0264655
-0.0268624
-0.0272981
-0.0277724
-0.0282849
-0.0288351
-0.0294227
-0.030047
-0.0307075
-0.0314035
-0.0321346
-0.0329002
-0.0336997
-0.0345326
-0.0353983
-0.0362963
-0.0372268
-0.0381882
-0.0391768
-0.0402059
-0.0412651
-0.0423527
-0.0434692
-0.0446202
-0.0458065
-0.0470193
-0.0482502
-0.0495151
-0.0508064
-0.0521224
-0.0534615
-0.0548214
-0.0561994
-0.0575924
-0.0589962
-0.0604061
-0.0618161
-0.0632188
-0.0646056
-0.0659657
-0.067286
-0.0685515
-0.069742
-0.0708372
-0.0718032
-0.0726208
-0.0732187
-0.0736258
-0.0736243
-0.0735551
-0.0725485
-0.0724338
-0.0700363
-0.0713065
-0.0694377
-0.000730874
-0.00221923
-0.00373126
-0.00529502
-0.00687946
-0.00846448
-0.0100283
-0.0115507
-0.0130147
-0.0144068
-0.015716
-0.0169353
-0.0180582
-0.0190823
-0.0200065
-0.0208316
-0.0215594
-0.0221932
-0.0227371
-0.0231963
-0.0235763
-0.0238836
-0.0241248
-0.024307
-0.0244377
-0.0245242
-0.0245742
-0.0245951
-0.0245943
-0.0245788
-0.0245555
-0.0245307
-0.0245104
-0.0245
-0.0245046
-0.0245284
-0.0245756
-0.0246493
-0.0247526
-0.0248879
-0.0250571
-0.0252618
-0.0255032
-0.0257822
-0.0260994
-0.0264552
-0.0268497
-0.0272828
-0.0277543
-0.028264
-0.0288113
-0.0293959
-0.0300172
-0.0306746
-0.0313677
-0.0320959
-0.0328587
-0.0336558
-0.0344866
-0.0353512
-0.0362493
-0.037179
-0.0381375
-0.0391323
-0.0401547
-0.0412081
-0.0422937
-0.0434105
-0.0445552
-0.0457265
-0.0469297
-0.0481729
-0.0494284
-0.0507124
-0.0520214
-0.0533538
-0.0547074
-0.0560797
-0.0574671
-0.0588657
-0.0602706
-0.0616758
-0.063074
-0.0644565
-0.0658127
-0.0671295
-0.0683916
-0.069579
-0.0706711
-0.0716331
-0.0724463
-0.0730349
-0.0734305
-0.0734035
-0.0732908
-0.0722336
-0.0719289
-0.0694993
-0.0701592
-0.0679404
-0.000735062
-0.00222356
-0.00373526
-0.00529309
-0.00687024
-0.00844776
-0.0100046
-0.0115207
-0.0129795
-0.014367
-0.0156739
-0.0168922
-0.0180145
-0.0190386
-0.0199634
-0.0207895
-0.0215189
-0.0221545
-0.0227007
-0.0231623
-0.023545
-0.023855
-0.0240991
-0.0242842
-0.0244178
-0.0245072
-0.0245599
-0.0245834
-0.024585
-0.0245717
-0.0245503
-0.0245271
-0.0245081
-0.0244987
-0.024504
-0.0245282
-0.0245753
-0.0246488
-0.0247515
-0.0248858
-0.0250538
-0.0252571
-0.0254968
-0.0257739
-0.0260889
-0.0264423
-0.0268342
-0.0272645
-0.027733
-0.0282395
-0.0287835
-0.0293645
-0.029982
-0.0306355
-0.0313244
-0.0320481
-0.032806
-0.0335977
-0.0344225
-0.0352796
-0.0361684
-0.0370897
-0.038048
-0.0390352
-0.0400548
-0.0411051
-0.0421852
-0.0432952
-0.0444361
-0.0456076
-0.0468055
-0.048026
-0.0492877
-0.0505694
-0.0518775
-0.053209
-0.0545611
-0.0559313
-0.0573166
-0.0587131
-0.060116
-0.0615194
-0.0629162
-0.0642977
-0.0656534
-0.0669702
-0.0682332
-0.0694219
-0.0705164
-0.0714806
-0.0722971
-0.0728859
-0.0732823
-0.0732455
-0.073112
-0.0720289
-0.0715895
-0.0691297
-0.0693318
-0.0666757
-0.000737428
-0.00222566
-0.00373654
-0.00528988
-0.00686169
-0.0084338
-0.00998567
-0.0114978
-0.0129537
-0.0143398
-0.0156447
-0.0168604
-0.0179814
-0.019005
-0.01993
-0.0207568
-0.0214873
-0.0221244
-0.0226723
-0.0231359
-0.0235208
-0.0238331
-0.0240796
-0.0242671
-0.0244031
-0.0244947
-0.0245496
-0.0245752
-0.0245786
-0.0245669
-0.0245468
-0.0245247
-0.0245065
-0.0244976
-0.024503
-0.0245271
-0.0245739
-0.0246467
-0.0247484
-0.0248816
-0.0250483
-0.02525
-0.025488
-0.0257633
-0.0260764
-0.0264277
-0.0268175
-0.0272457
-0.027712
-0.0282164
-0.0287582
-0.0293372
-0.0299528
-0.0306044
-0.0312917
-0.0320139
-0.0327707
-0.0335616
-0.0343862
-0.0352445
-0.0361366
-0.0370592
-0.0380113
-0.0389957
-0.0400114
-0.041058
-0.0421359
-0.0432444
-0.0443825
-0.0455498
-0.0467474
-0.0479756
-0.0492265
-0.0505068
-0.0518073
-0.0531312
-0.0544767
-0.055841
-0.0572208
-0.0586121
-0.0600101
-0.0614091
-0.0628019
-0.0641799
-0.0655328
-0.0668477
-0.0681097
-0.0692986
-0.0703947
-0.0713618
-0.0721837
-0.0727775
-0.0731818
-0.0731523
-0.0730367
-0.0719562
-0.0714596
-0.0689719
-0.0688847
-0.0657304
-0.000737773
-0.00222437
-0.00373337
-0.00528289
-0.00685034
-0.00841796
-0.0099655
-0.0114736
-0.0129256
-0.014308
-0.0156121
-0.0168286
-0.0179503
-0.0189749
-0.0199012
-0.0207295
-0.0214617
-0.0221008
-0.0226508
-0.0231165
-0.0235036
-0.023818
-0.0240665
-0.024256
-0.0243938
-0.0244871
-0.0245434
-0.0245701
-0.0245744
-0.0245635
-0.0245441
-0.0245224
-0.0245045
-0.0244956
-0.0245008
-0.0245244
-0.0245702
-0.0246418
-0.024742
-0.0248733
-0.0250377
-0.0252369
-0.0254721
-0.0257442
-0.026054
-0.0264017
-0.0267875
-0.0272116
-0.0276736
-0.0281733
-0.0287104
-0.0292843
-0.0298946
-0.0305407
-0.0312222
-0.0319384
-0.0326888
-0.0334729
-0.0342902
-0.03514
-0.0360216
-0.0369374
-0.0378864
-0.0388661
-0.0398769
-0.0409183
-0.04199
-0.0430917
-0.0442234
-0.0453845
-0.0465741
-0.0477909
-0.0490358
-0.0503061
-0.051605
-0.052927
-0.05427
-0.0556316
-0.0570088
-0.0583979
-0.0597943
-0.0611923
-0.0625852
-0.0639645
-0.0653202
-0.0666396
-0.0679085
-0.0691066
-0.0702156
-0.0711984
-0.0720415
-0.0726582
-0.0730944
-0.0730813
-0.0729853
-0.0719112
-0.0714044
-0.0688602
-0.0685857
-0.0648721
0.0769328
0.0826373
0.0847162
0.0870819
0.0880429
0.0881528
0.0870656
0.0847399
0.0809342
0.0754341
0.0678117
0.0577056
0.0442869
0.0269454
0.00375475
-0.0266481
-0.0701644
-0.127404
-0.212859
-0.315215
0.0712152
0.0766895
0.0786224
0.0807491
0.0814922
0.0813706
0.080053
0.0774912
0.0734517
0.0677181
0.0598879
0.0495285
0.0359121
0.0182339
-0.00549785
-0.0371534
-0.0829326
-0.141979
-0.207698
-0.256066
0.0657404
0.071035
0.0728144
0.074706
0.0751837
0.074763
0.0730991
0.0701377
0.0656317
0.0593448
0.0508624
0.0397021
0.0250711
0.00600782
-0.0195337
-0.0530474
-0.0988924
-0.153114
-0.196985
-0.248087
0.0604563
0.0655607
0.0671784
0.0688408
0.0690529
0.0683257
0.066301
0.0629202
0.057924
0.0510589
0.0419002
0.0299342
0.0143306
-0.00589635
-0.0326419
-0.0668822
-0.11033
-0.158295
-0.187933
-0.2303
0.0553333
0.0602237
0.0616697
0.0631083
0.0630716
0.062061
0.0597121
0.0559646
0.050555
0.0432232
0.0335483
0.0210074
0.00478817
-0.0160058
-0.0429703
-0.0767294
-0.116246
-0.15547
-0.179047
-0.209194
0.0503718
0.0550317
0.0562988
0.0575176
0.0572462
0.0559758
0.0533394
0.0492772
0.0435256
0.0358252
0.0257652
0.0128279
-0.00375722
-0.0247234
-0.051196
-0.0835465
-0.118673
-0.14733
-0.169784
-0.184865
0.0455819
0.0499986
0.0510843
0.0520871
0.0515915
0.0500784
0.0471805
0.0428396
0.0367959
0.0287969
0.0184551
0.00528705
-0.0114046
-0.0321627
-0.0575467
-0.0876775
-0.118824
-0.137612
-0.159883
-0.163266
0.0409709
0.0451295
0.0460351
0.0468258
0.0461158
0.0443742
0.0412361
0.036646
0.0303509
0.0221085
0.0115548
-0.00175512
-0.0184418
-0.0388513
-0.0628585
-0.0900169
-0.116912
-0.129018
-0.149085
-0.144716
0.0365453
0.0404167
0.0411532
0.0417327
0.0408219
0.0388664
0.0355108
0.0307012
0.024197
0.0157759
0.00512039
-0.00812202
-0.0244044
-0.043839
-0.0657531
-0.0893351
-0.112324
-0.122187
-0.137663
-0.12938
0.032314
0.0358493
0.0364429
0.0368046
0.0357065
0.0335459
0.0299894
0.0249814
0.018299
0.00973881
-0.000985678
-0.0141883
-0.0302517
-0.049177
-0.0698005
-0.0906989
-0.110396
-0.120487
-0.132987
-0.115499
0.143136
0.152056
0.156398
0.16173
0.165987
0.169835
0.172999
0.175427
0.17695
0.177412
0.176552
0.174184
0.169807
0.163258
0.153312
0.140174
0.121275
0.100273
0.0727437
0.0598113
0.135075
0.143878
0.147553
0.152407
0.155894
0.158848
0.160921
0.162064
0.162066
0.16074
0.157763
0.152916
0.145654
0.135842
0.122097
0.104922
0.0813355
0.0569725
0.026771
0.0305629
0.127691
0.136219
0.139527
0.144028
0.147056
0.149513
0.151008
0.151517
0.150825
0.148761
0.144997
0.13933
0.131098
0.120215
0.105043
0.0864693
0.060599
0.0350474
0.000774744
0.00853857
0.120966
0.129126
0.132266
0.136492
0.139215
0.14135
0.142466
0.142558
0.141393
0.138797
0.134409
0.12801
0.118799
0.106733
0.089845
0.0694378
0.0405118
0.0129246
-0.0259232
-0.0168005
0.114475
0.122257
0.125255
0.129212
0.13164
0.13345
0.13417
0.133804
0.132092
0.128845
0.123647
0.116273
0.105801
0.0922448
0.0732909
0.0506904
0.0183373
-0.0115358
-0.0537019
-0.0426571
0.108007
0.115425
0.118254
0.121925
0.124043
0.125499
0.125795
0.12494
0.122649
0.118722
0.112705
0.104378
0.0927239
0.0778204
0.0570307
0.0325478
-0.00276303
-0.0345921
-0.0795547
-0.0675865
0.101565
0.108632
0.11128
0.114662
0.116478
0.117588
0.117485
0.11618
0.113376
0.108871
0.102182
0.0931081
0.0805505
0.0646112
0.0423717
0.0162179
-0.0218797
-0.056682
-0.104893
-0.0925275
0.0952103
0.101934
0.10441
0.107517
0.109062
0.109859
0.109413
0.107732
0.104516
0.0995615
0.0923662
0.0827412
0.0695264
0.0527741
0.0294677
0.00194912
-0.0379598
-0.0750907
-0.126481
-0.117359
0.0889835
0.0953663
0.0976908
0.100537
0.101846
0.102367
0.101634
0.0996457
0.096109
0.0908167
0.0832601
0.0732526
0.0596339
0.0422692
0.0182859
-0.0109186
-0.0529385
-0.0963401
-0.15205
-0.152792
0.0828888
0.0889321
0.0911287
0.0937317
0.0948438
0.0951294
0.0941714
0.0919513
0.088193
0.0826814
0.0749158
0.0646959
0.0508406
0.0330309
0.00902299
-0.0206152
-0.0613688
-0.10421
-0.158781
-0.146373
0.391861
0.391088
0.392395
0.391359
0.393401
0.392117
0.395454
0.393887
0.399485
0.397711
0.407443
0.405735
0.423446
0.422493
0.456846
0.458258
0.531335
0.540902
0.705545
0.766841
0.391859
0.391089
0.392392
0.391368
0.393399
0.392138
0.39546
0.393941
0.399519
0.397843
0.407553
0.406054
0.423746
0.423266
0.457618
0.460179
0.533351
0.545301
0.711126
0.759613
0.391856
0.391087
0.392386
0.391369
0.393392
0.392146
0.395454
0.393963
0.399519
0.397902
0.407575
0.4062
0.423824
0.42362
0.457817
0.461
0.533749
0.546427
0.711416
0.747153
0.391853
0.391082
0.392378
0.391371
0.39338
0.392153
0.395439
0.393985
0.399506
0.397962
0.407579
0.406354
0.423878
0.423997
0.457972
0.461833
0.533942
0.546979
0.710501
0.728221
0.391848
0.391076
0.392367
0.39137
0.393364
0.392155
0.395416
0.393996
0.399475
0.397999
0.407542
0.406454
0.423837
0.424238
0.457882
0.462271
0.533367
0.54606
0.706849
0.703095
0.391842
0.391067
0.392353
0.391367
0.393343
0.392153
0.395384
0.393999
0.399427
0.398017
0.40747
0.406514
0.423721
0.424381
0.457605
0.462415
0.532179
0.543945
0.700753
0.671805
0.391836
0.391056
0.392337
0.391363
0.393317
0.392146
0.395342
0.393993
0.39936
0.398016
0.407362
0.40653
0.423525
0.424414
0.457126
0.462232
0.530326
0.540624
0.692012
0.634119
0.391829
0.391042
0.392319
0.391357
0.393287
0.392136
0.395293
0.393978
0.399276
0.397995
0.407216
0.406499
0.423245
0.424332
0.45644
0.461717
0.527808
0.536159
0.680358
0.589619
0.391821
0.391024
0.3923
0.391347
0.393254
0.39212
0.395237
0.393951
0.39918
0.39795
0.407041
0.406417
0.422892
0.424125
0.455549
0.46084
0.524623
0.53056
0.665687
0.537906
0.391812
0.391006
0.392273
0.391334
0.393208
0.392101
0.395161
0.393923
0.399052
0.397906
0.406825
0.406336
0.422487
0.423918
0.454581
0.459923
0.521103
0.524572
0.648802
0.477839
0.391812
0.391006
0.392273
0.391334
0.393208
0.392101
0.395161
0.393923
0.399052
0.397906
0.406825
0.406336
0.422487
0.423918
0.454581
0.459923
0.521103
0.524572
0.648802
0.477839
0.391821
0.391024
0.3923
0.391347
0.393254
0.39212
0.395237
0.393951
0.39918
0.39795
0.407041
0.406417
0.422892
0.424125
0.455549
0.46084
0.524623
0.53056
0.665687
0.537906
0.391829
0.391042
0.392319
0.391357
0.393287
0.392136
0.395293
0.393978
0.399276
0.397995
0.407216
0.406499
0.423245
0.424332
0.45644
0.461717
0.527808
0.536159
0.680358
0.589619
0.391836
0.391056
0.392337
0.391363
0.393317
0.392146
0.395342
0.393993
0.39936
0.398016
0.407362
0.40653
0.423525
0.424414
0.457126
0.462232
0.530326
0.540624
0.692012
0.634119
0.391842
0.391067
0.392353
0.391367
0.393343
0.392153
0.395384
0.393999
0.399427
0.398017
0.40747
0.406514
0.423721
0.424381
0.457605
0.462415
0.532179
0.543945
0.700753
0.671804
0.391848
0.391076
0.392367
0.39137
0.393364
0.392155
0.395416
0.393996
0.399475
0.397999
0.407542
0.406454
0.423837
0.424238
0.457882
0.462271
0.533367
0.54606
0.706849
0.703095
0.391853
0.391082
0.392378
0.391371
0.39338
0.392153
0.395439
0.393985
0.399506
0.397962
0.407579
0.406354
0.423878
0.423997
0.457972
0.461833
0.533942
0.546979
0.710501
0.728221
0.391856
0.391087
0.392386
0.391369
0.393392
0.392146
0.395454
0.393963
0.399519
0.397902
0.407575
0.4062
0.423824
0.42362
0.457817
0.461
0.533749
0.546427
0.711416
0.747153
0.391859
0.391089
0.392392
0.391368
0.393399
0.392138
0.39546
0.393941
0.399519
0.397843
0.407553
0.406054
0.423746
0.423266
0.457618
0.460179
0.533351
0.545301
0.711126
0.759613
0.391861
0.391088
0.392395
0.391359
0.393401
0.392117
0.395454
0.393887
0.399485
0.397711
0.407443
0.405735
0.423446
0.422493
0.456846
0.458258
0.531335
0.540902
0.705545
0.766841
0.082889
0.0889324
0.0911289
0.0937319
0.094844
0.0951296
0.0941715
0.0919514
0.0881931
0.0826814
0.0749158
0.0646959
0.0508406
0.0330308
0.00902289
-0.0206153
-0.061369
-0.10421
-0.158781
-0.146373
0.0889838
0.0953665
0.097691
0.100538
0.101846
0.102367
0.101634
0.0996458
0.0961091
0.0908168
0.0832601
0.0732526
0.0596339
0.0422691
0.0182858
-0.0109187
-0.0529387
-0.0963403
-0.152051
-0.152792
0.0952105
0.101934
0.104411
0.107517
0.109062
0.109859
0.109413
0.107732
0.104516
0.0995615
0.0923662
0.0827412
0.0695263
0.0527741
0.0294676
0.00194899
-0.03796
-0.0750909
-0.126481
-0.117359
0.101565
0.108633
0.11128
0.114662
0.116478
0.117588
0.117485
0.116181
0.113376
0.108871
0.102182
0.0931081
0.0805505
0.0646111
0.0423716
0.0162178
-0.0218799
-0.0566822
-0.104893
-0.0925277
0.108007
0.115426
0.118254
0.121925
0.124043
0.125499
0.125795
0.12494
0.122649
0.118722
0.112705
0.104378
0.0927238
0.0778204
0.0570306
0.0325476
-0.00276317
-0.0345923
-0.0795549
-0.0675866
0.114475
0.122257
0.125255
0.129212
0.13164
0.13345
0.13417
0.133804
0.132092
0.128845
0.123647
0.116273
0.105801
0.0922448
0.0732909
0.0506903
0.0183372
-0.0115359
-0.053702
-0.0426572
0.120966
0.129126
0.132266
0.136492
0.139215
0.14135
0.142466
0.142558
0.141393
0.138797
0.134409
0.12801
0.118799
0.106733
0.0898449
0.0694377
0.0405117
0.0129245
-0.0259234
-0.0168006
0.127691
0.136219
0.139527
0.144029
0.147056
0.149513
0.151008
0.151518
0.150825
0.148761
0.144997
0.13933
0.131098
0.120215
0.105043
0.0864692
0.0605989
0.0350473
0.000774627
0.00853847
0.135075
0.143879
0.147554
0.152408
0.155894
0.158848
0.160922
0.162064
0.162066
0.16074
0.157763
0.152916
0.145654
0.135842
0.122097
0.104922
0.0813354
0.0569724
0.0267709
0.0305629
0.143136
0.152056
0.156399
0.161731
0.165987
0.169835
0.172999
0.175427
0.17695
0.177412
0.176552
0.174184
0.169807
0.163258
0.153312
0.140174
0.121275
0.100273
0.0727436
0.0598113
0.0323143
0.0358497
0.0364432
0.0368049
0.0357068
0.0335462
0.0299897
0.0249816
0.0182991
0.0097389
-0.000985639
-0.0141883
-0.0302518
-0.0491771
-0.0698007
-0.0906992
-0.110396
-0.120487
-0.132987
-0.115499
0.0365457
0.040417
0.0411535
0.041733
0.0408222
0.0388666
0.0355111
0.0307014
0.0241971
0.015776
0.00512043
-0.00812204
-0.0244045
-0.0438392
-0.0657533
-0.0893354
-0.112324
-0.122188
-0.137664
-0.12938
0.0409712
0.0451298
0.0460354
0.046826
0.0461161
0.0443744
0.0412363
0.0366462
0.030351
0.0221086
0.0115548
-0.00175513
-0.0184418
-0.0388514
-0.0628587
-0.0900172
-0.116912
-0.129018
-0.149085
-0.144716
0.0455822
0.0499989
0.0510846
0.0520874
0.0515918
0.0500786
0.0471807
0.0428397
0.036796
0.028797
0.0184551
0.00528704
-0.0114047
-0.0321628
-0.0575469
-0.0876777
-0.118825
-0.137613
-0.159883
-0.163266
0.0503721
0.055032
0.056299
0.0575178
0.0572464
0.055976
0.0533396
0.0492773
0.0435258
0.0358252
0.0257652
0.0128279
-0.00375727
-0.0247235
-0.0511962
-0.0835468
-0.118674
-0.14733
-0.169785
-0.184866
0.0553336
0.060224
0.0616699
0.0631086
0.0630718
0.0620612
0.0597123
0.0559648
0.0505551
0.0432233
0.0335483
0.0210074
0.00478811
-0.0160059
-0.0429704
-0.0767296
-0.116246
-0.15547
-0.179048
-0.209195
0.0604566
0.0655609
0.0671786
0.0688411
0.0690531
0.0683259
0.0663012
0.0629203
0.0579241
0.051059
0.0419003
0.0299342
0.0143306
-0.00589644
-0.032642
-0.0668824
-0.11033
-0.158295
-0.187934
-0.2303
0.0657407
0.0710353
0.0728146
0.0747062
0.0751839
0.0747632
0.0730993
0.0701378
0.0656318
0.0593449
0.0508625
0.0397021
0.0250711
0.00600774
-0.0195338
-0.0530476
-0.0988926
-0.153114
-0.196985
-0.248087
0.0712154
0.0766897
0.0786226
0.0807493
0.0814924
0.0813707
0.0800531
0.0774914
0.0734518
0.0677182
0.0598879
0.0495285
0.0359121
0.0182339
-0.00549796
-0.0371536
-0.0829328
-0.141979
-0.207698
-0.256066
0.0769331
0.0826375
0.0847164
0.0870821
0.0880431
0.088153
0.0870657
0.08474
0.0809342
0.0754342
0.0678118
0.0577056
0.0442869
0.0269454
0.00375464
-0.0266483
-0.0701646
-0.127404
-0.212859
-0.315216
-0.000737771
-0.00222437
-0.00373336
-0.00528288
-0.00685032
-0.00841794
-0.00996548
-0.0114736
-0.0129256
-0.014308
-0.0156121
-0.0168286
-0.0179503
-0.0189749
-0.0199012
-0.0207295
-0.0214617
-0.0221008
-0.0226508
-0.0231166
-0.0235036
-0.0238181
-0.0240666
-0.0242561
-0.0243938
-0.0244871
-0.0245434
-0.0245701
-0.0245745
-0.0245636
-0.0245441
-0.0245224
-0.0245045
-0.0244956
-0.0245008
-0.0245243
-0.0245702
-0.0246417
-0.0247419
-0.0248732
-0.0250376
-0.0252368
-0.025472
-0.0257441
-0.0260538
-0.0264015
-0.0267874
-0.0272114
-0.0276734
-0.0281732
-0.0287102
-0.0292841
-0.0298944
-0.0305405
-0.0312218
-0.0319379
-0.0326882
-0.033472
-0.034289
-0.0351384
-0.0360204
-0.0369387
-0.0378873
-0.0388665
-0.0398771
-0.0409182
-0.0419896
-0.0430911
-0.0442224
-0.0453829
-0.0465712
-0.047787
-0.049032
-0.0503086
-0.0516072
-0.0529284
-0.0542709
-0.0556322
-0.0570092
-0.0583982
-0.0597945
-0.0611924
-0.0625852
-0.0639645
-0.0653201
-0.0666396
-0.0679084
-0.0691066
-0.0702155
-0.0711983
-0.0720414
-0.0726582
-0.0730944
-0.0730813
-0.0729853
-0.0719112
-0.0714044
-0.0688602
-0.0685857
-0.064872
-0.000737422
-0.00222564
-0.00373651
-0.00528984
-0.00686163
-0.00843373
-0.00998559
-0.0114977
-0.0129536
-0.0143397
-0.0156446
-0.0168604
-0.0179813
-0.019005
-0.01993
-0.0207568
-0.0214873
-0.0221245
-0.0226724
-0.0231361
-0.023521
-0.0238333
-0.0240798
-0.0242674
-0.0244033
-0.024495
-0.0245499
-0.0245754
-0.0245788
-0.0245671
-0.024547
-0.0245248
-0.0245065
-0.0244976
-0.0245029
-0.024527
-0.0245737
-0.0246465
-0.0247482
-0.0248813
-0.025048
-0.0252496
-0.0254876
-0.0257628
-0.0260759
-0.0264273
-0.0268171
-0.0272453
-0.0277117
-0.0282161
-0.028758
-0.0293371
-0.0299528
-0.0306045
-0.0312919
-0.0320143
-0.0327713
-0.0335625
-0.0343875
-0.0352463
-0.036138
-0.0370585
-0.038011
-0.038996
-0.0400119
-0.0410588
-0.0421369
-0.0432455
-0.0443839
-0.0455517
-0.0467506
-0.0479796
-0.0492314
-0.0505052
-0.0518056
-0.05313
-0.0544759
-0.0558403
-0.0572202
-0.0586116
-0.0600097
-0.0614087
-0.0628015
-0.0641796
-0.0655325
-0.0668474
-0.0681095
-0.0692983
-0.0703946
-0.0713617
-0.0721836
-0.0727774
-0.0731818
-0.0731523
-0.0730367
-0.0719562
-0.0714596
-0.068972
-0.0688847
-0.0657304
-0.000735053
-0.00222353
-0.00373522
-0.00529302
-0.00687016
-0.00844765
-0.0100044
-0.0115206
-0.0129793
-0.0143669
-0.0156738
-0.0168921
-0.0180144
-0.0190385
-0.0199634
-0.0207896
-0.021519
-0.0221547
-0.0227009
-0.0231625
-0.0235453
-0.0238553
-0.0240994
-0.0242846
-0.0244182
-0.0245076
-0.0245603
-0.0245838
-0.0245853
-0.024572
-0.0245505
-0.0245273
-0.0245082
-0.0244987
-0.0245039
-0.024528
-0.024575
-0.0246484
-0.024751
-0.0248853
-0.0250532
-0.0252564
-0.0254961
-0.0257732
-0.0260882
-0.0264416
-0.0268335
-0.0272638
-0.0277324
-0.0282389
-0.028783
-0.0293641
-0.0299817
-0.0306353
-0.0313242
-0.032048
-0.032806
-0.0335976
-0.0344223
-0.0352793
-0.0361686
-0.0370915
-0.0380493
-0.0390361
-0.0400556
-0.0411058
-0.0421858
-0.0432956
-0.0444366
-0.0456074
-0.0468036
-0.048024
-0.0492854
-0.0505702
-0.0518788
-0.0532097
-0.0545614
-0.0559314
-0.0573166
-0.0587129
-0.0601157
-0.061519
-0.0629157
-0.0642971
-0.0656528
-0.0669697
-0.0682328
-0.0694216
-0.0705161
-0.0714804
-0.0722969
-0.0728858
-0.0732822
-0.0732455
-0.073112
-0.072029
-0.0715896
-0.0691298
-0.0693318
-0.0666757
-0.000730861
-0.00221919
-0.0037312
-0.00529492
-0.00687934
-0.00846432
-0.0100281
-0.0115505
-0.0130145
-0.0144066
-0.0157158
-0.0169351
-0.018058
-0.0190822
-0.0200065
-0.0208316
-0.0215595
-0.0221934
-0.0227374
-0.0231966
-0.0235767
-0.0238841
-0.0241253
-0.0243076
-0.0244383
-0.0245248
-0.0245748
-0.0245956
-0.0245948
-0.0245792
-0.0245558
-0.0245309
-0.0245105
-0.0245
-0.0245044
-0.0245282
-0.0245752
-0.0246488
-0.024752
-0.0248872
-0.0250563
-0.0252609
-0.0255022
-0.0257812
-0.0260984
-0.0264542
-0.0268487
-0.0272819
-0.0277535
-0.0282632
-0.0288106
-0.0293953
-0.0300168
-0.0306744
-0.0313677
-0.0320961
-0.0328591
-0.0336564
-0.0344876
-0.0353524
-0.0362505
-0.0371788
-0.0381386
-0.0391338
-0.0401561
-0.0412096
-0.0422954
-0.0434122
-0.0445562
-0.0457279
-0.0469337
-0.0481759
-0.0494303
-0.0507124
-0.052021
-0.0533534
-0.0547071
-0.0560792
-0.0574666
-0.0588651
-0.0602699
-0.0616751
-0.0630733
-0.0644558
-0.065812
-0.0671288
-0.068391
-0.0695784
-0.0706706
-0.0716327
-0.072446
-0.0730347
-0.0734304
-0.0734035
-0.0732908
-0.0722337
-0.071929
-0.0694993
-0.0701593
-0.0679405
-0.000724358
-0.00221235
-0.00372417
-0.00529529
-0.00688879
-0.00848305
-0.0100554
-0.0115852
-0.0130551
-0.0144515
-0.0157637
-0.0169856
-0.0181099
-0.0191344
-0.0200583
-0.0208824
-0.0216086
-0.0222404
-0.0227819
-0.0232383
-0.0236154
-0.0239195
-0.0241574
-0.0243362
-0.0244635
-0.0245466
-0.0245933
-0.024611
-0.0246071
-0.0245888
-0.0245629
-0.0245359
-0.0245136
-0.0245016
-0.0245049
-0.0245279
-0.0245745
-0.0246481
-0.0247516
-0.0248874
-0.0250574
-0.0252633
-0.0255062
-0.0257869
-0.0261062
-0.0264642
-0.0268612
-0.0272969
-0.0277713
-0.0282839
-0.0288343
-0.029422
-0.0300465
-0.0307071
-0.0314034
-0.0321347
-0.0329005
-0.0337002
-0.0345332
-0.0353991
-0.0362973
-0.0372287
-0.0381893
-0.0391776
-0.0402074
-0.0412665
-0.0423537
-0.0434701
-0.0446225
-0.0458083
-0.0470185
-0.0482498
-0.0495151
-0.050807
-0.052123
-0.0534617
-0.0548213
-0.0561991
-0.0575918
-0.0589955
-0.0604053
-0.0618152
-0.0632179
-0.0646046
-0.0659647
-0.0672852
-0.0685507
-0.0697414
-0.0708366
-0.0718028
-0.0726205
-0.0732185
-0.0736257
-0.0736243
-0.0735552
-0.0725486
-0.0724339
-0.0700364
-0.0713066
-0.0694378
-0.000714966
-0.00220293
-0.00371405
-0.00529417
-0.0068986
-0.00850388
-0.0100864
-0.0116249
-0.0131018
-0.0145038
-0.0158199
-0.0170441
-0.0181698
-0.0191948
-0.0201183
-0.0209411
-0.0216656
-0.022295
-0.0228337
-0.023287
-0.0236607
-0.0239611
-0.0241952
-0.0243702
-0.0244935
-0.0245727
-0.0246156
-0.0246296
-0.0246222
-0.0246006
-0.0245718
-0.024542
-0.0245175
-0.0245035
-0.0245053
-0.0245271
-0.0245729
-0.0246462
-0.0247496
-0.0248858
-0.0250565
-0.0252635
-0.0255077
-0.0257902
-0.0261114
-0.0264716
-0.0268709
-0.0273092
-0.0277863
-0.0283018
-0.0288553
-0.0294461
-0.0300739
-0.030738
-0.0314379
-0.0321729
-0.0329426
-0.0337464
-0.0345841
-0.0354551
-0.0363592
-0.0372956
-0.038266
-0.0392712
-0.0402986
-0.0413591
-0.0424534
-0.0435805
-0.0447323
-0.0459107
-0.0471209
-0.0483627
-0.0496296
-0.0509227
-0.0522412
-0.0535832
-0.0549463
-0.0563279
-0.0577246
-0.0591324
-0.0605463
-0.0619603
-0.0633672
-0.0647581
-0.0661224
-0.0674471
-0.0687171
-0.0699128
-0.0710137
-0.0719877
-0.072815
-0.0734297
-0.0738582
-0.0738962
-0.0738868
-0.0729529
-0.0730713
-0.0707054
-0.0727581
-0.0710865
-0.000701873
-0.00219082
-0.00370079
-0.00529165
-0.00690888
-0.00852687
-0.0101211
-0.0116694
-0.0131544
-0.0145623
-0.0158816
-0.0171097
-0.0182373
-0.0192627
-0.0201858
-0.0210073
-0.0217298
-0.0223566
-0.0228923
-0.0233422
-0.023712
-0.0240085
-0.0242384
-0.024409
-0.0245279
-0.0246028
-0.0246413
-0.0246511
-0.0246397
-0.0246144
-0.0245821