/*--------------------------------*- C++ -*----------------------------------*\
  =========                 |
  \\      /  F ield         | OpenFOAM: The Open Source CFD Toolbox
   \\    /   O peration     | Website:  https://openfoam.org
    \\  /    A nd           | Version:  7
     \\/     M anipulation  |
\*---------------------------------------------------------------------------*/
FoamFile
{
    version     2.0;
    format      ascii;
    class       volVectorField;
    location    "78";
    object      U;
}
// * * * * * * * * * * * * * * * * * * * * * * * * * * * * * * * * * * * * * //

dimensions      [0 1 -1 0 0 0 0];

internalField   nonuniform List<vector> 
8000
(
(-0.248447 -0.000342799 -6.26643e-20)
(-0.249191 -0.000884043 2.69388e-19)
(-0.250163 -0.0015723 -2.72598e-19)
(-0.251535 -0.00207388 7.31661e-19)
(-0.253029 -0.00233579 -5.6775e-19)
(-0.254534 -0.00237735 -7.25396e-19)
(-0.255973 -0.00222617 1.10776e-18)
(-0.257286 -0.0019166 3.67062e-19)
(-0.258434 -0.00148259 2.4425e-19)
(-0.259389 -0.000954096 3.37686e-19)
(-0.260131 -0.000355992 -1.00002e-18)
(-0.260651 0.000288363 -8.33137e-19)
(-0.260942 0.000957842 -5.95367e-18)
(-0.261 0.00164298 -1.6685e-18)
(-0.260825 0.00233117 1.06263e-18)
(-0.260421 0.00301206 1.11999e-18)
(-0.259793 0.00367716 4.2051e-18)
(-0.258949 0.00431939 -8.75236e-19)
(-0.257896 0.00493271 1.29459e-18)
(-0.256646 0.00551194 3.08892e-19)
(-0.25521 0.00605253 1.7637e-18)
(-0.253601 0.00655042 2.70314e-18)
(-0.251832 0.00700199 9.43792e-19)
(-0.249918 0.00740403 -6.69537e-19)
(-0.247875 0.0077538 9.66377e-20)
(-0.245718 0.00804906 1.14396e-18)
(-0.243466 0.00828817 -3.07998e-19)
(-0.241135 0.00847014 2.10713e-18)
(-0.238742 0.0085947 4.75479e-20)
(-0.236306 0.00866236 -4.40807e-20)
(-0.233843 0.00867435 8.70685e-19)
(-0.231369 0.00863256 3.3894e-20)
(-0.228901 0.00853952 4.05259e-18)
(-0.226452 0.00839832 -6.31919e-19)
(-0.224036 0.00821249 -2.98369e-18)
(-0.221666 0.00798601 -8.64664e-20)
(-0.219352 0.00772319 2.15811e-19)
(-0.217102 0.00742858 4.30684e-18)
(-0.214926 0.0071069 1.76261e-18)
(-0.212828 0.00676296 4.83762e-18)
(-0.210813 0.00640157 1.27856e-18)
(-0.208884 0.00602752 7.607e-19)
(-0.207043 0.00564549 4.66023e-18)
(-0.205288 0.00525998 -4.85681e-19)
(-0.20362 0.00487528 1.31346e-19)
(-0.202034 0.00449544 3.88666e-19)
(-0.200527 0.00412416 -3.91994e-18)
(-0.199094 0.00376481 -5.70467e-19)
(-0.19773 0.00342035 3.43613e-19)
(-0.196427 0.00309335 8.062e-19)
(-0.195179 0.00278594 6.39387e-19)
(-0.193977 0.00249985 -8.79907e-19)
(-0.192814 0.0022364 -1.08459e-18)
(-0.191682 0.00199653 -2.15626e-18)
(-0.190572 0.00178082 -1.32014e-18)
(-0.189476 0.00158957 -7.45165e-20)
(-0.188385 0.00142281 -1.68625e-18)
(-0.187292 0.00128038 9.4527e-20)
(-0.186187 0.00116199 -7.25492e-19)
(-0.185064 0.00106723 7.26322e-19)
(-0.183914 0.00099575 5.3308e-18)
(-0.182728 0.000947224 1.23563e-18)
(-0.1815 0.000921612 6.24657e-18)
(-0.180222 0.000918423 2.98961e-19)
(-0.178886 0.000937723 5.79602e-19)
(-0.177485 0.000979376 3.53837e-18)
(-0.176011 0.00104382 1.87132e-18)
(-0.174456 0.00113158 8.18312e-18)
(-0.172813 0.00124349 2.09089e-18)
(-0.171072 0.00138065 5.74016e-19)
(-0.169226 0.00154455 7.85138e-18)
(-0.167266 0.00173736 4.26886e-18)
(-0.165182 0.00196141 1.07083e-17)
(-0.162966 0.00221945 1.76483e-18)
(-0.160605 0.00251499 2.69406e-18)
(-0.15809 0.00285232 -2.79407e-18)
(-0.155408 0.00323661 -2.65485e-18)
(-0.152547 0.00367415 5.13803e-18)
(-0.149491 0.00417238 8.55254e-18)
(-0.146228 0.00474033 8.3829e-19)
(-0.14274 0.00538892 7.70062e-18)
(-0.13901 0.00613143 3.23669e-18)
(-0.13502 0.00698405 9.72953e-18)
(-0.130749 0.00796679 -4.61973e-18)
(-0.126179 0.0091044 6.90641e-18)
(-0.121288 0.0104282 7.86964e-18)
(-0.116056 0.0119767 1.04189e-17)
(-0.110469 0.0138039 -3.46043e-18)
(-0.104511 0.015971 7.02716e-18)
(-0.0981921 0.0185686 -7.57068e-18)
(-0.0915157 0.0217015 -1.77114e-18)
(-0.0845867 0.0255381 -1.54927e-18)
(-0.0774053 0.030235 -6.9226e-19)
(-0.0705189 0.0361076 -2.14719e-19)
(-0.0634 0.0433663 1.80223e-20)
(-0.0590134 0.0519963 3.29023e-18)
(-0.0526028 0.063244 1.58886e-19)
(-0.0559594 0.0709886 -1.62717e-17)
(-0.0469991 0.0838285 -4.21585e-18)
(-0.0369859 0.0507787 -2.33693e-17)
(-0.262722 -0.000239864 -8.40684e-20)
(-0.263256 -0.000668065 3.17041e-20)
(-0.264029 -0.00124119 -1.76278e-19)
(-0.265165 -0.00167403 3.0546e-19)
(-0.266437 -0.00191063 -5.65563e-19)
(-0.267742 -0.0019577 -1.34981e-18)
(-0.268998 -0.00183402 -3.09543e-19)
(-0.270144 -0.00156766 2.03156e-19)
(-0.271135 -0.0011878 4.17988e-20)
(-0.271942 -0.000721177 1.3399e-19)
(-0.272541 -0.000190106 -3.6719e-19)
(-0.272919 0.000382379 -1.55053e-18)
(-0.273069 0.000980763 -5.37135e-18)
(-0.272984 0.00159408 -1.8157e-18)
(-0.272665 0.00221086 2.26455e-18)
(-0.272115 0.00282166 1.81636e-18)
(-0.271338 0.00341871 1.98189e-18)
(-0.270342 0.00399549 -3.92921e-19)
(-0.269136 0.00454646 2.93282e-18)
(-0.26773 0.00506688 1.68982e-19)
(-0.266136 0.00555256 3.27879e-19)
(-0.264367 0.00599982 5.97091e-18)
(-0.262438 0.00640536 4.215e-18)
(-0.260363 0.00676627 -1.53185e-18)
(-0.258159 0.00708005 -1.0362e-19)
(-0.255842 0.00734467 1.53889e-18)
(-0.25343 0.00755864 -1.52172e-18)
(-0.250941 0.00772101 3.62757e-18)
(-0.248393 0.00783154 -1.20155e-18)
(-0.245805 0.00789066 -8.76921e-19)
(-0.243192 0.00789942 1.19691e-18)
(-0.240574 0.00785948 -7.96301e-19)
(-0.237965 0.00777306 1.41229e-18)
(-0.235382 0.00764287 -3.20133e-18)
(-0.232838 0.00747206 -4.5337e-19)
(-0.230346 0.00726419 -1.56797e-19)
(-0.227918 0.00702312 -2.82586e-19)
(-0.225564 0.00675294 1.92821e-18)
(-0.223292 0.00645783 2.08729e-18)
(-0.221109 0.00614208 2.41468e-18)
(-0.21902 0.00581003 8.65578e-19)
(-0.217028 0.00546594 5.32746e-19)
(-0.215137 0.00511402 2.30857e-18)
(-0.213346 0.00475832 -2.93885e-18)
(-0.211654 0.00440273 -4.52984e-19)
(-0.21006 0.00405089 7.65083e-20)
(-0.208561 0.00370617 -1.83356e-18)
(-0.207151 0.00337162 -4.66682e-19)
(-0.205825 0.00304997 1.49577e-19)
(-0.204577 0.00274355 6.63394e-19)
(-0.203401 0.00245435 4.14148e-19)
(-0.202288 0.00218397 1.20433e-18)
(-0.201231 0.00193365 -1.64859e-18)
(-0.200223 0.00170429 -3.69989e-19)
(-0.199254 0.00149647 -2.48095e-18)
(-0.198316 0.00131047 -5.10283e-19)
(-0.197401 0.00114637 -4.21396e-18)
(-0.196501 0.00100404 -4.33219e-19)
(-0.195607 0.000883208 -2.51981e-18)
(-0.194712 0.000783516 2.30819e-19)
(-0.193807 0.000704596 1.31865e-18)
(-0.192884 0.000646163 5.59119e-19)
(-0.191936 0.000608152 2.7495e-18)
(-0.190955 0.000590001 -2.08147e-18)
(-0.189934 0.000592463 -3.37591e-19)
(-0.188864 0.000614922 6.70971e-18)
(-0.187739 0.000657426 1.71127e-18)
(-0.18655 0.000720484 3.76156e-18)
(-0.18529 0.000805324 1.3891e-18)
(-0.18395 0.000913031 4.1326e-19)
(-0.182522 0.0010444 3.58345e-18)
(-0.180997 0.00120135 7.51762e-18)
(-0.179365 0.00138629 8.85411e-18)
(-0.177617 0.00160166 1.52924e-18)
(-0.175742 0.00185062 5.36027e-18)
(-0.173729 0.00213706 -6.64717e-18)
(-0.171564 0.00246576 -5.45607e-18)
(-0.169234 0.0028425 1.18001e-17)
(-0.166724 0.00327414 1.88553e-18)
(-0.164018 0.00376908 2.29718e-19)
(-0.161097 0.00433747 -4.28285e-19)
(-0.157941 0.00499174 4.02858e-18)
(-0.154529 0.00574712 3.40645e-18)
(-0.150834 0.00662252 -1.26253e-17)
(-0.146832 0.00764151 -2.26868e-18)
(-0.142493 0.00883414 -3.55988e-18)
(-0.137785 0.0102378 2.32088e-18)
(-0.132678 0.0119049 -1.03015e-17)
(-0.127134 0.0138967 -3.06081e-18)
(-0.121136 0.0163038 -1.71547e-17)
(-0.11464 0.0192347 -2.65328e-18)
(-0.107702 0.0228615 -3.66844e-18)
(-0.100214 0.0273689 -1.19021e-18)
(-0.0926455 0.0330524 -1.38168e-20)
(-0.0842306 0.0402904 4.88634e-20)
(-0.0776401 0.0488513 7.35313e-18)
(-0.0680492 0.0606091 2.56521e-19)
(-0.065177 0.0683024 -1.30481e-17)
(-0.0500565 0.0803243 -3.93914e-18)
(-0.0252725 0.0465527 -1.04574e-17)
(-0.275502 -0.000167274 -7.82683e-21)
(-0.275882 -0.000501615 -1.59939e-19)
(-0.276493 -0.000972786 -2.05335e-19)
(-0.27743 -0.00133851 1.28902e-19)
(-0.278506 -0.00154671 -1.10837e-18)
(-0.279629 -0.0015945 -5.40307e-19)
(-0.280719 -0.00149387 1.07326e-18)
(-0.281711 -0.00126724 3.19525e-19)
(-0.282559 -0.000939142 -1.59116e-19)
(-0.28323 -0.000532934 -7.04978e-20)
(-0.283697 -6.65134e-05 -1.49842e-19)
(-0.283946 0.000433706 9.71551e-19)
(-0.283968 0.000961331 -3.07953e-18)
(-0.283755 0.00150289 -1.71602e-18)
(-0.283306 0.00204809 2.59762e-19)
(-0.282624 0.00258847 3.38706e-18)
(-0.281713 0.00311701 7.52153e-19)
(-0.280581 0.00362782 -4.23959e-19)
(-0.279237 0.00411591 6.34233e-19)
(-0.277691 0.004577 -5.54727e-19)
(-0.275955 0.00500732 -6.00781e-19)
(-0.274043 0.00540358 7.05252e-18)
(-0.271969 0.00576281 2.45659e-18)
(-0.269749 0.00608243 1.96946e-18)
(-0.267399 0.0063602 9.69568e-20)
(-0.264937 0.00659431 3.14658e-18)
(-0.262381 0.00678343 -4.04294e-18)
(-0.259749 0.00692673 1.58547e-18)
(-0.25706 0.00702394 -3.95345e-18)
(-0.254332 0.0070754 -1.80344e-18)
(-0.251583 0.00708202 2.60413e-18)
(-0.248831 0.00704521 -2.42727e-18)
(-0.246094 0.00696689 -4.31536e-20)
(-0.243386 0.00684945 -1.59615e-18)
(-0.240723 0.00669563 2.48316e-18)
(-0.238118 0.00650855 -2.86969e-19)
(-0.235584 0.00629158 -8.66112e-19)
(-0.233131 0.0060483 9.8497e-19)
(-0.230768 0.00578239 3.43041e-18)
(-0.228502 0.00549762 1.39676e-18)
(-0.226341 0.00519779 5.37545e-19)
(-0.224287 0.0048867 4.60834e-19)
(-0.222344 0.00456805 1.28826e-18)
(-0.220513 0.00424545 -8.26531e-19)
(-0.218794 0.00392234 -7.52132e-19)
(-0.217185 0.00360198 -1.79045e-19)
(-0.215684 0.00328738 -1.12403e-18)
(-0.214286 0.00298128 -1.71563e-19)
(-0.212986 0.00268613 9.92658e-20)
(-0.211779 0.00240406 9.54103e-19)
(-0.210658 0.00213688 4.02209e-19)
(-0.209616 0.00188607 3.95253e-18)
(-0.208645 0.00165278 -3.38487e-18)
(-0.207738 0.00143787 1.18202e-18)
(-0.206885 0.00124189 -5.19863e-18)
(-0.206079 0.00106517 -5.86479e-19)
(-0.205312 0.000907795 -1.04629e-18)
(-0.204575 0.000769706 -1.07593e-19)
(-0.203859 0.000650693 3.09821e-18)
(-0.203157 0.000550469 7.13443e-19)
(-0.202461 0.000468716 -1.6373e-18)
(-0.201763 0.000405208 -2.66713e-19)
(-0.201054 0.000360181 1.232e-18)
(-0.200328 0.000333163 -6.61344e-18)
(-0.199576 0.000323123 -7.13897e-19)
(-0.198792 0.000330529 2.96435e-18)
(-0.197967 0.000356151 1.56563e-18)
(-0.197094 0.00040032 2.06443e-18)
(-0.196164 0.000463037 8.69548e-19)
(-0.19517 0.00054497 2.66117e-19)
(-0.194102 0.000647962 1.75731e-18)
(-0.192953 0.000774356 2.17343e-18)
(-0.191711 0.000925433 -1.7034e-18)
(-0.190368 0.00110342 6.59693e-19)
(-0.188912 0.00131126 1.15825e-17)
(-0.187332 0.00155246 -1.66218e-18)
(-0.185613 0.00183133 3.89088e-18)
(-0.183742 0.00215312 1.21697e-17)
(-0.181702 0.00252407 -5.61502e-18)
(-0.179476 0.00295182 -9.60919e-19)
(-0.177042 0.00344565 -8.26546e-18)
(-0.17438 0.00401695 8.40598e-18)
(-0.171462 0.00467976 -8.94573e-19)
(-0.168261 0.00545155 -1.29253e-17)
(-0.164743 0.00635417 -1.03632e-17)
(-0.160871 0.00741573 -1.73568e-17)
(-0.156603 0.00867133 -2.04688e-18)
(-0.151894 0.0101701 -5.01825e-18)
(-0.146685 0.011971 -1.23103e-17)
(-0.140931 0.0141607 -1.83698e-17)
(-0.134543 0.0168458 -2.33763e-18)
(-0.127532 0.0201921 -7.38382e-18)
(-0.119679 0.0243979 -1.93729e-18)
(-0.11137 0.0297346 -1.45096e-19)
(-0.101616 0.0366958 -1.41188e-19)
(-0.0927737 0.0448964 1.52176e-17)
(-0.0800321 0.0565101 1.27622e-18)
(-0.0713493 0.0639482 -1.92068e-17)
(-0.0512303 0.0743359 -3.88031e-18)
(-0.0196575 0.0431096 -8.17847e-18)
(-0.286752 -0.000115983 5.13887e-20)
(-0.287022 -0.000375713 -4.86637e-19)
(-0.287504 -0.000756126 -3.38145e-19)
(-0.288274 -0.00105922 4.17987e-21)
(-0.289183 -0.00123732 -6.45867e-19)
(-0.290147 -0.00128209 2.53574e-19)
(-0.291088 -0.00120054 6.81691e-19)
(-0.291943 -0.00101009 3.25135e-19)
(-0.292662 -0.000730867 -4.89932e-19)
(-0.293209 -0.000382759 -2.4873e-19)
(-0.293559 1.92098e-05 5.03771e-20)
(-0.293695 0.000449664 -4.39976e-19)
(-0.293602 0.000905901 -3.55533e-18)
(-0.293274 0.00137504 -2.06004e-18)
(-0.29271 0.00184798 -1.08583e-18)
(-0.291912 0.00231724 1.60296e-18)
(-0.290883 0.00277656 -7.53151e-19)
(-0.289631 0.00322073 -9.25626e-19)
(-0.288164 0.00364531 -1.1588e-18)
(-0.286495 0.00404651 -1.9032e-18)
(-0.284633 0.00442102 -1.36623e-18)
(-0.282594 0.00476592 7.00084e-18)
(-0.280393 0.0050786 7.95098e-19)
(-0.278044 0.00535678 -2.68691e-19)
(-0.275565 0.00559852 -4.65804e-21)
(-0.272974 0.00580221 -6.29334e-20)
(-0.27029 0.00596667 -3.36074e-18)
(-0.26753 0.00609116 1.43382e-18)
(-0.264714 0.00617542 -3.28898e-18)
(-0.261861 0.00621971 -3.05003e-18)
(-0.25899 0.00622476 -3.7775e-19)
(-0.256119 0.0061918 1.25799e-19)
(-0.253265 0.00612246 -1.01436e-18)
(-0.250445 0.00601877 -1.08567e-18)
(-0.247674 0.00588311 9.08272e-19)
(-0.244966 0.00571813 -1.24784e-18)
(-0.242334 0.00552677 -2.08933e-18)
(-0.23979 0.0053121 1.12702e-18)
(-0.237343 0.00507731 3.77996e-19)
(-0.235001 0.00482568 6.00956e-19)
(-0.23277 0.00456052 1.93381e-19)
(-0.230657 0.00428511 7.6741e-19)
(-0.228663 0.0040027 1.00874e-18)
(-0.226791 0.00371641 3.6826e-19)
(-0.225042 0.00342927 -1.4656e-18)
(-0.223414 0.00314412 -3.03161e-19)
(-0.221905 0.00286361 -1.13119e-18)
(-0.220511 0.00259016 1.61211e-19)
(-0.219228 0.00232593 3.4811e-19)
(-0.21805 0.00207282 1.8586e-18)
(-0.216971 0.00183243 5.854e-19)
(-0.215983 0.0016061 1.27006e-18)
(-0.215081 0.00139487 3.77936e-20)
(-0.214255 0.00119951 4.23817e-18)
(-0.213497 0.00102055 -3.3916e-18)
(-0.2128 0.000858293 1.88805e-19)
(-0.212154 0.000712842 1.78361e-18)
(-0.211553 0.000584148 5.61657e-19)
(-0.210986 0.000472015 1.55893e-18)
(-0.210447 0.000376139 9.0702e-19)
(-0.209926 0.000296163 -5.7651e-18)
(-0.209417 0.000231972 -7.8005e-19)
(-0.20891 0.000183409 4.91561e-19)
(-0.2084 0.000148929 -5.33147e-18)
(-0.207877 0.000132633 -2.90956e-19)
(-0.207335 0.000131244 1.6162e-18)
(-0.206765 0.000143906 1.82345e-18)
(-0.206159 0.000171018 1.45927e-18)
(-0.205511 0.000215469 6.18024e-19)
(-0.204811 0.000278883 3.26617e-19)
(-0.20405 0.000359766 1.04504e-18)
(-0.20322 0.000458879 -2.00796e-18)
(-0.202311 0.000580183 -1.3818e-19)
(-0.201313 0.000725042 7.46054e-19)
(-0.200214 0.000895774 1.17038e-17)
(-0.199003 0.00109546 -5.52757e-19)
(-0.197664 0.00132793 1.46151e-18)
(-0.196184 0.00159784 4.89963e-18)
(-0.194544 0.00191076 -3.34402e-18)
(-0.192726 0.00227348 -1.63704e-18)
(-0.190708 0.0026943 -5.48938e-18)
(-0.188465 0.00318341 2.61682e-18)
(-0.185967 0.00375341 -7.70985e-18)
(-0.183183 0.00442005 -4.10706e-18)
(-0.180074 0.0052031 -4.93431e-18)
(-0.176596 0.00612811 -2.21139e-17)
(-0.172696 0.00722715 -4.34997e-18)
(-0.168317 0.00854512 -3.0689e-18)
(-0.163379 0.0101369 -9.61858e-18)
(-0.157816 0.0120827 -1.0345e-17)
(-0.151494 0.0144842 -1.1534e-18)
(-0.144382 0.0174944 -1.62882e-17)
(-0.13616 0.021316 -2.25784e-18)
(-0.12713 0.0261807 -8.84693e-20)
(-0.11611 0.0326482 -3.14678e-19)
(-0.105135 0.0402295 1.30429e-17)
(-0.0894924 0.0512017 1.68926e-18)
(-0.0756893 0.058203 -1.78651e-17)
(-0.0514732 0.0669048 -3.52829e-18)
(-0.016835 0.0395949 -1.28558e-17)
(-0.296443 -7.98956e-05 1.28005e-19)
(-0.296635 -0.000279216 -6.06639e-19)
(-0.297018 -0.000580281 -5.7999e-19)
(-0.297653 -0.000825619 -8.26658e-20)
(-0.298423 -0.000973382 -6.35182e-19)
(-0.299251 -0.00101279 1.4401e-18)
(-0.300063 -0.000947352 6.7856e-19)
(-0.300797 -0.000790251 3.32637e-19)
(-0.301403 -0.000557647 -1.30079e-18)
(-0.301844 -0.000266083 -5.31946e-19)
(-0.302091 6.97978e-05 3.5597e-19)
(-0.302126 0.00043378 -2.42742e-18)
(-0.301934 0.000819172 -1.70728e-18)
(-0.301507 0.00121586 -2.81097e-18)
(-0.300843 0.00161625 -2.66196e-18)
(-0.299944 0.00201391 1.17756e-18)
(-0.298813 0.00240342 -3.16349e-18)
(-0.297457 0.0027803 -2.07699e-18)
(-0.295886 0.00314072 -3.69466e-18)
(-0.294109 0.00348141 -4.33727e-18)
(-0.292139 0.00379953 -2.14284e-18)
(-0.289991 0.00409254 1.20364e-17)
(-0.287678 0.00435824 -1.90368e-18)
(-0.285218 0.00459465 -2.77781e-18)
(-0.282627 0.0048001 -8.98074e-20)
(-0.279924 0.00497323 -3.37337e-18)
(-0.277128 0.00511299 -4.86191e-18)
(-0.274257 0.00521875 2.86389e-18)
(-0.271331 0.00529024 -5.33005e-18)
(-0.268369 0.00532764 -5.69744e-18)
(-0.265391 0.00533158 -2.97006e-18)
(-0.262415 0.00530304 2.76426e-18)
(-0.259458 0.0052434 -2.77714e-18)
(-0.256539 0.00515436 -1.01817e-18)
(-0.253672 0.00503791 2.84614e-19)
(-0.250873 0.00489631 -3.28709e-18)
(-0.248155 0.00473201 -4.2237e-18)
(-0.245529 0.00454764 2.58203e-18)
(-0.243005 0.0043459 -2.48611e-18)
(-0.240594 0.00412956 1.73422e-19)
(-0.238301 0.00390143 -1.43181e-19)
(-0.236132 0.00366429 1.54128e-18)
(-0.23409 0.0034209 1.35066e-18)
(-0.23218 0.00317392 1.6839e-18)
(-0.2304 0.00292591 -3.22701e-18)
(-0.228751 0.00267931 -3.86073e-19)
(-0.22723 0.00243637 -1.7507e-18)
(-0.225835 0.00219916 9.13077e-19)
(-0.224561 0.00196955 5.62675e-19)
(-0.223403 0.00174915 4.21454e-18)
(-0.222354 0.00153936 9.34401e-19)
(-0.221409 0.00134135 -8.75516e-19)
(-0.22056 0.00115602 3.64989e-18)
(-0.219798 0.000984065 1.02016e-17)
(-0.219117 0.000825962 -4.86857e-18)
(-0.218507 0.000682 1.6471e-18)
(-0.217961 0.000552309 5.96166e-18)
(-0.21747 0.000436888 1.3393e-18)
(-0.217026 0.00033563 1.01697e-18)
(-0.21662 0.000248375 1.49023e-18)
(-0.216245 0.00017488 -1.39452e-17)
(-0.215892 0.000114827 -9.91251e-19)
(-0.215554 6.8979e-05 6.95641e-20)
(-0.215222 3.87322e-05 -7.7966e-18)
(-0.214889 1.65111e-05 9.21361e-19)
(-0.214548 7.30455e-06 1.52169e-18)
(-0.214192 1.20181e-05 3.43393e-18)
(-0.213811 3.11882e-05 1.42395e-18)
(-0.213396 6.23195e-05 6.52032e-19)
(-0.212941 0.000104529 6.12255e-19)
(-0.212438 0.000162463 6.8414e-19)
(-0.211876 0.000240798 5.55224e-18)
(-0.211245 0.000335792 1.97542e-18)
(-0.210536 0.000450508 1.48759e-18)
(-0.209736 0.00058726 5.85476e-18)
(-0.208833 0.000748673 -2.3682e-18)
(-0.207813 0.000938061 1.56074e-19)
(-0.20666 0.00115938 8.86613e-19)
(-0.205355 0.00141739 -4.75487e-18)
(-0.20388 0.00171793 -2.91599e-18)
(-0.202209 0.00206815 -6.03281e-18)
(-0.200316 0.00247687 3.95082e-19)
(-0.19817 0.00295501 -2.29167e-18)
(-0.195735 0.0035163 3.13781e-18)
(-0.192967 0.00417796 -2.08068e-18)
(-0.189817 0.0049624 -2.35418e-17)
(-0.186223 0.00589785 -5.54026e-18)
(-0.182116 0.0070238 -2.11523e-18)
(-0.1774 0.00838931 -1.3399e-17)
(-0.171988 0.0100658 -7.73788e-18)
(-0.165708 0.0121461 1.85279e-18)
(-0.158494 0.0147654 -1.59782e-17)
(-0.149935 0.0181214 -1.90503e-18)
(-0.140254 0.0223986 7.77414e-19)
(-0.12811 0.028177 1.8518e-17)
(-0.115227 0.0349122 1.98786e-17)
(-0.0970397 0.0448401 2.36894e-18)
(-0.0788862 0.0512402 -1.10121e-17)
(-0.0512526 0.0584673 -3.0304e-18)
(-0.0152686 0.0356118 -8.17016e-18)
(-0.304552 -5.44525e-05 9.2965e-20)
(-0.30469 -0.000204354 -6.39363e-19)
(-0.304998 -0.000436401 -8.21145e-20)
(-0.305528 -0.000629016 -1.07268e-19)
(-0.306185 -0.000747263 8.9002e-19)
(-0.3069 -0.00078005 1.64774e-18)
(-0.307605 -0.000728637 8.16703e-19)
(-0.308237 -0.000602714 3.19389e-19)
(-0.308748 -0.000414898 2.89717e-19)
(-0.309097 -0.000178382 -8.46351e-19)
(-0.309258 9.40684e-05 8.88404e-19)
(-0.309208 0.000390965 -1.6268e-18)
(-0.308932 0.000705618 -7.17706e-19)
(-0.308421 0.00102989 -3.3985e-19)
(-0.307674 0.00135756 1.41959e-19)
(-0.30669 0.00168326 1.91962e-18)
(-0.305474 0.00200253 -2.45209e-18)
(-0.304031 0.0023116 1.90756e-18)
(-0.302371 0.00260732 -2.51427e-18)
(-0.300505 0.00288696 -2.7192e-18)
(-0.298444 0.00314815 -2.77843e-18)
(-0.296203 0.00338881 1.30499e-17)
(-0.293798 0.00360708 -2.5904e-18)
(-0.291244 0.00380135 -3.13138e-19)
(-0.288559 0.00397023 3.12136e-19)
(-0.285762 0.00411258 -2.77218e-18)
(-0.282871 0.00422752 -2.20423e-18)
(-0.279906 0.00431451 5.28788e-19)
(-0.276887 0.0043733 -5.42564e-18)
(-0.273833 0.00440401 -4.44182e-18)
(-0.270764 0.00440714 4.68096e-19)
(-0.267698 0.00438347 1.18839e-18)
(-0.264655 0.00433411 -6.34119e-19)
(-0.26165 0.00426045 -9.47467e-19)
(-0.258702 0.00416409 5.88302e-20)
(-0.255824 0.00404691 -1.40258e-18)
(-0.253031 0.00391091 -1.99304e-18)
(-0.250334 0.00375825 1.02179e-19)
(-0.247745 0.00359112 -8.73239e-19)
(-0.245273 0.00341183 2.8829e-19)
(-0.242924 0.00322265 -2.92776e-19)
(-0.240706 0.00302587 3.34409e-18)
(-0.238622 0.00282376 2.29439e-18)
(-0.236676 0.00261849 3.74346e-18)
(-0.234867 0.00241216 -8.00977e-19)
(-0.233197 0.00220679 -1.15225e-19)
(-0.231664 0.00200422 -3.69936e-18)
(-0.230264 0.00180617 2.4947e-18)
(-0.228994 0.00161417 1.14386e-18)
(-0.227849 0.00142957 1.66317e-18)
(-0.226822 0.00125353 9.77347e-19)
(-0.225909 0.00108702 -3.79874e-18)
(-0.2251 0.000930804 2.16633e-18)
(-0.224389 0.000785464 5.58703e-18)
(-0.223767 0.000651409 -3.3315e-18)
(-0.223226 0.000528888 5.2332e-18)
(-0.222759 0.000418018 4.93926e-18)
(-0.222356 0.000318801 1.73958e-18)
(-0.22201 0.000231126 1.21295e-18)
(-0.221712 0.000154777 2.41832e-18)
(-0.221453 8.93858e-05 -1.28078e-17)
(-0.221226 3.58357e-05 1.00792e-18)
(-0.221023 -5.11447e-06 -3.2297e-19)
(-0.220837 -3.66002e-05 -4.45738e-18)
(-0.220661 -6.17527e-05 4.59819e-18)
(-0.220483 -7.47793e-05 2.96074e-18)
(-0.220299 -7.53467e-05 7.31506e-18)
(-0.2201 -6.34145e-05 1.68377e-18)
(-0.21988 -4.14175e-05 6.55745e-19)
(-0.219627 -9.00123e-06 1.59221e-18)
(-0.219331 3.62888e-05 7.67824e-19)
(-0.218986 8.89241e-05 3.76664e-18)
(-0.218583 0.000161778 4.51412e-18)
(-0.21811 0.000251011 3.10836e-18)
(-0.217554 0.000358308 3.48534e-18)
(-0.216904 0.000485759 -7.09216e-18)
(-0.216143 0.000636052 -8.33929e-19)
(-0.215257 0.000812472 -2.31549e-18)
(-0.214227 0.00101899 -9.80025e-18)
(-0.21303 0.00126045 -5.41861e-18)
(-0.211643 0.00154279 -1.05818e-17)
(-0.210037 0.00187335 -5.80193e-19)
(-0.208179 0.00226123 6.72349e-19)
(-0.206029 0.00271787 -4.40726e-18)
(-0.20354 0.00325766 -1.71867e-18)
(-0.200658 0.00389942 -2.23798e-17)
(-0.197314 0.00466685 -6.15223e-18)
(-0.193429 0.00559315 -1.88682e-18)
(-0.188894 0.00672007 -6.72574e-18)
(-0.183605 0.00810802 -8.0813e-18)
(-0.177357 0.00983757 8.18019e-18)
(-0.170053 0.0120219 -6.7918e-18)
(-0.161209 0.0148429 9.09392e-20)
(-0.150978 0.0184378 1.97783e-18)
(-0.137891 0.0233658 2.88312e-17)
(-0.123389 0.0290726 1.76424e-17)
(-0.103062 0.0376321 1.76817e-18)
(-0.081326 0.0432494 -1.3333e-17)
(-0.0507986 0.0492186 -2.61171e-18)
(-0.0142424 0.0310359 -1.12743e-17)
(-0.311061 -3.63004e-05 1.01517e-19)
(-0.311162 -0.000145175 -5.44821e-19)
(-0.311416 -0.000316848 5.38526e-19)
(-0.311866 -0.000461447 -1.05365e-19)
(-0.312435 -0.000551515 1.30983e-18)
(-0.313062 -0.000577138 5.47188e-19)
(-0.313681 -0.000538317 1.05584e-18)
(-0.314231 -0.000441862 3.67237e-19)
(-0.314664 -0.00029713 2.00616e-18)
(-0.31494 -0.000113981 -1.71005e-18)
(-0.31503 9.62188e-05 2.08289e-18)
(-0.314912 0.000326108 -2.27228e-18)
(-0.314568 0.000570116 2.75918e-19)
(-0.31399 0.000821966 2.13491e-18)
(-0.313175 0.00107674 3.34343e-18)
(-0.312124 0.00133023 3.73385e-18)
(-0.310838 0.00157889 1.87028e-18)
(-0.309326 0.00181975 1.7501e-18)
(-0.307595 0.00205032 2.1969e-18)
(-0.305657 0.00226845 -2.49043e-18)
(-0.303523 0.00247226 -3.67368e-18)
(-0.301208 0.00266013 1.0866e-17)
(-0.298728 0.00283058 -2.08121e-18)
(-0.296098 0.00298236 2.50004e-18)
(-0.293338 0.00311436 9.7595e-19)
(-0.290464 0.00322568 -4.37401e-18)
(-0.287497 0.00331564 -3.96047e-19)
(-0.284456 0.00338377 -1.17628e-18)
(-0.281361 0.00342986 -3.24091e-18)
(-0.278232 0.00345397 -5.0056e-18)
(-0.275089 0.00345645 -1.19215e-18)
(-0.271951 0.00343794 3.22056e-19)
(-0.268836 0.00339928 7.68217e-19)
(-0.265763 0.00334152 -1.43135e-18)
(-0.262747 0.00326592 -1.8663e-20)
(-0.259805 0.00317393 -5.7184e-19)
(-0.25695 0.00306715 -9.04966e-19)
(-0.254195 0.00294724 -1.92935e-18)
(-0.251552 0.00281595 1.99192e-19)
(-0.249029 0.00267504 7.23453e-19)
(-0.246634 0.0025263 -5.73639e-19)
(-0.244375 0.00237151 7.89325e-19)
(-0.242254 0.00221244 4.30296e-18)
(-0.240277 0.00205078 9.00286e-19)
(-0.238443 0.00188819 3.03794e-19)
(-0.236754 0.00172622 3.19176e-19)
(-0.235208 0.00156634 -7.97298e-18)
(-0.233802 0.00140987 -6.09911e-19)
(-0.232533 0.00125804 2.11106e-18)
(-0.231396 0.00111191 -1.5849e-19)
(-0.230385 0.000972405 1.22406e-18)
(-0.229494 0.000840284 -9.56072e-18)
(-0.228715 0.00071617 3.13965e-18)
(-0.228041 0.000600535 4.34763e-18)
(-0.227465 0.00049372 -4.97759e-18)
(-0.226977 0.000395946 4.59679e-18)
(-0.226571 0.000307332 6.51122e-18)
(-0.226236 0.000227922 2.26355e-18)
(-0.225966 0.0001577 1.98332e-18)
(-0.225751 9.66563e-05 4.1505e-18)
(-0.225584 4.48332e-05 -1.14566e-17)
(-0.225455 1.90226e-06 -3.55741e-18)
(-0.225359 -3.87281e-05 -8.78416e-19)
(-0.225287 -7.26235e-05 -4.31184e-18)
(-0.22523 -9.38307e-05 1.25361e-18)
(-0.225181 -0.0001064 5.81512e-18)
(-0.225132 -0.000110808 3.7723e-18)
(-0.225076 -0.000106428 1.21499e-18)
(-0.225003 -9.07447e-05 7.33671e-19)
(-0.224907 -6.2837e-05 3.65356e-18)
(-0.22478 -2.52091e-05 8.28952e-19)
(-0.224608 2.00619e-05 4.7577e-18)
(-0.224382 6.98262e-05 9.49401e-18)
(-0.224093 0.000134547 6.0574e-18)
(-0.22373 0.000213239 3.18756e-18)
(-0.223278 0.000307633 -3.14255e-18)
(-0.222723 0.000420018 -5.67436e-19)
(-0.222048 0.000552896 -7.10244e-18)
(-0.221233 0.0007093 -5.53745e-18)
(-0.220257 0.000892983 -9.66696e-18)
(-0.219094 0.00110857 -2.17537e-17)
(-0.217714 0.0013618 -1.57097e-19)
(-0.216083 0.00165981 4.14118e-18)
(-0.214158 0.00201161 2.76295e-18)
(-0.21189 0.00242852 -1.91279e-18)
(-0.20922 0.00292541 -1.88863e-17)
(-0.206074 0.00352104 -6.27101e-18)
(-0.202367 0.00424167 -1.51187e-18)
(-0.197976 0.00512072 -5.11059e-18)
(-0.192786 0.006206 -1.32163e-17)
(-0.186565 0.0075634 1.74838e-18)
(-0.179194 0.00928098 -4.68854e-18)
(-0.170127 0.0115157 3.18367e-18)
(-0.159463 0.0143596 3.62213e-18)
(-0.145631 0.0183093 1.8743e-17)
(-0.129831 0.0228505 2.20702e-17)
(-0.107791 0.0297824 9.82006e-19)
(-0.0832153 0.0344318 -5.669e-18)
(-0.0502489 0.0392638 -1.29029e-18)
(-0.0134483 0.0257563 -4.10851e-18)
(-0.315956 -2.30188e-05 1.64352e-19)
(-0.316032 -9.69387e-05 -2.21853e-19)
(-0.316248 -0.00021498 6.57203e-19)
(-0.316642 -0.000315516 -1.61147e-19)
(-0.317147 -0.000378841 8.99112e-19)
(-0.317709 -0.000397244 -4.94493e-19)
(-0.318263 -0.00037022 1.88602e-18)
(-0.318752 -0.000302255 5.82605e-19)
(-0.319126 -0.000199855 1.35662e-18)
(-0.319347 -6.98986e-05 -3.32668e-19)
(-0.319384 7.93057e-05 8.88798e-19)
(-0.319214 0.000243174 -5.84925e-19)
(-0.318818 0.000417227 2.22835e-18)
(-0.31819 0.000596994 1.34114e-18)
(-0.317325 0.00077898 3.16003e-18)
(-0.316222 0.00096016 1.92534e-18)
(-0.314885 0.00113798 8.59078e-19)
(-0.31332 0.00131032 2.59161e-18)
(-0.311536 0.00147536 1.7331e-18)
(-0.309543 0.00163155 -4.75714e-18)
(-0.307354 0.00177756 -5.57431e-18)
(-0.304984 0.0019122 4.33136e-18)
(-0.302447 0.00203443 8.75195e-19)
(-0.29976 0.00214334 1.18915e-18)
(-0.296942 0.00223814 1.22096e-18)
(-0.294011 0.00231817 -2.7257e-18)
(-0.290986 0.00238295 -4.34138e-18)
(-0.287887 0.00243212 -3.94034e-18)
(-0.284735 0.00246548 -3.23835e-18)
(-0.281549 0.00248301 -1.60435e-18)
(-0.27835 0.00248495 -2.46233e-18)
(-0.275156 0.00247175 8.73992e-20)
(-0.271987 0.00244402 -3.90623e-18)
(-0.268861 0.0024025 -3.02455e-18)
(-0.265794 0.00234805 2.3715e-19)
(-0.262803 0.00228179 -9.65391e-20)
(-0.259901 0.00220489 -3.53947e-19)
(-0.257102 0.00211855 -4.96113e-18)
(-0.254416 0.00202402 -4.82931e-18)
(-0.251854 0.00192255 1.48473e-18)
(-0.249423 0.00181543 -1.36508e-18)
(-0.247131 0.00170391 -9.9222e-19)
(-0.244983 0.00158925 2.27312e-18)
(-0.242981 0.00147267 -2.19074e-18)
(-0.241127 0.00135534 1.22424e-18)
(-0.239422 0.00123836 6.46558e-19)
(-0.237865 0.00112279 -3.56846e-18)
(-0.236453 0.00100957 -2.19714e-18)
(-0.235184 0.00089958 -2.77946e-18)
(-0.234051 0.000793575 -2.35128e-18)
(-0.23305 0.000692217 2.13466e-18)
(-0.232174 0.000596058 -6.43303e-18)
(-0.231416 0.000505544 8.63798e-19)
(-0.230769 0.000421018 -3.08993e-18)
(-0.230225 0.00034273 -2.72623e-18)
(-0.229775 0.000270844 -4.41387e-20)
(-0.229412 0.000205455 2.65625e-18)
(-0.229127 0.000146612 3.075e-18)
(-0.228912 9.43213e-05 4.06691e-18)
(-0.228758 4.85445e-05 -1.49815e-18)
(-0.228657 9.16368e-06 -9.26224e-18)
(-0.228603 -2.51046e-05 -8.20353e-18)
(-0.228585 -5.65034e-05 -1.49399e-18)
(-0.228596 -7.96539e-05 -6.79042e-18)
(-0.228628 -9.74641e-05 -1.57468e-19)
(-0.228674 -0.00010914 1.28161e-18)
(-0.228725 -0.000114157 1.72137e-18)
(-0.228774 -0.000112564 6.99221e-19)
(-0.228813 -0.000104855 1.20002e-18)
(-0.228833 -9.07914e-05 8.54278e-18)
(-0.228824 -6.82352e-05 3.36714e-19)
(-0.228782 -3.32066e-05 9.457e-18)
(-0.228691 1.74755e-06 6.75862e-18)
(-0.228539 4.31469e-05 1.14716e-17)
(-0.228318 9.68941e-05 3.92995e-18)
(-0.228014 0.000162314 -2.19445e-18)
(-0.22761 0.000240561 -6.91856e-19)
(-0.227091 0.000333418 -1.70297e-18)
(-0.226436 0.000443072 -3.75977e-18)
(-0.225624 0.000572218 -3.53775e-18)
(-0.224627 0.000724174 -1.27415e-17)
(-0.223415 0.000903054 4.924e-18)
(-0.221952 0.00111398 1.10474e-17)
(-0.220196 0.00136342 1.07248e-17)
(-0.218092 0.00165952 -4.25019e-18)
(-0.215582 0.00201298 -2.9455e-17)
(-0.212584 0.00243732 -6.9198e-18)
(-0.209011 0.00295143 -1.82182e-18)
(-0.204731 0.00357964 -6.49806e-18)
(-0.199618 0.0043562 -6.88885e-18)
(-0.193423 0.00533021 -1.83097e-19)
(-0.186007 0.00656334 -6.64137e-18)
(-0.176782 0.00817971 9.58545e-18)
(-0.165805 0.0102288 6.32993e-18)
(-0.15143 0.0131047 2.20201e-17)
(-0.13467 0.0163872 1.90078e-17)
(-0.111347 0.0214882 -2.14734e-18)
(-0.08465 0.0249939 -2.89173e-18)
(-0.0497066 0.0286768 -5.8059e-19)
(-0.0127852 0.0196907 -1.89005e-18)
(-0.319225 -1.26908e-05 1.73532e-19)
(-0.319288 -5.55286e-05 -4.55473e-20)
(-0.31948 -0.000124596 2.83429e-19)
(-0.319837 -0.000183837 -4.97873e-19)
(-0.320301 -0.000221362 1.12531e-18)
(-0.320819 -0.000232283 3.03241e-19)
(-0.321331 -0.000216071 1.53518e-18)
(-0.321778 -0.000175232 7.88969e-19)
(-0.322114 -0.000113549 1.49291e-18)
(-0.322297 -3.49841e-05 5.55298e-19)
(-0.322299 5.39112e-05 3.5658e-19)
(-0.322094 0.000151292 6.49715e-19)
(-0.321664 0.000254948 1.08931e-18)
(-0.321002 0.000362195 1.00338e-18)
(-0.320103 0.000470913 -4.21038e-19)
(-0.318966 0.000579271 6.20999e-19)
(-0.317595 0.000685724 2.34197e-19)
(-0.315995 0.000788983 4.86529e-18)
(-0.314175 0.000887956 1.50005e-18)
(-0.312146 0.00098171 -4.86539e-18)
(-0.309921 0.00106944 -3.43033e-18)
(-0.307513 0.00115042 2.36621e-18)
(-0.304938 0.00122404 3.43925e-18)
(-0.302213 0.00128974 5.29121e-19)