/*--------------------------------*- C++ -*----------------------------------*\
  =========                 |
  \\      /  F ield         | OpenFOAM: The Open Source CFD Toolbox
   \\    /   O peration     | Website:  https://openfoam.org
    \\  /    A nd           | Version:  7
     \\/     M anipulation  |
\*---------------------------------------------------------------------------*/
FoamFile
{
    version     2.0;
    format      ascii;
    class       volScalarField;
    location    "116";
    object      p;
}
// * * * * * * * * * * * * * * * * * * * * * * * * * * * * * * * * * * * * * //

dimensions      [0 2 -2 0 0 0 0];

internalField   nonuniform List<scalar> 
8000
(
-0.000639501
-0.00218003
-0.00370186
-0.00534511
-0.00700696
-0.00865356
-0.0102593
-0.0118021
-0.0132672
-0.0146458
-0.0159227
-0.017105
-0.0181878
-0.0191716
-0.020059
-0.0208538
-0.0215607
-0.0221852
-0.0227332
-0.023211
-0.023625
-0.0239818
-0.024288
-0.0245503
-0.024775
-0.0249685
-0.0251368
-0.025286
-0.0254216
-0.0255487
-0.0256724
-0.025797
-0.0259267
-0.0260651
-0.0262155
-0.0263808
-0.0265633
-0.0267655
-0.026989
-0.0272357
-0.0275069
-0.0278038
-0.0281274
-0.0284789
-0.0288591
-0.0292689
-0.0297089
-0.0301801
-0.0306832
-0.0312189
-0.031788
-0.0323912
-0.0330292
-0.0337028
-0.0344126
-0.035159
-0.0359427
-0.0367637
-0.0376224
-0.0385188
-0.0394532
-0.0404242
-0.0414358
-0.0424857
-0.0435703
-0.0446873
-0.0458354
-0.0470143
-0.0482234
-0.0494635
-0.0507347
-0.0520302
-0.0533476
-0.0546863
-0.056044
-0.0574181
-0.058806
-0.0602053
-0.0616128
-0.0630249
-0.0644373
-0.0658453
-0.0672429
-0.0686229
-0.0699764
-0.0712926
-0.0725582
-0.0737572
-0.0748706
-0.075874
-0.0767471
-0.0774491
-0.0779895
-0.0782444
-0.0785093
-0.0780168
-0.0792263
-0.0771618
-0.084687
-0.0810694
-0.000670536
-0.00219712
-0.00371757
-0.00534352
-0.00698655
-0.00861701
-0.0102094
-0.011742
-0.0131992
-0.0145677
-0.0158499
-0.0170333
-0.0181181
-0.0191051
-0.0199964
-0.0207956
-0.0215072
-0.0221365
-0.0226891
-0.0231712
-0.0235893
-0.0239498
-0.0242593
-0.0245243
-0.0247514
-0.0249468
-0.0251167
-0.0252669
-0.0254032
-0.0255308
-0.0256547
-0.0257793
-0.0259089
-0.0260471
-0.0261973
-0.0263623
-0.0265448
-0.0267469
-0.0269706
-0.0272177
-0.0274894
-0.0277871
-0.0281117
-0.0284644
-0.0288458
-0.029257
-0.0296984
-0.0301709
-0.0306752
-0.0312119
-0.0317817
-0.0323852
-0.033023
-0.0336957
-0.0344039
-0.0351481
-0.0359285
-0.0367453
-0.0375986
-0.0384881
-0.0394124
-0.0403838
-0.0413804
-0.0424127
-0.0434825
-0.0445902
-0.0457347
-0.0469144
-0.0481277
-0.0493669
-0.0506225
-0.051907
-0.0532219
-0.0545561
-0.0559093
-0.0572797
-0.0586644
-0.0600615
-0.0614674
-0.0628786
-0.0642906
-0.0656986
-0.0670965
-0.0684768
-0.0698304
-0.0711461
-0.0724104
-0.0736063
-0.0747146
-0.0757087
-0.076568
-0.0772444
-0.0777516
-0.0779464
-0.0781487
-0.0775337
-0.0784708
-0.0762674
-0.0820185
-0.0794773
-0.00069383
-0.00220936
-0.00373051
-0.00534029
-0.00696674
-0.00858257
-0.0101629
-0.0116864
-0.0131377
-0.0145063
-0.0157841
-0.016967
-0.0180533
-0.019043
-0.0199379
-0.0207412
-0.0214572
-0.0220909
-0.0226479
-0.0231342
-0.0235562
-0.0239201
-0.0242326
-0.0245002
-0.0247294
-0.0249264
-0.0250974
-0.0252484
-0.0253851
-0.0255128
-0.0256364
-0.0257607
-0.0258897
-0.0260273
-0.0261768
-0.0263412
-0.0265232
-0.026725
-0.0269485
-0.0271957
-0.0274678
-0.027766
-0.0280915
-0.0284452
-0.028828
-0.0292407
-0.0296837
-0.0301579
-0.0306639
-0.0312022
-0.0317735
-0.0323782
-0.033017
-0.0336903
-0.0343988
-0.0351427
-0.0359224
-0.0367381
-0.0375897
-0.0384771
-0.0394032
-0.0403529
-0.0413519
-0.0423868
-0.0434551
-0.0445557
-0.0456876
-0.0468495
-0.0480403
-0.0492655
-0.0505326
-0.0518195
-0.0531142
-0.0544395
-0.0557853
-0.0571488
-0.0585271
-0.0599186
-0.06132
-0.0627272
-0.0641358
-0.0655408
-0.0669357
-0.0683131
-0.0696636
-0.0709757
-0.0722357
-0.0734262
-0.0745277
-0.0755121
-0.0763595
-0.0770157
-0.0774992
-0.0776425
-0.0777802
-0.077052
-0.077715
-0.0754262
-0.0796764
-0.0777662
-0.000710726
-0.00221998
-0.00374122
-0.00533716
-0.00694894
-0.00855148
-0.0101207
-0.0116361
-0.0130835
-0.0144463
-0.0157232
-0.0169067
-0.0179948
-0.0189873
-0.0198857
-0.020693
-0.0214131
-0.0220511
-0.0226122
-0.0231024
-0.0235279
-0.023895
-0.0242101
-0.02448
-0.0247108
-0.0249091
-0.025081
-0.0252324
-0.0253692
-0.0254966
-0.0256197
-0.0257433
-0.0258715
-0.0260082
-0.0261569
-0.0263205
-0.0265019
-0.0267032
-0.0269265
-0.0271737
-0.0274461
-0.0277449
-0.0280712
-0.028426
-0.0288101
-0.0292242
-0.0296689
-0.0301447
-0.0306523
-0.0311921
-0.0317647
-0.0323705
-0.03301
-0.0336835
-0.0343915
-0.0351344
-0.0359123
-0.0367249
-0.0375728
-0.0384593
-0.0393673
-0.0403265
-0.0413178
-0.0423416
-0.0433996
-0.0444917
-0.045617
-0.0467748
-0.0479638
-0.0491801
-0.0504184
-0.0516888
-0.0530028
-0.0543167
-0.0556546
-0.0570122
-0.0583859
-0.0597733
-0.0611712
-0.0625755
-0.0639816
-0.0653843
-0.0667772
-0.0681523
-0.0695001
-0.0708089
-0.0720646
-0.073249
-0.0743425
-0.0753153
-0.0761476
-0.0767797
-0.0772343
-0.0773237
-0.0773872
-0.0765514
-0.0769363
-0.0746078
-0.0776416
-0.0759665
-0.00072275
-0.00222824
-0.00374908
-0.00533319
-0.00693215
-0.00852287
-0.0100821
-0.0115895
-0.013028
-0.0143926
-0.0156686
-0.0168528
-0.0179427
-0.018938
-0.0198398
-0.0206509
-0.0213751
-0.022017
-0.022582
-0.0230758
-0.0235046
-0.0238745
-0.024192
-0.0244637
-0.0246959
-0.0248951
-0.0250675
-0.025219
-0.0253554
-0.0254823
-0.0256046
-0.0257271
-0.0258542
-0.0259898
-0.0261373
-0.0262999
-0.0264803
-0.0266809
-0.0269037
-0.0271508
-0.0274232
-0.0277223
-0.0280493
-0.0284049
-0.0287901
-0.0292056
-0.0296516
-0.030129
-0.030638
-0.0311792
-0.031753
-0.0323598
-0.0329998
-0.0336736
-0.0343813
-0.0351234
-0.0359
-0.0367111
-0.0375551
-0.0384269
-0.0393515
-0.0402983
-0.0412816
-0.0422998
-0.0433514
-0.0444359
-0.0455523
-0.0466998
-0.0478776
-0.0490858
-0.0503248
-0.051588
-0.0528679
-0.0541941
-0.0555261
-0.0568779
-0.0582442
-0.0596262
-0.0610198
-0.0624205
-0.0638239
-0.0652244
-0.0666154
-0.0679888
-0.0693349
-0.0706415
-0.0718942
-0.0730743
-0.074162
-0.0751254
-0.0759451
-0.0765553
-0.076982
-0.0770211
-0.0770136
-0.0760842
-0.0762055
-0.073843
-0.0758968
-0.074221
-0.000731069
-0.00223404
-0.00375407
-0.00532816
-0.00691616
-0.0084967
-0.0100475
-0.0115499
-0.0129852
-0.0143455
-0.0156207
-0.0168057
-0.0178976
-0.0188956
-0.0198008
-0.0206155
-0.0213435
-0.0219893
-0.0225578
-0.023055
-0.0234866
-0.023859
-0.0241785
-0.0244517
-0.024685
-0.0248847
-0.0250571
-0.0252082
-0.025344
-0.0254698
-0.0255909
-0.025712
-0.0258376
-0.0259716
-0.0261177
-0.0262789
-0.0264582
-0.0266577
-0.0268798
-0.0271264
-0.0273986
-0.0276979
-0.0280253
-0.0283816
-0.0287677
-0.0291844
-0.0296318
-0.0301105
-0.030621
-0.0311636
-0.0317385
-0.0323463
-0.032987
-0.0336609
-0.0343683
-0.0351094
-0.0358842
-0.0366922
-0.0375353
-0.0384086
-0.0393186
-0.0402638
-0.0412422
-0.0422534
-0.0432973
-0.0443737
-0.0454819
-0.0466214
-0.0477912
-0.0489902
-0.0502168
-0.0514714
-0.0527535
-0.054052
-0.0553883
-0.0567292
-0.058093
-0.0594716
-0.0608627
-0.0622615
-0.0636632
-0.0650623
-0.0664523
-0.0678248
-0.0691701
-0.0704757
-0.071727
-0.0729048
-0.073989
-0.0749464
-0.0757577
-0.0763518
-0.0767572
-0.0767565
-0.0766886
-0.0756857
-0.0755732
-0.0731783
-0.0744492
-0.0725757
-0.00073652
-0.00223749
-0.00375626
-0.00532202
-0.00690089
-0.00847284
-0.010017
-0.0115115
-0.0129455
-0.0143047
-0.0155798
-0.016766
-0.01786
-0.0188609
-0.0197693
-0.0205875
-0.0213191
-0.0219683
-0.0225402
-0.0230403
-0.0234745
-0.023849
-0.0241701
-0.0244444
-0.0246782
-0.024878
-0.02505
-0.0252004
-0.0253349
-0.0254593
-0.0255787
-0.0256981
-0.0258218
-0.0259539
-0.0260981
-0.0262577
-0.0264353
-0.0266336
-0.0268545
-0.0271005
-0.0273724
-0.0276715
-0.0279991
-0.028356
-0.0287429
-0.0291607
-0.0296093
-0.0300893
-0.0306011
-0.0311449
-0.0317211
-0.0323298
-0.0329712
-0.0336455
-0.0343528
-0.0350935
-0.0358678
-0.0366754
-0.0375095
-0.0383853
-0.0392928
-0.0402309
-0.0412023
-0.0422067
-0.0432434
-0.0443119
-0.0454119
-0.0465427
-0.0477037
-0.0488942
-0.0501137
-0.0513603
-0.0526323
-0.0539317
-0.0552499
-0.0566102
-0.0579578
-0.0593293
-0.0607141
-0.0621075
-0.0635057
-0.0649026
-0.0662913
-0.0676633
-0.0690084
-0.070314
-0.0715655
-0.072743
-0.0738267
-0.0747819
-0.07559
-0.0761755
-0.0765696
-0.0765431
-0.0764312
-0.0753768
-0.0750737
-0.0726459
-0.0733061
-0.0710824
-0.000739684
-0.00223853
-0.00375549
-0.00531451
-0.00688655
-0.00845273
-0.00998956
-0.0114816
-0.0129131
-0.0142711
-0.0155466
-0.0167343
-0.0178305
-0.0188342
-0.0197458
-0.0205674
-0.0213023
-0.0219548
-0.0225296
-0.0230323
-0.0234687
-0.0238449
-0.0241672
-0.0244421
-0.024676
-0.0248754
-0.0250466
-0.0251957
-0.0253287
-0.0254512
-0.0255685
-0.0256855
-0.0258069
-0.0259367
-0.0260788
-0.0262362
-0.0264121
-0.0266087
-0.0268282
-0.0270733
-0.0273445
-0.0276434
-0.027971
-0.0283282
-0.0287157
-0.0291345
-0.0295841
-0.0300653
-0.0305783
-0.0311234
-0.0317005
-0.03231
-0.0329517
-0.0336259
-0.0343324
-0.0350714
-0.035843
-0.036646
-0.0374806
-0.0383513
-0.0392545
-0.040189
-0.0411554
-0.0421535
-0.043183
-0.0442438
-0.0453355
-0.0464576
-0.0476095
-0.0487907
-0.0500002
-0.0512371
-0.0525002
-0.0537873
-0.0550975
-0.0564187
-0.0577846
-0.0591515
-0.0605378
-0.0619339
-0.0633336
-0.0647317
-0.0661219
-0.0674957
-0.0688432
-0.0701517
-0.0714067
-0.072588
-0.073676
-0.074635
-0.0754476
-0.076034
-0.076429
-0.0763926
-0.0762595
-0.0751783
-0.0747399
-0.0722812
-0.0724832
-0.0698224
-0.00074114
-0.00223827
-0.00375377
-0.00530734
-0.00687243
-0.00843137
-0.00996639
-0.0114568
-0.0128868
-0.0142446
-0.015521
-0.0167106
-0.0178093
-0.0188159
-0.0197305
-0.0205553
-0.0212933
-0.0219487
-0.0225261
-0.0230312
-0.0234694
-0.0238469
-0.0241699
-0.024445
-0.0246786
-0.0248771
-0.025047
-0.0251943
-0.0253252
-0.0254452
-0.0255599
-0.0256742
-0.0257928
-0.0259199
-0.0260593
-0.0262143
-0.0263879
-0.0265826
-0.0268003
-0.0270444
-0.0273147
-0.027613
-0.0279406
-0.028298
-0.0286861
-0.0291058
-0.0295564
-0.0300388
-0.0305532
-0.0310997
-0.0316784
-0.0322893
-0.0329325
-0.0336078
-0.0343154
-0.0350555
-0.0358286
-0.0366344
-0.0374683
-0.0383339
-0.0392304
-0.0401586
-0.0411184
-0.0421097
-0.0431321
-0.0441854
-0.0452693
-0.0463835
-0.0475276
-0.0487011
-0.0499036
-0.0511342
-0.0523918
-0.0536761
-0.0549857
-0.0563221
-0.0576758
-0.0590475
-0.0604209
-0.0618056
-0.0631988
-0.0645936
-0.0659825
-0.0673566
-0.0687057
-0.0700168
-0.0712752
-0.0724608
-0.0735542
-0.0745191
-0.0753394
-0.0759324
-0.0763364
-0.0763072
-0.0761915
-0.0751119
-0.0746157
-0.0721286
-0.0720412
-0.0688821
-0.000740447
-0.00223322
-0.00374446
-0.00529365
-0.00685632
-0.00841408
-0.00994648
-0.0114352
-0.0128649
-0.0142233
-0.0155012
-0.0166932
-0.0177944
-0.0188042
-0.0197219
-0.0205495
-0.0212906
-0.0219487
-0.0225285
-0.0230354
-0.023475
-0.0238534
-0.0241768
-0.0244517
-0.0246845
-0.0248817
-0.0250496
-0.0251947
-0.0253229
-0.02544
-0.0255515
-0.0256625
-0.0257777
-0.0259015
-0.0260376
-0.0261895
-0.0263602
-0.0265522
-0.0267665
-0.0270101
-0.0272791
-0.0275764
-0.0279031
-0.0282602
-0.0286483
-0.0290683
-0.0295194
-0.0300024
-0.0305175
-0.0310643
-0.0316428
-0.0322533
-0.0328956
-0.0335695
-0.0342748
-0.0350116
-0.0357804
-0.0365793
-0.0374099
-0.0382737
-0.0391678
-0.0400919
-0.0410463
-0.042031
-0.0430458
-0.0440906
-0.0451653
-0.0462695
-0.0474031
-0.0485656
-0.0497565
-0.0509751
-0.0522203
-0.053491
-0.0547855
-0.0561005
-0.0574371
-0.0587947
-0.0601806
-0.0615739
-0.0629728
-0.0643718
-0.0657644
-0.0671425
-0.0684964
-0.0698138
-0.0710806
-0.0722766
-0.0733836
-0.0743647
-0.0752064
-0.075822
-0.0762573
-0.0762439
-0.0761481
-0.0750745
-0.0745675
-0.0720229
-0.0717479
-0.0680292
0.0737782
0.0794838
0.0815637
0.0839305
0.0848926
0.0850038
0.083918
0.0815937
0.0777895
0.072291
0.0646703
0.0545659
0.0411491
0.0238092
0.000620523
-0.0297801
-0.0732936
-0.13053
-0.215979
-0.318331
0.0680602
0.0735358
0.0754695
0.0775975
0.0783418
0.0782215
0.0769053
0.0743451
0.0703071
0.0645752
0.0567467
0.0463893
0.0327747
0.0150983
-0.00863143
-0.0402847
-0.086061
-0.145104
-0.210817
-0.259184
0.062585
0.0678809
0.0696613
0.0715541
0.0720332
0.0716139
0.0699516
0.0669918
0.0624875
0.0562024
0.0477219
0.0365636
0.0219345
0.00287322
-0.022666
-0.0561774
-0.102019
-0.156237
-0.200104
-0.251205
0.0573005
0.0624062
0.0640249
0.0656888
0.0659023
0.0651766
0.0631536
0.0597745
0.0547802
0.0479171
0.0387604
0.0267965
0.011195
-0.0090298
-0.035773
-0.0700108
-0.113456
-0.161417
-0.191053
-0.233418
0.0521769
0.0570688
0.0585159
0.059956
0.0599207
0.0589119
0.0565648
0.0528193
0.0474116
0.040082
0.0304092
0.0178706
0.00165356
-0.0191381
-0.0461002
-0.0798569
-0.11937
-0.158591
-0.182168
-0.212312
0.0472149
0.0518764
0.0531446
0.054365
0.0540952
0.0528266
0.0501922
0.046132
0.0403827
0.0326844
0.0226268
0.00969194
-0.00689081
-0.0278546
-0.0543248
-0.0866729
-0.121797
-0.150451
-0.172906
-0.187985
0.0424244
0.0468428
0.0479297
0.0489342
0.0484403
0.0469291
0.0440333
0.0396946
0.0336533
0.0256568
0.0153174
0.00215199
-0.0145372
-0.0352927
-0.0606744
-0.0908029
-0.121948
-0.140734
-0.163005
-0.166387
0.0378128
0.0419731
0.0428801
0.0436724
0.0429643
0.0412248
0.038089
0.0335013
0.0272087
0.018969
0.00841794
-0.00488921
-0.0215732
-0.0419801
-0.0659849
-0.0931415
-0.120035
-0.132141
-0.152208
-0.147838
0.0333866
0.0372597
0.0379976
0.038579
0.0376702
0.0357169
0.0323637
0.0275567
0.0210552
0.012637
0.00198442
-0.0112551
-0.0275346
-0.0469665
-0.0688784
-0.0924591
-0.115447
-0.125312
-0.140787
-0.132502
0.0291545
0.0326916
0.0332867
0.0336504
0.0325544
0.0303962
0.0268424
0.0218372
0.0151577
0.0066006
-0.00412073
-0.0173202
-0.0333806
-0.0523031
-0.0729246
-0.0938223
-0.11352
-0.123613
-0.13611
-0.118621
0.139983
0.148904
0.153247
0.15858
0.162837
0.166686
0.16985
0.17228
0.173803
0.174266
0.173407
0.17104
0.166663
0.160116
0.150171
0.137034
0.118136
0.0971359
0.0696086
0.0566781
0.131922
0.140727
0.144402
0.149257
0.152744
0.155699
0.157773
0.158917
0.15892
0.157595
0.154618
0.149773
0.142512
0.132701
0.118957
0.101783
0.0781986
0.0538373
0.0236377
0.0274303
0.124538
0.133067
0.136376
0.140878
0.143906
0.146364
0.14786
0.14837
0.147679
0.145615
0.141853
0.136187
0.127956
0.117074
0.101903
0.0833314
0.057463
0.0319131
-0.00235744
0.00540646
0.117813
0.125974
0.129115
0.133342
0.136065
0.138201
0.139318
0.139411
0.138247
0.135653
0.131265
0.124867
0.115657
0.103593
0.0867064
0.0663008
0.0373768
0.00979132
-0.0290541
-0.0199317
0.111322
0.119105
0.122104
0.126061
0.12849
0.130301
0.131022
0.130657
0.128947
0.1257
0.120504
0.113131
0.10266
0.0891055
0.0701532
0.0475543
0.0152034
-0.0146678
-0.0568312
-0.0457872
0.104854
0.112273
0.115102
0.118774
0.120893
0.12235
0.122648
0.121794
0.119504
0.115578
0.109562
0.101236
0.0895836
0.0746818
0.0538937
0.0294125
-0.00589581
-0.0377229
-0.0826825
-0.0707153
0.0984113
0.10548
0.108128
0.111511
0.113329
0.114439
0.114338
0.113034
0.110231
0.105727
0.0990395
0.0899669
0.0774107
0.0614732
0.0392354
0.0130835
-0.0250115
-0.0598115
-0.108019
-0.0956549
0.0920567
0.0987814
0.101259
0.104366
0.105912
0.10671
0.106265
0.104585
0.101371
0.0964179
0.0892241
0.0796004
0.0663869
0.0496368
0.0263321
-0.00118443
-0.0410906
-0.0782189
-0.129605
-0.120485
0.0858297
0.0922135
0.0945388
0.0973865
0.0986959
0.0992181
0.0984863
0.0964995
0.0929643
0.0876734
0.0801183
0.0701122
0.0564948
0.0391323
0.0151509
-0.0140512
-0.0560685
-0.0994666
-0.155173
-0.155915
0.0797346
0.0857791
0.0879765
0.0905805
0.0916938
0.0919806
0.0910239
0.0888052
0.0850484
0.0795382
0.0717743
0.0615558
0.0477025
0.0298944
0.00588852
-0.0237472
-0.0644981
-0.107336
-0.161902
-0.149495
0.388697
0.387924
0.389231
0.388195
0.390237
0.388953
0.392289
0.390723
0.39632
0.394546
0.404279
0.402571
0.420281
0.419329
0.453682
0.455094
0.528171
0.537738
0.702381
0.763678
0.388695
0.387925
0.389228
0.388204
0.390235
0.388974
0.392296
0.390777
0.396354
0.394679
0.404389
0.40289
0.420582
0.420102
0.454455
0.457015
0.530187
0.542138
0.707962
0.756451
0.388692
0.387923
0.389222
0.388205
0.390228
0.388982
0.39229
0.390799
0.396355
0.394738
0.404411
0.403036
0.42066
0.420457
0.454654
0.457837
0.530586
0.543264
0.708253
0.743993
0.388688
0.387918
0.389214
0.388207
0.390216
0.388989
0.392275
0.390821
0.396342
0.394798
0.404415
0.40319
0.420714
0.420833
0.454808
0.45867
0.530779
0.543817
0.707338
0.725062
0.388684
0.387912
0.389203
0.388206
0.3902
0.388991
0.392252
0.390833
0.396311
0.394835
0.404378
0.40329
0.420674
0.421074
0.454719
0.459108
0.530204
0.542899
0.703687
0.699938
0.388678
0.387903
0.389189
0.388203
0.390179
0.388989
0.39222
0.390835
0.396263
0.394853
0.404307
0.40335
0.420558
0.421218
0.454442
0.459252
0.529017
0.540784
0.697592
0.668649
0.388672
0.387892
0.389173
0.388199
0.390153
0.388983
0.392178
0.390829
0.396197
0.394852
0.404198
0.403366
0.420361
0.421251
0.453963
0.459069
0.527164
0.537464
0.688852
0.630965
0.388665
0.387878
0.389155
0.388193
0.390123
0.388972
0.392129
0.390814
0.396112
0.394831
0.404052
0.403335
0.420082
0.421169
0.453277
0.458554
0.524646
0.532999
0.677198
0.586467
0.388657
0.38786
0.389136
0.388183
0.39009
0.388956
0.392074
0.390787
0.396016
0.394787
0.403877
0.403254
0.419729
0.420962
0.452387
0.457679
0.521462
0.527401
0.662528
0.534756
0.388648
0.387842
0.389109
0.388171
0.390044
0.388937
0.391997
0.39076
0.395888
0.394742
0.403662
0.403173
0.419324
0.420755
0.451419
0.456762
0.517942
0.521414
0.645643
0.474691
0.388648
0.387842
0.389108
0.38817
0.390044
0.388937
0.391996
0.390759
0.395887
0.394741
0.40366
0.403171
0.419321
0.420752
0.451415
0.456756
0.517936
0.521403
0.645632
0.474659
0.388657
0.387859
0.389136
0.388182
0.39009
0.388956
0.392073
0.390786
0.396015
0.394785
0.403876
0.403252
0.419727
0.42096
0.452383
0.457674
0.521456
0.527391
0.662518
0.534728
0.388665
0.387877
0.389155
0.388192
0.390122
0.388972
0.392128
0.390813
0.396111
0.39483
0.404051
0.403334
0.42008
0.421167
0.453274
0.45855
0.524642
0.532991
0.67719
0.586443
0.388672
0.387891
0.389173
0.388198
0.390152
0.388982
0.392178
0.390829
0.396196
0.394852
0.404197
0.403365
0.42036
0.421249
0.45396
0.459066
0.52716
0.537457
0.688844
0.630945
0.388678
0.387903
0.389189
0.388203
0.390178
0.388988
0.392219
0.390835
0.396262
0.394853
0.404306
0.403349
0.420556
0.421216
0.45444
0.459249
0.529013
0.540778
0.697586
0.668632
0.388684
0.387912
0.389203
0.388206
0.390199
0.38899
0.392252
0.390832
0.396311
0.394834
0.404378
0.403289
0.420672
0.421073
0.454717
0.459105
0.530201
0.542894
0.703683
0.699924
0.388688
0.387918
0.389213
0.388207
0.390216
0.388988
0.392275
0.390821
0.396342
0.394797
0.404414
0.40319
0.420713
0.420832
0.454807
0.458668
0.530777
0.543813
0.707335
0.725051
0.388692
0.387923
0.389222
0.388205
0.390228
0.388981
0.392289
0.390799
0.396355
0.394737
0.404411
0.403036
0.42066
0.420456
0.454653
0.457835
0.530584
0.543261
0.708251
0.743985
0.388695
0.387925
0.389228
0.388204
0.390235
0.388974
0.392296
0.390777
0.396354
0.394679
0.404389
0.40289
0.420582
0.420102
0.454454
0.457014
0.530186
0.542136
0.707961
0.756446
0.388697
0.387924
0.389231
0.388195
0.390237
0.388953
0.392289
0.390722
0.39632
0.394546
0.404279
0.402571
0.420281
0.419328
0.453682
0.455094
0.528171
0.537738
0.702381
0.763676
0.0797149
0.0857571
0.0879529
0.0905547
0.0916657
0.09195
0.0909907
0.0887691
0.0850094
0.0794963
0.0717289
0.0615078
0.0476504
0.0298389
0.00582897
-0.0238117
-0.0645681
-0.107413
-0.161989
-0.14958
0.0858093
0.092191
0.0945147
0.0973603
0.0986675
0.0991873
0.098453
0.0964636
0.0929255
0.0876318
0.0800735
0.0700647
0.0564446
0.0390775
0.0150925
-0.0141144
-0.056137
-0.0995422
-0.155257
-0.155997
0.0920358
0.0987584
0.101234
0.10434
0.105884
0.106679
0.106232
0.10455
0.101332
0.0963768
0.08918
0.0795536
0.0663374
0.049583
0.0262748
-0.00124586
-0.0411576
-0.0782911
-0.129685
-0.120562
0.0983899
0.105457
0.108103
0.111484
0.1133
0.114408
0.114305
0.112999
0.110193
0.105687
0.0989961
0.0899209
0.0773619
0.0614208
0.0391795
0.0130238
-0.0250766
-0.0598811
-0.108096
-0.0957288
0.104832
0.112249
0.115077
0.118747
0.120864
0.122319
0.122615
0.121758
0.119466
0.115538
0.109519
0.101191
0.0895358
0.0746306
0.0538392
0.0293545
-0.00595881
-0.0377898
-0.0827555
-0.0707862
0.1113
0.119081
0.122079
0.126034
0.128461
0.13027
0.130989
0.130623
0.12891
0.125661
0.120462
0.113087
0.102613
0.0890558
0.0701003
0.0474981
0.0151427
-0.0147323
-0.0569011
-0.0458555
0.117791
0.12595
0.129089
0.133314
0.136036
0.138171
0.139285
0.139376
0.138211
0.135614
0.131224
0.124824
0.115612
0.103545
0.0866551
0.0662464
0.0373183
0.00972936
-0.0291209
-0.0199978
0.124515
0.133043
0.13635
0.140851
0.143878
0.146334
0.147828
0.148336
0.147643
0.145577
0.141812
0.136145
0.127911
0.117027
0.101854
0.0832787
0.0574065
0.0318532
-0.00242161
0.00534217
0.131899
0.140702
0.144376
0.14923
0.152716
0.155668
0.157741
0.158883
0.158884
0.157557
0.154579
0.149731
0.142468
0.132655
0.118908
0.101732
0.078144
0.0537792
0.0235758
0.0273671
0.13996
0.148879
0.153222
0.158553
0.162809
0.166656
0.169819
0.172247
0.173768
0.17423
0.173369
0.171
0.166622
0.160072
0.150125
0.136986
0.118085
0.0970813
0.0695503
0.056616
0.0291456
0.0326791
0.0332711
0.0336308
0.0325306
0.0303675
0.0268084
0.0217976
0.0151121
0.00654877
-0.00417894
-0.0173848
-0.0334512
-0.0523794
-0.0730051
-0.0939043
-0.113601
-0.12369
-0.136192
-0.118705
0.0333762
0.0372457
0.0379808
0.0385585
0.0376456
0.0356879
0.0323298
0.0275176
0.0210105
0.0125866
0.00192805
-0.0113174
-0.0276027
-0.0470401
-0.0689564
-0.0925398
-0.115529
-0.125391
-0.140868
-0.132586
0.0378011
0.0419579
0.0428622
0.0436511
0.0429392
0.0411955
0.0380552
0.0334626
0.0271648
0.0189198
0.00836328
-0.0049494
-0.0216388
-0.042051
-0.0660606
-0.093221
-0.120117
-0.132223
-0.15229
-0.147923
0.0424114
0.0468265
0.0479109
0.0489121
0.0484147
0.0468996
0.0439995
0.0396564
0.0336103
0.0256088
0.0152644
0.00209374
-0.0146005
-0.0353611
-0.0607477
-0.0908807
-0.122029
-0.140819
-0.163089
-0.166474
0.0472007
0.0518591
0.0531249
0.0543422
0.0540691
0.0527969
0.0501585
0.0460942
0.0403404
0.0326376
0.0225752
0.00963552
-0.00695205
-0.0279207
-0.0543958
-0.0867488
-0.121878
-0.150537
-0.172992
-0.188075
0.0521616
0.0570506
0.0584954
0.0599326
0.0598943
0.058882
0.0565313
0.0527819
0.0473701
0.0400362
0.0303591
0.0178159
0.00159435
-0.0192019
-0.0461689
-0.0799306
-0.11945
-0.158678
-0.182255
-0.212405
0.0572842
0.0623871
0.0640037
0.0656648
0.0658755
0.0651466
0.0631203
0.0597376
0.0547395
0.0478725
0.0387117
0.0267435
0.0111378
-0.00909138
-0.0358393
-0.0700822
-0.113533
-0.161502
-0.191142
-0.233511
0.0625678
0.0678611
0.0696395
0.0715298
0.0720061
0.071584
0.0699185
0.0669554
0.0624476
0.056159
0.0476746
0.0365123
0.0218793
0.00281395
-0.0227298
-0.056246
-0.102094
-0.156319
-0.200195
-0.251298
0.0680421
0.0735152
0.0754471
0.0775727
0.0783145
0.0781915
0.0768725
0.0743092
0.070268
0.0645328
0.0567007
0.0463393
0.0327211
0.0150411
-0.00869277
-0.0403507
-0.0861329
-0.145183
-0.210907
-0.259277
0.0737593
0.0794626
0.0815407
0.0839052
0.084865
0.0849736
0.083885
0.0815578
0.0777506
0.0722489
0.0646249
0.0545169
0.0410964
0.0237532
0.000560476
-0.0298447
-0.0733638
-0.130607
-0.216068
-0.318428
-0.000739701
-0.00223158
-0.0037426
-0.00529147
-0.00685379
-0.00841182
-0.00994519
-0.0114353
-0.0128667
-0.0142271
-0.0155071
-0.0167013
-0.0178034
-0.0188142
-0.0197359
-0.0205669
-0.0213103
-0.0219702
-0.0225514
-0.0230591
-0.0234988
-0.0238767
-0.024199
-0.0244722
-0.0247029
-0.0248976
-0.0250628
-0.0252048
-0.0253298
-0.0254436
-0.0255519
-0.0256598
-0.0257722
-0.0258933
-0.0260272
-0.0261772
-0.0263465
-0.0265378
-0.0267547
-0.0269939
-0.0272623
-0.0275597
-0.0278868
-0.0282437
-0.02863
-0.0290553
-0.0295105
-0.0299974
-0.0305162
-0.0310665
-0.0316482
-0.0322615
-0.0329062
-0.0335822
-0.0342891
-0.035027
-0.0357963
-0.0365937
-0.0374315
-0.0382962
-0.0391897
-0.040113
-0.041066
-0.0420488
-0.0430613
-0.0441034
-0.0451749
-0.0462758
-0.0474058
-0.0485647
-0.0497522
-0.0509677
-0.0522105
-0.0534797
-0.0547744
-0.0560935
-0.0574365
-0.0587975
-0.0601655
-0.0615478
-0.0629391
-0.0643349
-0.0657282
-0.0671098
-0.0684685
-0.0697911
-0.071063
-0.0722639
-0.0733753
-0.0743601
-0.0752048
-0.0758227
-0.0762599
-0.0762472
-0.0761509
-0.0750763
-0.0745698
-0.0720259
-0.071752
-0.0680433
-0.000738487
-0.00223023
-0.00374178
-0.00529364
-0.00685995
-0.00842243
-0.00996065
-0.0114556
-0.0128917
-0.0142565
-0.0155405
-0.0167373
-0.017848
-0.0188638
-0.019784
-0.0206145
-0.0213577
-0.022017
-0.0225972
-0.0231033
-0.0235411
-0.0239166
-0.0242361
-0.0245061
-0.0247332
-0.024924
-0.0250851
-0.0252229
-0.0253437
-0.0254535
-0.0255579
-0.0256623
-0.0257715
-0.0258899
-0.0260217
-0.0261703
-0.0263389
-0.0265304
-0.0267472
-0.0269899
-0.0272617
-0.0275635
-0.0278964
-0.0282614
-0.0286606
-0.0290839
-0.0295412
-0.0300312
-0.0305534
-0.0311105
-0.0317024
-0.0323258
-0.0329806
-0.0336664
-0.0343827
-0.0351291
-0.0359111
-0.0367197
-0.0375545
-0.0384192
-0.0393138
-0.0402382
-0.0411923
-0.0421759
-0.0431891
-0.0442317
-0.0453038
-0.0464055
-0.0475365
-0.0486969
-0.0498865
-0.0511047
-0.052351
-0.0536246
-0.0549244
-0.0562486
-0.0575957
-0.0589632
-0.0603487
-0.0617481
-0.0631536
-0.0645586
-0.0659556
-0.0673367
-0.0686923
-0.0700098
-0.0712744
-0.0724657
-0.0735642
-0.0745331
-0.0753565
-0.0759511
-0.0763557
-0.0763259
-0.0762104
-0.0751289
-0.074632
-0.0721437
-0.0720566
-0.0689071
-0.000735387
-0.00222625
-0.00373777
-0.00529384
-0.00686575
-0.00843448
-0.00997898
-0.0114799
-0.0129214
-0.0142911
-0.0155795
-0.0167843
-0.0178924
-0.0189081
-0.0198322
-0.0206651
-0.0214094
-0.0220691
-0.0226488
-0.0231537
-0.0235896
-0.0239625
-0.0242788
-0.0245452
-0.0247681
-0.0249545
-0.0251109
-0.0252439
-0.0253599
-0.0254649
-0.0255648
-0.025665
-0.0257704
-0.0258857
-0.0260148
-0.0261615
-0.0263288
-0.0265197
-0.0267365
-0.0269801
-0.0272534
-0.027557
-0.0278921
-0.028259
-0.0286583
-0.0290907
-0.0295571
-0.0300569
-0.0305901
-0.0311535
-0.0317462
-0.0323713
-0.0330286
-0.0337178
-0.0344392
-0.0351925
-0.0359721
-0.0367796
-0.0376228
-0.0384945
-0.0393939
-0.0403217
-0.0412781
-0.0422632
-0.043277
-0.0443197
-0.0453913
-0.0464919
-0.0476217
-0.0487805
-0.0499683
-0.0511848
-0.0524295
-0.0537018
-0.0550006
-0.0563246
-0.0576725
-0.0590403
-0.0604234
-0.0618193
-0.063224
-0.0646318
-0.0660352
-0.0674247
-0.0687893
-0.0701152
-0.0713868
-0.0725834
-0.0736846
-0.0746543
-0.0754748
-0.0760662
-0.076464
-0.0764269
-0.076293
-0.0752081
-0.0747677
-0.0723068
-0.0725089
-0.0698575
-0.000730462
-0.00222008
-0.00373109
-0.00529278
-0.00687205
-0.00844878
-0.0100012
-0.0115095
-0.0129577
-0.0143332
-0.0156268
-0.0168336
-0.0179464
-0.0189655
-0.0198911
-0.0207249
-0.0214696
-0.0221289
-0.0227076
-0.0232108
-0.0236443
-0.0240141
-0.0243268
-0.0245889
-0.0248073
-0.0249886
-0.0251398
-0.0252674
-0.025378
-0.0254779
-0.0255728
-0.0256683
-0.0257696
-0.0258812
-0.0260073
-0.0261517
-0.0263175
-0.0265076
-0.0267243
-0.026969
-0.0272438
-0.02755
-0.0278884
-0.0282595
-0.0286641
-0.0291013
-0.0295723
-0.0300764
-0.0306133
-0.0311838
-0.0317876
-0.0324235
-0.0330905
-0.0337878
-0.0345145
-0.0352698
-0.036052
-0.0368709
-0.0377157
-0.0385885
-0.0394893
-0.0404184
-0.0413758
-0.0423614
-0.0433754
-0.044418
-0.0454893
-0.0465896
-0.0477191
-0.0488778
-0.050066
-0.0512833
-0.0525295
-0.053804
-0.0551058
-0.0564334
-0.0577851
-0.0591578
-0.060548
-0.061952
-0.063364
-0.0647777
-0.0661854
-0.0675782
-0.0689453
-0.070273
-0.0715458
-0.0727428
-0.0738435
-0.0748124
-0.0756307
-0.0762225
-0.0766198
-0.0765924
-0.0764789
-0.0754189
-0.0751127
-0.0726812
-0.0733409
-0.0711269
-0.000723245
-0.00221162
-0.00372169
-0.00529057
-0.00687904
-0.00846557
-0.0100275
-0.0115445
-0.0130003
-0.0143822
-0.0156789
-0.0168924
-0.0180087
-0.0190305
-0.019958
-0.0207927
-0.0215375
-0.0221963
-0.0227735
-0.0232746
-0.0237052
-0.0240715
-0.02438
-0.0246375
-0.0248507
-0.0250265
-0.0251719
-0.0252937
-0.0253984
-0.0254925
-0.0255819
-0.0256724
-0.0257691
-0.0258767
-0.0259995
-0.0261413
-0.0263053
-0.0264944
-0.0267109
-0.0269563
-0.0272328
-0.0275413
-0.0278827
-0.0282577
-0.0286666
-0.0291089
-0.0295855
-0.0300959
-0.0306397
-0.0312162
-0.0318249
-0.0324651
-0.0331364
-0.0338384
-0.0345709
-0.0353332
-0.0361239
-0.0369434
-0.0377929
-0.03867
-0.0395741
-0.0405056
-0.0414645
-0.0424511
-0.0434655
-0.044508
-0.0455789
-0.0466785
-0.0478073
-0.0489654
-0.050153
-0.0513701
-0.0526165
-0.0538917
-0.0551949
-0.0565246
-0.0578792
-0.0592555
-0.0606497
-0.0620583
-0.0634761
-0.0648967
-0.0663122
-0.0677132
-0.0690883
-0.0704237
-0.0717034
-0.0729069
-0.0740131
-0.074988
-0.0758121
-0.0764139
-0.0768228
-0.0768206
-0.0767501
-0.0757398
-0.0756229
-0.0732229
-0.0744924
-0.0726282
-0.000713134
-0.00220076
-0.00370947
-0.00528722
-0.00688676
-0.00848481
-0.0100577
-0.0115846
-0.0130489
-0.0144384
-0.0157464
-0.0169586
-0.0180785
-0.019103
-0.0200322
-0.0208678
-0.0216126
-0.0222705
-0.022846
-0.0233446
-0.0237719
-0.0241343
-0.0244383
-0.0246905
-0.0248981
-0.0250679
-0.0252071
-0.0253224
-0.0254208
-0.0255087
-0.0255922
-0.0256772
-0.0257689
-0.0258721
-0.0259913
-0.0261302
-0.0262921
-0.02648
-0.0266961
-0.0269421
-0.02722
-0.0275307
-0.0278752
-0.0282539
-0.0286671
-0.0291145
-0.0295967
-0.0301129
-0.0306628
-0.0312458
-0.0318613
-0.0325087
-0.0331873
-0.0338962
-0.0346346
-0.0354017
-0.0361969
-0.0370216
-0.037874
-0.0387535
-0.0396597
-0.0405928
-0.0415528
-0.0425399
-0.0435544
-0.0445966
-0.045667
-0.0467661
-0.0478943
-0.0490519
-0.0502394
-0.0514569
-0.0527042
-0.053981
-0.0552865
-0.0566193
-0.0579776
-0.0593585
-0.0607585
-0.0621734
-0.063598
-0.0650256
-0.0664484
-0.0678567
-0.0692393
-0.0705821
-0.0718693
-0.0730804
-0.0741945
-0.0751789
-0.0760136
-0.0766326
-0.077063
-0.0770998
-0.0770884
-0.0761499
-0.0762653
-0.0738962
-0.0759478
-0.0742803
-0.000699292
-0.00218738
-0.00369434
-0.00528278
-0.00689526
-0.00850645
-0.0100917
-0.0116295
-0.0131032
-0.0145002
-0.0158096
-0.0170312
-0.0181553
-0.0191825
-0.0201134
-0.0209497
-0.0216942
-0.0223509
-0.0229245
-0.0234203
-0.023844
-0.0242021
-0.024501
-0.0247477
-0.0249492
-0.0251126
-0.025245
-0.0253536