/*--------------------------------*- C++ -*----------------------------------*\
  =========                 |
  \\      /  F ield         | OpenFOAM: The Open Source CFD Toolbox
   \\    /   O peration     | Website:  https://openfoam.org
    \\  /    A nd           | Version:  7
     \\/     M anipulation  |
\*---------------------------------------------------------------------------*/
FoamFile
{
    version     2.0;
    format      ascii;
    class       surfaceScalarField;
    location    "20";
    object      phi;
}
// * * * * * * * * * * * * * * * * * * * * * * * * * * * * * * * * * * * * * //

dimensions      [0 3 -1 0 0 0 0];

internalField   nonuniform List<scalar> 
132
(
-0.0023359
-0.000193316
-0.00211037
-0.000225525
-0.00184844
-0.000261934
-0.00151562
-0.000332813
-0.0011345
-0.000381122
-0.00063333
-0.000501173
-0.000110719
-0.000522611
-0.000341588
-0.00234169
-0.000385754
-0.00211715
-0.000450068
-0.00185643
-0.000522645
-0.00152501
-0.000664233
-0.00114548
-0.00076066
-0.0006465
-0.00100015
-0.00012661
-0.0010425
-0.00068064
-0.00235341
-0.000576189
-0.00213116
-0.000672315
-0.0018734
-0.000780413
-0.00154546
-0.00099217
-0.00117015
-0.00113597
-0.000676759
-0.00149354
-0.000162133
-0.00155713
-0.00101883
-0.00237083
-0.000763549
-0.00215214
-0.000891003
-0.00189895
-0.00103361
-0.00157649
-0.00131463
-0.0012079
-0.00150456
-0.000723281
-0.00197816
-0.000216456
-0.00206395
-0.00135707
-0.00239363
-0.000946827
-0.00217968
-0.00110495
-0.00193258
-0.00128071
-0.00161747
-0.00162973
-0.00125794
-0.0018641
-0.000785152
-0.00245094
-0.000288689
-0.00256041
-0.00169573
-0.00242139
-0.00112511
-0.00221327
-0.00131307
-0.00197362
-0.00152036
-0.00166762
-0.00193573
-0.00131928
-0.00221243
-0.000861173
-0.00290906
-0.000377631
-0.00304396
-0.00203538
-0.00245363
-0.00129758
-0.00225231
-0.00151439
-0.00202132
-0.00175135
-0.001726
-0.00223105
-0.00139078
-0.00254765
-0.000949959
-0.00334988
-0.00048196
-0.00351195
-0.00237639
-0.00248983
-0.00146354
-0.00229615
-0.00170806
-0.00207482
-0.00197268
-0.00179155
-0.00251433
-0.00147113
-0.00286807
-0.00104997
-0.00377104
-0.000600216
-0.00396171
-0.00271629
-0.00252939
-0.00162242
-0.00234406
-0.00189339
-0.00213321
-0.00218352
-0.00186316
-0.00155895
-0.00115955
-0.000730792
-0.00257165
-0.00239541
)
;

boundaryField
{
    inlet
    {
        type            calculated;
        value           nonuniform 0();
    }
    outlet
    {
        type            calculated;
        value           nonuniform List<scalar> 10(0.00252921 0.00253413 0.00254385 0.00255819 0.0025769 0.00259967 0.0026261 0.00265579 0.00268827 0.00272306);
    }
    polygon
    {
        type            calculated;
        value           nonuniform 0();
    }
    top
    {
        type            symmetryPlane;
        value           uniform 0;
    }
    bottom
    {
        type            symmetryPlane;
        value           uniform 0;
    }
    outside
    {
        type            calculated;
        value           nonuniform 0();
    }
    procBoundary7to3
    {
        type            processor;
        value           nonuniform List<scalar> 9(-0.00278439 -0.00317227 -0.00417043 -0.00439047 -0.00305144 -0.00177383 -0.00206963 -0.00219547 -0.00238346);
    }
    procBoundary7to6
    {
        type            processor;
        value           nonuniform List<scalar> 9(0.000230869 0.000212442 0.000176052 0.000121785 4.99782e-05 -3.79806e-05 -0.000140955 -0.000260313 -0.00039564);
    }
    procBoundary7to11
    {
        type            processor;
        value           nonuniform List<scalar> 8(1.0182e-11 1.86062e-11 2.63067e-11 2.26237e-11 1.37139e-11 -1.12041e-11 -1.24803e-11 -2.93823e-11);
    }
}


// ************************************************************************* //
