/*--------------------------------*- C++ -*----------------------------------*\
  =========                 |
  \\      /  F ield         | OpenFOAM: The Open Source CFD Toolbox
   \\    /   O peration     | Website:  https://openfoam.org
    \\  /    A nd           | Version:  7
     \\/     M anipulation  |
\*---------------------------------------------------------------------------*/
FoamFile
{
    version     2.0;
    format      ascii;
    class       surfaceScalarField;
    location    "20";
    object      phi;
}
// * * * * * * * * * * * * * * * * * * * * * * * * * * * * * * * * * * * * * //

dimensions      [0 3 -1 0 0 0 0];

internalField   nonuniform List<scalar> 
203
(
-0.000498903
-0.0194226
0.0194566
-0.000478675
-0.0201083
0.020088
-0.000383185
-0.02002
0.0199245
-0.0139147
0.0135315
-0.000514406
-0.019383
-0.000504488
-0.0201182
-0.000416167
-0.0201083
-0.0143308
-0.00053043
-0.0193376
-0.000531842
-0.0201168
-0.000451813
-0.0201884
-0.0147827
-0.00054619
-0.0192866
-0.000558945
-0.020104
-0.000488313
-0.020259
-0.015271
-0.000561725
-0.01923
-0.000586155
-0.0200796
-0.000525955
-0.0203192
-0.0157969
-0.00057694
-0.0191681
-0.000613473
-0.020043
-0.000564907
-0.0203678
-0.0163618
-0.000591737
-0.0191012
-0.00064099
-0.0199938
-0.000605501
-0.0204033
-0.0169673
-0.000606079
-0.0190295
-0.00066907
-0.0199308
-0.000648517
-0.0204238
-0.0176159
-0.000620131
-0.0189531
-0.000698376
-0.0198526
-0.00069498
-0.0204272
-0.0183108
-0.000634123
-0.000728873
-0.000744198
-0.000871342
-0.020076
0.0201747
-0.000924671
-0.0203769
0.0204302
-0.000857108
-0.0201778
0.0201102
-0.000529216
-0.0177283
0.0174004
-0.00642977
0.00590056
-0.000882535
-0.0199721
-0.000947167
-0.0203122
-0.000895001
-0.0202299
-0.000573583
-0.0180497
-0.00700336
-0.000892878
-0.0198636
-0.000967689
-0.0202374
-0.00093103
-0.0202666
-0.000624098
-0.0183567
-0.00762745
-0.000902923
-0.0197506
-0.00098766
-0.0201527
-0.000966366
-0.0202879
-0.000676118
-0.0186469
-0.00830357
-0.000912637
-0.00100696
-0.0200584
-0.00100103
-0.0202938
-0.000729358
-0.0189186
-0.00903293
-0.00102555
-0.0199548
-0.00103497
-0.0202844
-0.000783686
-0.0191699
-0.00981662
-0.00104326
-0.0198425
-0.00106798
-0.0202597
-0.000839339
-0.0193985
-0.010656
-0.00106005
-0.0197219
-0.00110033
-0.0202194
-0.000897974
-0.0196009
-0.0115539
-0.00107653
-0.0195933
-0.00113346
-0.0201625
-0.000959713
-0.0197746
-0.0125136
-0.00109332
-0.00116777
-0.00101786
-0.000171137
0.000117051
-0.002021
0.00184987
-0.000176316
4.37122e-05
-0.00219732
-0.000182136
-4.84216e-05
-0.00237946
-0.000188603
-0.000160285
-0.00256806
-0.000195745
-0.000292738
-0.00276381
-0.000203603
-0.000446554
-0.00296741
-0.000212208
-0.000622419
-0.00317962
-0.000221579
-0.000820939
-0.00340119
-0.000231732
-0.0010426
-0.00363293
-0.000243183
-0.00128627
-0.00387611
-0.000176008
-0.000352409
-0.000529765
-0.000708652
-0.000889666
-0.00107343
-0.0012606
-0.00145189
-0.00164804
-0.00343994
-0.00470404
-0.00141549
-0.0109711
-0.00468454
0.00501386
-0.015638
-0.00342738
0.0094861
-0.0178247
-0.00206553
0.0120916
-0.0187574
)
;

boundaryField
{
    inlet
    {
        type            calculated;
        value           nonuniform 0();
    }
    outlet
    {
        type            calculated;
        value           nonuniform 0();
    }
    polygon
    {
        type            calculated;
        value           uniform 0;
    }
    top
    {
        type            symmetryPlane;
        value           uniform 0;
    }
    bottom
    {
        type            symmetryPlane;
        value           uniform 0;
    }
    outside
    {
        type            calculated;
        value           nonuniform 0();
    }
    procBoundary6to2
    {
        type            processor;
        value           nonuniform List<scalar> 
23
(
0.000464904
0.000474858
0.000485026
0.000495131
0.000505161
0.00051507
0.000524809
0.000534351
0.000543747
0.000553058
0.000772656
0.000778607
0.000784329
0.000789955
0.000795472
-0.0196334
0.000921995
0.000930937
0.000939473
0.00094789
0.000956605
-0.000790792
0.0135089
)
;
    }
    procBoundary6to3
    {
        type            processor;
        value           nonuniform List<scalar> 
11
(
0.000328198
0.00035742
0.000388073
0.000420099
0.000453395
0.000486848
0.00685771
0.0109516
0.0143808
0.0164629
0.0174827
)
;
    }
    procBoundary6to5
    {
        type            processor;
        value           nonuniform List<scalar> 4(-0.018872 -0.0197578 -0.0204119 -0.019055);
    }
    procBoundary6to7
    {
        type            processor;
        value           nonuniform List<scalar> 
15
(
0.000226705
-0.000172619
0.000249654
0.00027427
0.000300466
0.000176008
0.000176401
0.000177356
0.000178887
0.000181014
0.000183764
0.000187173
0.000191284
0.000196151
0.00020183
)
;
    }
    procBoundary6to10
    {
        type            processor;
        value           uniform -2.67304e-11;
    }
}


// ************************************************************************* //
