/*--------------------------------*- C++ -*----------------------------------*\
  =========                 |
  \\      /  F ield         | OpenFOAM: The Open Source CFD Toolbox
   \\    /   O peration     | Website:  https://openfoam.org
    \\  /    A nd           | Version:  7
     \\/     M anipulation  |
\*---------------------------------------------------------------------------*/
FoamFile
{
    version     2.0;
    format      ascii;
    class       surfaceScalarField;
    location    "62";
    object      phi;
}
// * * * * * * * * * * * * * * * * * * * * * * * * * * * * * * * * * * * * * //

dimensions      [0 3 -1 0 0 0 0];

internalField   nonuniform List<scalar> 
225
(
-0.00396436
1.09046e-05
-0.00393725
2.8538e-05
-0.00391052
4.66413e-05
-0.00388449
6.50387e-05
-0.00385938
8.34703e-05
0.000101792
-0.00487371
-0.000124629
-0.00485381
-0.000127644
-0.00483369
-0.000123443
-0.00481224
-0.000118805
-0.00479028
-0.000110593
-0.00476736
-0.000101099
-0.00474384
-8.95799e-05
-0.00471962
-7.68391e-05
-0.00469492
-6.27545e-05
-0.00466983
-4.76159e-05
-0.00464459
-3.14064e-05
-0.00461941
-1.42717e-05
-0.00459459
3.7146e-06
-0.00457057
2.2618e-05
-0.00454758
4.20555e-05
-0.00452588
6.17692e-05
8.16351e-05
-0.00550591
-0.000140693
-0.00548844
-0.000145114
-0.00547091
-0.000140971
-0.00545228
-0.000137438
-0.00543337
-0.000129504
-0.00541366
-0.000120807
-0.00539356
-0.000109681
-0.0053729
-9.74957e-05
-0.00535193
-8.37203e-05
-0.00533072
-6.88314e-05
-0.00530952
-5.26091e-05
-0.00528861
-3.51735e-05
-0.00526848
-1.64144e-05
-0.00524941
3.53928e-06
-0.0052314
2.40497e-05
-0.00521496
4.53326e-05
6.71425e-05
-0.00611148
-0.000152712
-0.00609866
-0.000157934
-0.00608589
-0.000153739
-0.00607245
-0.000150884
-0.00605891
-0.00014304
-0.00604484
-0.000134875
-0.00603057
-0.000123958
-0.00601592
-0.000112145
-0.00600111
-9.85295e-05
-0.00598618
-8.37625e-05
-0.00597137
-6.74146e-05
-0.00595694
-4.96035e-05
-0.00594321
-3.015e-05
-0.00593031
-9.35333e-06
-0.00591931
1.3045e-05
-0.00591037
3.63962e-05
6.0196e-05
-0.00666498
-0.000159056
-0.00665868
-0.000164239
-0.00665252
-0.000159894
-0.00664632
-0.000157087
-0.00664016
-0.000149198
-0.00663383
-0.000141203
-0.00662743
-0.000130365
-0.00662084
-0.000118736
-0.00661417
-0.0001052
-0.00660745
-9.04788e-05
-0.0066009
-7.3967e-05
-0.00659481
-5.56859e-05
-0.00658971
-3.52558e-05
-0.0065864
-1.26649e-05
-0.00658457
1.12146e-05
-0.00658416
3.59888e-05
6.18417e-05
-0.00713184
-0.000159083
-0.00713306
-0.000163019
-0.00713458
-0.000158373
-0.00713685
-0.000154822
-0.00713934
-0.000146703
-0.00714217
-0.000138379
-0.00714511
-0.000127427
-0.00714817
-0.000115674
-0.00715129
-0.000102074
-0.00715451
-8.72597e-05
-0.00715789
-7.05924e-05
-0.00716163
-5.19441e-05
-0.00716611
-3.07727e-05
-0.00717146
-7.31985e-06
-0.00717912
1.88754e-05
-0.00718948
4.63476e-05
7.43627e-05
-0.00747263
-0.000153546
-0.00748066
-0.00015499
-0.00748918
-0.000149855
-0.00749929
-0.000144706
-0.00750991
-0.000136089
-0.00752134
-0.000126952
-0.00753311
-0.000115654
-0.0075453
-0.000103483
-0.00755773
-8.96471e-05
-0.00757042
-7.45617e-05
-0.00758339
-5.7628e-05
-0.00759688
-3.84545e-05
-0.00761176
-1.58869e-05
-0.00762929
1.02018e-05
-0.00764834
3.79261e-05
-0.0076693
6.73159e-05
9.75239e-05
-0.00765344
-0.00766528
-0.0076785
-0.00769366
-0.00770983
-0.00772714
-0.0077452
-0.00776398
-0.00778331
-0.00780313
-0.0078233
-0.00784363
-0.0078638
-0.00788652
-0.00791309
-0.00794288
)
;

boundaryField
{
    inlet
    {
        type            calculated;
        value           nonuniform 0();
    }
    outlet
    {
        type            calculated;
        value           nonuniform List<scalar> 7(0.00489182 0.00552197 0.0061235 0.00667133 0.00713187 0.00746709 0.00764575);
    }
    polygon
    {
        type            calculated;
        value           nonuniform 0();
    }
    top
    {
        type            symmetryPlane;
        value           uniform 0;
    }
    bottom
    {
        type            symmetryPlane;
        value           uniform 0;
    }
    outside
    {
        type            calculated;
        value           nonuniform List<scalar> 
17
(
-0.000145852
-0.000143152
-0.000136632
-0.000129555
-0.000119913
-0.000109641
-9.75992e-05
-8.46992e-05
-7.03213e-05
-5.47415e-05
-3.74521e-05
-1.81321e-05
4.28454e-06
3.2923e-05
6.44973e-05
9.71082e-05
0.000129958
)
;
    }
    procBoundary7to6
    {
        type            processor;
        value           nonuniform List<scalar> 7(-0.00450572 -0.00520047 -0.00590343 -0.0065858 -0.007202 -0.00769247 -0.00797532);
    }
    procBoundary7to14
    {
        type            processor;
        value           uniform -0.00383545;
    }
    procBoundary7to15
    {
        type            processor;
        value           nonuniform List<scalar> 
18
(
-3.81057e-05
-5.56481e-05
-7.33641e-05
-9.10712e-05
-0.000108578
-0.000125728
0.000106516
0.000107749
0.000103318
9.73569e-05
8.86354e-05
7.818e-05
6.60615e-05
5.26183e-05
3.80531e-05
2.2527e-05
0.00399156
6.16221e-06
)
;
    }
}


// ************************************************************************* //
