/*--------------------------------*- C++ -*----------------------------------*\
  =========                 |
  \\      /  F ield         | OpenFOAM: The Open Source CFD Toolbox
   \\    /   O peration     | Website:  https://openfoam.org
    \\  /    A nd           | Version:  7
     \\/     M anipulation  |
\*---------------------------------------------------------------------------*/
FoamFile
{
    version     2.0;
    format      ascii;
    class       surfaceScalarField;
    location    "44";
    object      phi;
}
// * * * * * * * * * * * * * * * * * * * * * * * * * * * * * * * * * * * * * //

dimensions      [0 3 -1 0 0 0 0];

internalField   nonuniform List<scalar> 
22080
(
-0.000111743
0.00192157
-0.00208953
6.2598e-05
0.00197532
-0.00214967
0.000201652
0.00135709
-0.00149614
0.000337141
0.00129317
-0.00142866
0.000451658
0.00106604
-0.00118056
0.000558942
0.000986614
-0.0010939
0.000653407
0.000866199
-0.000960665
0.000739792
0.000787424
-0.000873808
0.000816544
0.000699452
-0.000776204
0.000885311
0.000625094
-0.000693861
0.000946038
0.000551367
-0.000612095
0.000999392
0.000483406
-0.00053676
0.0010457
0.000418548
-0.000464856
0.00108539
0.000357511
-0.000397198
0.0011188
0.000299613
-0.000333022
0.00114625
0.000244726
-0.000272184
0.00116805
0.000192507
-0.000214301
0.00118444
0.000142739
-0.00015913
0.00119566
9.52087e-05
-0.000106434
0.00120195
4.97853e-05
-5.6069e-05
0.00120351
6.43461e-06
-7.99514e-06
0.00120055
-3.50404e-05
3.79972e-05
0.0011933
-7.44294e-05
8.16848e-05
0.00118197
-0.000111717
0.000123044
0.00116681
-0.000146789
0.000161946
0.00114809
-0.000179496
0.000198223
0.00112606
-0.00020968
0.000231701
0.00110104
-0.000237179
0.000262199
0.00107334
-0.000261826
0.000289531
0.00104328
-0.000283458
0.000313516
0.00101122
-0.000301927
0.000333989
0.000977516
-0.000317102
0.000350806
0.000942545
-0.000328884
0.000363855
0.000906688
-0.000337207
0.000373064
0.000870328
-0.000342044
0.000378404
0.000833845
-0.000343415
0.000379898
0.000797612
-0.000341388
0.000377622
0.000761985
-0.000336087
0.000371713
0.000727302
-0.000327691
0.000362374
0.000693871
-0.000316437
0.000349867
0.000661968
-0.000302613
0.000334516
0.00063183
-0.000286558
0.000316696
0.00060365
-0.000268648
0.000296828
0.000577577
-0.000249291
0.000275364
0.000553712
-0.000228912
0.000252777
0.000532108
-0.000207939
0.000229542
0.000512773
-0.000186789
0.000206124
0.000495672
-0.00016586
0.000182961
0.000480731
-0.000145513
0.000160455
0.000467841
-0.000126066
0.000138956
0.000456867
-0.000107785
0.000118759
0.000447651
-9.08823e-05
0.000100098
0.000440019
-7.55102e-05
8.31424e-05
0.000433788
-6.17652e-05
6.7996e-05
0.000428774
-4.96878e-05
5.47025e-05
0.000424793
-3.92671e-05
4.32481e-05
0.000421671
-3.04455e-05
3.35668e-05
0.000419248
-2.31267e-05
2.55498e-05
0.000417377
-1.71852e-05
1.9056e-05
0.00041593
-1.24758e-05
1.3923e-05
0.000414796
-8.8428e-06
9.97655e-06
0.000413884
-6.12819e-06
7.04107e-06
0.000413116
-4.1772e-06
4.94458e-06
0.000412434
-2.84634e-06
3.52821e-06
0.000411791
-2.0084e-06
2.65154e-06
0.000411151
-1.55637e-06
2.19654e-06
0.000410487
-1.40316e-06
2.06737e-06
0.000409778
-1.479e-06
2.18812e-06
0.000409007
-1.73457e-06
2.50516e-06
0.000408161
-2.13829e-06
2.98444e-06
0.000407226
-2.67425e-06
3.60916e-06
0.000406189
-3.33949e-06
4.37686e-06
0.000405034
-4.14228e-06
5.29734e-06
0.000403743
-5.10138e-06
6.39171e-06
0.000402297
-6.24251e-06
7.68869e-06
0.000400671
-7.59998e-06
9.22634e-06
0.000398836
-9.21256e-06
1.10476e-05
0.000396758
-1.11302e-05
1.32075e-05
0.0003944
-1.34044e-05
1.57628e-05
0.000391715
-1.61079e-05
1.87934e-05
0.000388649
-1.93071e-05
2.23724e-05
0.00038514
-2.31168e-05
2.66256e-05
0.000381116
-2.76186e-05
3.16428e-05
0.000376486
-3.3015e-05
3.76449e-05
0.000371151
-3.93907e-05
4.47262e-05
0.000364976
-4.71422e-05
5.33172e-05
0.000357821
-5.62994e-05
6.34541e-05
0.000349475
-6.77092e-05
7.60549e-05
0.000339742
-8.1165e-05
9.08985e-05
0.00032826
-9.85461e-05
0.000110027
0.000314766
-0.000119038
0.000132533
0.000298606
-0.000146425
0.000162585
0.000279418
-0.000179673
0.000198861
0.000256118
-0.000222822
0.000246122
0.000227854
-0.000282741
0.000311005
0.000194058
-0.000343315
0.000377111
0.000150555
-0.000456793
0.000500296
0.00010465
-0.000501472
0.000547377
4.20152e-05
-0.000608164
0.000670799
-0.000418014
0.000460029
-0.000113758
0.00174326
7.08234e-05
0.00179074
0.000213298
0.00121462
0.00035107
0.00115539
0.000466946
0.000950168
0.000574916
0.000878644
0.000670048
0.000771067
0.000756795
0.000700677
0.000833909
0.000622337
0.000902924
0.000556079
0.000963859
0.000490432
0.00101736
0.000429908
0.00106376
0.000372146
0.00110349
0.00031778
0.0011369
0.000266208
0.00116431
0.000217317
0.00118601
0.000170804
0.00120227
0.000126478
0.00121333
8.41474e-05
0.00121942
4.36985e-05
0.00122075
5.09828e-06
0.00121754
-3.18315e-05
0.00121001
-6.68984e-05
0.00119839
-0.000100093
0.00118292
-0.000131315
0.00116385
-0.000160431
0.00114147
-0.000187303
0.00111608
-0.000211786
0.00108799
-0.000233732
0.00105753
-0.000252997
0.00102505
-0.000269447
0.000990912
-0.000282968
0.000955499
-0.000293471
0.000919188
-0.000300896
0.000882365
-0.000305221
0.000845411
-0.000306461
0.000808701
-0.000304678
0.000772594
-0.00029998
0.000737428
-0.000292525
0.000703515
-0.000282524
0.000671134
-0.000270232
0.000640525
-0.000255948
0.000611884
-0.000240008
0.000585365
-0.000222772
0.000561071
-0.000204618
0.000539058
-0.000185926
0.000519338
-0.00016707
0.000501879
-0.000148401
0.000486608
-0.000130242
0.000473419
-0.000112878
0.000462179
-9.65449e-05
0.000452729
-8.14329e-05
0.000444898
-6.76792e-05
0.000438503
-5.53703e-05
0.000433359
-4.45437e-05
0.000429283
-3.51908e-05
0.0004261
-2.72619e-05
0.000423646
-2.06727e-05
0.000421773
-1.53129e-05
0.000420352
-1.10544e-05
0.000419268
-7.75918e-06
0.000418427
-5.28731e-06
0.000417751
-3.50112e-06
0.000417178
-2.27267e-06
0.000416657
-1.48816e-06
0.000416153
-1.05192e-06
0.000415636
-8.86007e-07
0.000415084
-9.27125e-07
0.00041448
-1.13051e-06
0.000413809
-1.46734e-06
0.000413058
-1.92288e-06
0.000412212
-2.49384e-06
0.000411257
-3.18708e-06
0.000410174
-4.0191e-06
0.000408945
-5.01261e-06
0.000407543
-6.19815e-06
0.00040594
-7.61027e-06
0.000404104
-9.29371e-06
0.000401994
-1.12945e-05
0.000399564
-1.36779e-05
0.00039676
-1.65033e-05
0.000393518
-1.98743e-05
0.000389763
-2.38637e-05
0.000385402
-2.86547e-05
0.000380334
-3.43219e-05
0.000374417
-4.12254e-05
0.000367506
-4.93887e-05
0.000359379
-5.95818e-05
0.000349828
-7.16139e-05
0.00033847
-8.71881e-05
0.000325015
-0.000105584
0.000308773
-0.000130183
0.000289302
-0.000160202
0.00026549
-0.000199011
0.000236214
-0.000253464
0.000201017
-0.000308118
0.000155195
-0.00041097
0.000106383
-0.000452661
4.24356e-05
-0.000544216
-0.000375579
-0.000116165
0.0015546
7.87793e-05
0.0015958
0.000224236
0.00106916
0.000364175
0.00101546
0.000481066
0.000833277
0.000589714
0.000769996
0.000685316
0.000675465
0.000772391
0.000613602
0.000849772
0.000544956
0.000918988
0.000486864
0.000980077
0.000429343
0.00103368
0.000376302
0.00108015
0.000325679
0.0011199
0.000278028
0.00115329
0.000232823
0.00118063
0.000189968
0.00120224
0.000149198
0.00121837
0.000110346
0.00122928
7.32457e-05
0.00123518
3.77987e-05
0.0012363
3.97431e-06
0.00123286
-2.83876e-05
0.00122507
-5.91117e-05
0.00121317
-8.81944e-05
0.0011974
-0.000115549
0.00117803
-0.000141058
0.00115533
-0.000164603
0.0011296
-0.000186055
0.00110115
-0.000205287
0.00107033
-0.000222171
0.00103747
-0.000236591
0.00100295
-0.000248447
0.00096714
-0.00025766
0.000930422
-0.000264179
0.000893184
-0.000267983
0.000855809
-0.000269086
0.000818672
-0.000267541
0.000782134
-0.000263442
0.000746536
-0.000256927
0.000712192
-0.00024818
0.000679383
-0.000237422
0.000648351
-0.000224916
0.000619296
-0.000210954
0.000592375
-0.000195851
0.000567693
-0.000179936
0.000545312
-0.000163544
0.000525244
-0.000147001
0.000507459
-0.000130616
0.000491888
-0.000114672
0.000478427
-9.94166e-05
0.000466942
-8.50606e-05
0.000457279
-7.17697e-05
0.000449265
-5.9665e-05
0.000442718
-4.88234e-05
0.000437453
-3.92786e-05
0.000433287
-3.10243e-05
0.000430042
-2.40177e-05
0.000427556
-1.81864e-05
0.000425678
-1.34348e-05
0.000424275
-9.65151e-06
0.000423232
-6.71639e-06
0.000422452
-4.50711e-06
0.000421854
-2.90327e-06
0.000421374
-1.79261e-06
0.000420961
-1.07494e-06
0.000420575
-6.6625e-07
0.000420187
-4.97937e-07
0.000419774
-5.13421e-07
0.000419316
-6.73014e-07
0.000418799
-9.5068e-07
0.00041821
-1.33325e-06
0.000417533
-1.81722e-06
0.000416754
-2.40815e-06
0.000415855
-3.12033e-06
0.000414816
-3.97355e-06
0.000413613
-4.9945e-06
0.000412216
-6.21348e-06
0.000410592
-7.66984e-06
0.000408702
-9.40402e-06
0.000406497
-1.14737e-05
0.000403925
-1.39311e-05
0.000400919
-1.68679e-05
0.000397403
-2.03479e-05
0.000393282
-2.45338e-05
0.000388451
-2.94906e-05
0.000382764
-3.55386e-05
0.000376072
-4.26966e-05
0.000368141
-5.16506e-05
0.000358755
-6.22287e-05
0.000347511
-7.59442e-05
0.0003341
-9.21719e-05
0.000317793
-0.000113876
0.000298085
-0.000140494
0.000273838
-0.000174765
0.000243696
-0.000223322
0.000207298
-0.00027172
0.000159529
-0.000363202
0.000108201
-0.000401333
4.31527e-05
-0.000479167
-0.000332426
-0.000118764
0.00135575
8.63241e-05
0.00139071
0.000234395
0.000921088
0.000376203
0.000873649
0.000493932
0.000715548
0.000603124
0.000660804
0.000699097
0.000579492
0.000786423
0.000526276
0.000864008
0.000467372
0.000933373
0.000417498
0.000994574
0.000368142
0.00104825
0.000322622
0.00109476
0.000279175
0.00113451
0.000238274
0.00116787
0.000199471
0.00119515
0.000162683
0.00121666
0.000127686
0.00123267
9.43373e-05
0.00124342
6.24934e-05
0.00124915
3.20716e-05
0.00125008
3.04459e-06
0.00124642
-2.47302e-05
0.0012384
-5.10941e-05
0.00122626
-7.60489e-05
0.00121023
-9.95208e-05
0.00119058
-0.00012141
0.00116759
-0.000141614
0.00114156
-0.000160024
0.00111281
-0.00017653
0.00108166
-0.000191022
0.00104847
-0.000203402
0.00101361
-0.000213584
0.000977445
-0.000221499
0.000940369
-0.000227103
0.000902766
-0.00023038
0.00086502
-0.00023134
0.000827507
-0.000230028
0.00079059
-0.000226525
0.000754611
-0.000220948
0.000719885
-0.000213454
0.000686697
-0.000204234
0.000655291
-0.00019351
0.000625869
-0.000181533
0.000598591
-0.000168572
0.000573565
-0.00015491
0.000550854
-0.000140834
0.000530474
-0.000126622
0.000512398
-0.00011254
0.000496559
-9.88317e-05
0.000482853
-8.57105e-05
0.000471149
-7.33566e-05
0.000461292
-6.19131e-05
0.000453112
-5.14847e-05
0.000446426
-4.21379e-05
0.00044105
-3.39025e-05
0.0004368
-2.67737e-05
0.000433498
-2.07158e-05
0.000430979
-1.56676e-05
0.000429092
-1.15477e-05
0.000427702
-8.26147e-06
0.000426691
-5.70619e-06
0.000425962
-3.77724e-06
0.00042543
-2.37145e-06
0.000425029
-1.39234e-06
0.000424708
-7.53502e-07
0.000424424
-3.82698e-07
0.000424148
-2.21304e-07
0.000423854
-2.1964e-07
0.000423523
-3.42397e-07
0.000423141
-5.67932e-07
0.000422691
-8.84021e-07
0.000422162
-1.28739e-06
0.000421536
-1.78235e-06
0.000420797
-2.38109e-06
0.000419923
-3.10044e-06
0.000418892
-3.96328e-06
0.000417674
-4.99559e-06
0.000416236
-6.23124e-06
0.000414537
-7.705e-06
0.00041253
-9.46668e-06
0.00041016
-1.15612e-05
0.00040736
-1.40679e-05
0.000404054
-1.70416e-05
0.000400143
-2.06233e-05
0.000395521
-2.48685e-05
0.000390038
-3.00556e-05
0.00038354
-3.61991e-05
0.000375785
-4.38957e-05
0.000366552
-5.29949e-05
0.000355416
-6.48089e-05
0.000342053
-7.88089e-05
0.000325708
-9.75307e-05
0.000305811
-0.000120597
0.000281218
-0.000150171
0.000250353
-0.000192457
0.000212956
-0.000234323
0.000163572
-0.000313817
0.000110057
-0.000347818
4.395e-05
-0.000413061
-0.000288476
-0.000121398
0.00114719
9.33105e-05
0.001176
0.000243599
0.000770799
0.000386972
0.000730276
0.000505368
0.000597152
0.000614984
0.000551188
0.000711238
0.000483238
0.000798749
0.000438765
0.000876482
0.000389639
0.000945954
0.000348026
0.00100723
0.000306863
0.00106096
0.000268893
0.00110748
0.000232651
0.00114723
0.000198529
0.00118054
0.000166156
0.00120776
0.000135463
0.00122919
0.000106265
0.00124508
7.84419e-05
0.0012557
5.18756e-05
0.00126127
2.64982e-05
0.00126203
2.2859e-06
0.00125819
-2.08854e-05
0.00124997
-4.28749e-05
0.00123761
-6.36886e-05
0.00122135
-8.32661e-05
0.00120147
-0.000101524
0.00117823
-0.000118377
0.00115194
-0.000133734
0.00112291
-0.000147504
0.00109149
-0.000159596
0.00105801
-0.000169928
0.00102285
-0.000178426
0.000986392
-0.000185036
0.000949008
-0.000189719
0.00091109
-0.000192462
0.000873024
-0.000193273
0.000835187
-0.00019219
0.000797942
-0.00018928
0.000761634
-0.00018464
0.000726578
-0.000178399
0.000693062
-0.000170717
0.00066133
-0.000161779
0.00063159
-0.000151792
0.000603999
-0.000140982
0.000578672
-0.000129583
0.000555673
-0.000117835
0.000535021
-0.000105969
0.000516689
-9.42083e-05
0.000500612
-8.27551e-05
0.00048669
-7.17882e-05
0.000474792
-6.14583e-05
0.000464763
-5.1885e-05
0.000456435
-4.31563e-05
0.000449625
-3.53281e-05
0.000444149
-2.84259e-05
0.000439821
-2.24464e-05
0.000436466
-1.73601e-05
0.000433915
-1.31169e-05
0.000432017
-9.64952e-06
0.000430635
-6.87937e-06
0.00042965
-4.72131e-06
0.000428961
-3.08825e-06
0.000428484
-1.89427e-06
0.00042815
-1.05878e-06
0.000427906
-5.093e-07
0.000427709
-1.85854e-07
0.000427527
-3.90816e-08
0.000427334
-2.65814e-08
0.000427112
-1.20505e-07
0.000426843
-2.98841e-07
0.000426513
-5.54299e-07
0.000426108
-8.82556e-07
0.000425613
-1.28704e-06
0.00042501
-1.77783e-06
0.000424278
-2.36889e-06
0.000423394
-3.07925e-06
0.000422329
-3.93053e-06
0.000421049
-4.95105e-06
0.000419514
-6.16986e-06
0.000417676
-7.62868e-06
0.00041548
-9.36502e-06
0.000412857
-1.14455e-05
0.000409732
-1.39159e-05
0.000406003
-1.68947e-05
0.000401563
-2.04281e-05
0.000396257
-2.47504e-05
0.000389931
-2.98727e-05
0.000382333
-3.6298e-05
0.000373237
-4.38988e-05
0.000362206
-5.37776e-05
0.000348898
-6.5501e-05
0.000332539
-8.11719e-05
0.000312503
-0.000100561
0.000287649
-0.000125317
0.000256207
-0.000161015
0.000218011
-0.000196127
0.000167318
-0.000263125
0.000111948
-0.000292448
4.48598e-05
-0.000345973
-0.000243616
-0.00012391
0.000929749
9.95592e-05
0.000952535
0.000251658
0.000618701
0.000396295
0.000585639
0.000515202
0.000478245
0.000625133
0.000441257
0.000721591
0.000386779
0.000809232
0.000351124
0.000887068
0.000311802
0.000956612
0.000278482
0.00101794
0.000245533
0.0010717
0.000215137
0.00111823
0.000186121
0.00115796
0.000158801
0.00119123
0.000132879
0.00121839
0.000108303
0.00123974
8.49225e-05
0.00125553
6.26444e-05
0.00126604
4.13728e-05
0.00127148
2.10549e-05
0.0012721
1.67107e-06
0.00126809
-1.68831e-05
0.00125971
-3.44868e-05
0.00124717
-5.11492e-05
0.00123072
-6.68225e-05
0.00121064
-8.144e-05
0.00118719
-9.49331e-05
0.00116069
-0.00010723
0.00113144
-0.000118256
0.00109978
-0.00012794
0.00106607
-0.000136215
0.00103067
-0.000143024
0.000993956
-0.000148322
0.000956316
-0.000152079
0.000918136
-0.000154282
0.000879803
-0.00015494
0.000841694
-0.000154082
0.000804175
-0.000151761
0.00076759
-0.000148054
0.000732257
-0.000143066
0.000698463
-0.000136923
0.000666456
-0.000129772
0.000636445
-0.00012178
0.00060859
-0.000113127
0.000583006
-0.000104
0.000559761
-9.45893e-05
0.000538874
-8.50825e-05
0.000520323
-7.56568e-05
0.000504042
-6.64745e-05
0.000489933
-5.76792e-05
0.000477866
-4.93915e-05
0.000467689
-4.17079e-05
0.000459232
-3.46987e-05
0.000452313
-2.84094e-05
0.000446748
-2.28609e-05
0.000442352
-1.80506e-05
0.000438948
-1.39556e-05
0.000436367
-1.05361e-05
0.000434456
-7.73883e-06
0.000433078
-5.50113e-06
0.000432112
-3.75514e-06
0.000431455
-2.4313e-06
0.000431021
-1.46093e-06
0.000430742
-7.79333e-07
0.000430561
-3.28073e-07
0.000430434
-5.9574e-08
0.000430331
6.48339e-08
0.000430223
8.06231e-08
0.000430089
1.42217e-08
0.000429915
-1.24773e-07
0.000429684
-3.23536e-07
0.000429383
-5.81434e-07
0.000428996
-9.00066e-07
0.000428505
-1.28757e-06
0.000427892
-1.75506e-06
0.00042713
-2.31771e-06
0.000426192
-2.9928e-06
0.000425044
-3.80302e-06
0.000423646
-4.77162e-06
0.000421949
-5.93211e-06
0.000419899
-7.31453e-06
0.000417426
-8.97251e-06
0.000414453
-1.09426e-05
0.000410878
-1.33203e-05
0.000406593
-1.61423e-05
0.00040144
-1.95977e-05
0.000395262
-2.36945e-05
0.000387802
-2.88386e-05
0.00037883
-3.49266e-05
0.000367898
-4.28455e-05
0.000354652
-5.22546e-05
0.000338304
-6.48244e-05
0.000318179
-8.04357e-05
0.000293149
-0.000100287
0.000261269
-0.000129135
0.000222472
-0.00015733
0.000170765
-0.000211417
0.000113883
-0.000235566
4.5918e-05
-0.000278008
-0.000197698
-0.000126149
0.000704602
0.000104871
0.000721515
0.000258376
0.000465196
0.000403986
0.000440028
0.000523266
0.000358966
0.00063342
0.000331102
0.000730019
0.000290181
0.000817745
0.000263398
0.00089565
0.000233897
0.00096524
0.000208892
0.0010266
0.000184172
0.00108037
0.000161364
0.0011269
0.000139591
0.00116662
0.000119089
0.00119986
9.96359e-05
0.00122697
8.11916e-05
0.00124825
6.36447e-05
0.00126397
4.69253e-05
0.00127438
3.09613e-05
0.00127972
1.57144e-05
0.00128022
1.16923e-06
0.00127609
-1.27571e-05
0.00126757
-2.59663e-05
0.00125489
-3.84695e-05
0.0012383
-5.02311e-05
0.00121806
-6.12009e-05
0.00119446
-7.13272e-05
0.00116779
-8.05562e-05
0.00113836
-8.88327e-05
0.00110652
-9.61026e-05
0.00107263
-0.000102316
0.00103703
-0.00010743
0.00100012
-0.00011141
0.000962275
-0.000114234
0.000923886
-0.000115894
0.00088534
-0.000116394
0.000847014
-0.000115756
0.000809274
-0.000114021
0.000772466
-0.000111246
0.000736908
-0.000107509
0.000702888
-0.000102904
0.000670658
-9.75416e-05
0.000640424
-9.1547e-05
0.000612352
-8.50544e-05
0.000586557
-7.82046e-05
0.000563108
-7.11404e-05
0.000542027
-6.4002e-05
0.000523293
-5.69224e-05
0.000506842
-5.00238e-05
0.000492577
-4.34138e-05
0.000480369
-3.71834e-05
0.000470066
-3.1405e-05
0.000461499
-2.61318e-05
0.000454488
-2.13981e-05
0.000448847
-1.72199e-05
0.000444391
-1.35955e-05
0.000440944
-1.05079e-05
0.000438335
-7.92762e-06
0.000436411
-5.815e-06
0.000435034
-4.12329e-06
0.00043408
-2.80171e-06
0.000433447
-1.79814e-06
0.000433047
-1.06117e-06
0.00043281
-5.42075e-07
0.000432679
-1.96838e-07
0.000432608
1.09055e-08
0.000432566
1.06658e-07
0.000432524
1.23099e-07
0.000432463
7.47401e-08
0.000432363
-2.40225e-08
0.000432211
-1.72088e-07
0.000431993
-3.63101e-07
0.000431692
-5.99647e-07
0.000431293
-8.87681e-07
0.000430773
-1.23549e-06
0.00043011
-1.6544e-06
0.000429274
-2.15734e-06
0.000428233
-2.76132e-06
0.000426945
-3.48378e-06
0.000425362
-4.3499e-06
0.00042343
-5.3822e-06
0.000421079
-6.62107e-06
0.00041823
-8.09386e-06
0.000414782
-9.87265e-06
0.000410625
-1.19846e-05
0.000405599
-1.45726e-05
0.000399547
-1.76419e-05
0.000392207
-2.14988e-05
0.000383345
-2.60651e-05
0.000372508
-3.20077e-05
0.000359329
-3.90761e-05
0.000343016
-4.85118e-05
0.00032285
-6.02693e-05
0.000297725
-7.51626e-05
0.000265548
-9.69581e-05
0.000226345
-0.000118127
0.000173906
-0.000158978
0.000115863
-0.000177523
4.71387e-05
-0.000209283
-0.00015056
-0.000127979
0.000473307
0.000109044
0.000484492
0.000263568
0.000310672
0.000409879
0.000293717
0.000529412
0.000239433
0.000639713
0.000220801
0.000736401
0.000193493
0.000824179
0.000175619
0.000902127
0.00015595
0.000971745
0.000139274
0.00103313
0.000122791
0.00108691
0.000107582
0.00113343
9.30632e-05
0.00117313
7.93903e-05
0.00120635
6.64166e-05
0.00123343
5.41153e-05
0.00125466
4.24125e-05
0.00127033
3.12615e-05
0.00128067
2.06142e-05
0.00128594
1.04462e-05
0.00128636
7.46436e-07
0.00128215
-8.54404e-06
0.00127354
-1.73526e-05
0.00126076
-2.56911e-05
0.00124406
-3.35357e-05
0.00122371
-4.08524e-05
0.00119999
-4.76069e-05
0.0011732
-5.37634e-05
0.00114365
-5.92849e-05
0.00111169
-6.41357e-05
0.00107765
-6.82822e-05
0.00104192
-7.16957e-05
0.00100486
-7.43536e-05
0.000966868
-7.62409e-05
0.000928326
-7.73516e-05
0.000889622
-7.76892e-05
0.000851134
-7.72682e-05
0.000813228
-7.6115e-05
0.00077625
-7.42684e-05
0.000740521
-7.17796e-05
0.000706329
-6.87115e-05
0.000673926
-6.51381e-05
0.000643521
-6.11419e-05
0.000615279
-5.68126e-05
0.000589318
-5.2244e-05
0.000565709
-4.75313e-05
0.000544475
-4.2768e-05
0.000525596
-3.80428e-05
0.000509009
-3.34372e-05
0.000494618
-2.90232e-05
0.000482296
-2.48615e-05
0.000471892
-2.10005e-05
0.000463236
-1.74759e-05
0.000456149
-1.43107e-05
0.000450445
-1.1516e-05
0.00044594
-9.09043e-06
0.000442455
-7.02299e-06
0.000439821
-5.29424e-06
0.000437884
-3.87788e-06
0.000436504
-2.74287e-06
0.000435558
-1.85545e-06
0.00043494
-1.18091e-06
0.000434564
-6.85041e-07
0.000434357
-3.35014e-07
0.000434262
-1.01429e-07
0.000434235
3.78953e-08
0.000434238
1.03598e-07
0.000434246
1.15239e-07
0.000434236
8.44504e-08
0.000434194
1.82181e-08
0.000434101
-7.94583e-08
0.000433945
-2.06863e-07
0.00043371
-3.64348e-07
0.000433378
-5.55913e-07
0.000432929
-7.87119e-07
0.000432341
-1.06546e-06
0.000431583
-1.3995e-06
0.000430622
-1.80056e-06
0.000429418
-2.28025e-06
0.000427924
-2.85535e-06
0.000426083
-3.54088e-06
0.000423825
-4.3638e-06
0.000421074
-5.34232e-06
0.000417726
-6.52463e-06
0.00041367
-7.92876e-06
0.000408747
-9.65022e-06
0.000402798
-1.16923e-05
0.000395559
-1.42599e-05
0.000386794
-1.73004e-05
0.000376045
-2.12588e-05
0.00036294
-2.59709e-05
0.000346685
-3.22563e-05
0.000326525
-4.01094e-05
0.000301385
-5.00224e-05
0.000269046
-6.46189e-05
0.00022963
-7.87112e-05
0.000176733
-0.000106082
0.000117883
-0.000118673
4.85323e-05
-0.000139933
-0.000102027
-0.00012929
0.000237738
0.000111898
0.000243304
0.000267077
0.000155492
0.000413833
0.000146961
0.000533517
0.000119749
0.000643903
0.000110416
0.000740641
9.67548e-05
0.000828446
8.78135e-05
0.000906417
7.79789e-05
0.000976051
6.96405e-05
0.00103744
6.1399e-05
0.00109123
5.37942e-05
0.00113776
4.65339e-05
0.00117745
3.96965e-05
0.00121066
3.32085e-05
0.00123772
2.70566e-05
0.00125893
2.12039e-05
0.00127456
1.5627e-05
0.00128488
1.03019e-05
0.00129011
5.21637e-06
0.00129049
3.67385e-07
0.00128622
-4.28305e-06
0.00127756
-8.68711e-06
0.00126473
-1.28579e-05
0.00124797
-1.67819e-05
0.00122756
-2.04421e-05
0.00120378
-2.38213e-05
0.00117691
-2.69016e-05
0.00114729
-2.96645e-05
0.00111525
-3.20921e-05
0.00108114
-3.41677e-05
0.00104532
-3.58768e-05
0.00100817
-3.7208e-05
0.000970085
-3.8154e-05
0.000931445
-3.87116e-05
0.000892638
-3.88825e-05
0.000854044
-3.8674e-05
0.000816028
-3.80991e-05
0.000778936
-3.71772e-05
0.000743091
-3.59338e-05
0.00070878
-3.44004e-05
0.000676255
-3.26139e-05
0.000645729
-3.06155e-05
0.000617366
-2.84499e-05
0.000591286
-2.61642e-05
0.000567561
-2.38058e-05
0.000546215
-2.14216e-05
0.000527228
-1.90559e-05
0.00051054
-1.67496e-05
0.000496056
-1.45386e-05
0.000483648
-1.24535e-05
0.000473166
-1.05185e-05
0.000464441
-8.75162e-06
0.000457295
-7.16442e-06
0.000451542
-5.76259e-06
0.000446997
-4.54543e-06
0.000443481
-3.50753e-06
0.000440826
-2.63933e-06
0.000438876
-1.92777e-06
0.000437491
-1.35739e-06
0.000436547
-9.11354e-07
0.000435938
-5.72297e-07
0.000435576
-3.23221e-07
0.000435389
-1.4749e-07
0.000435317
-2.96169e-08
0.000435316
3.86721e-08
0.00043535
6.96415e-08
0.000435391
7.47721e-08
0.000435417
5.77795e-08
0.000435412
2.36326e-08
0.000435359
-2.66213e-08
0.000435245
-9.26765e-08
0.000435053
-1.73031e-07
0.000434768
-2.70277e-07
0.000434368
-3.87121e-07
0.00043383
-5.2723e-07
0.000433125
-6.94838e-07
0.00043222
-8.95558e-07
0.000431075
-1.13516e-06
0.000429641
-1.42201e-06
0.000427864
-1.76361e-06
0.000425674
-2.17346e-06
0.000422992
-2.66064e-06
0.000419717
-3.24931e-06
0.000415737
-3.94844e-06
0.000410892
-4.80588e-06
0.000405023
-5.82321e-06
0.000397866
-7.10292e-06
0.000389184
-8.61871e-06
0.000378518
-1.05928e-05
0.000365491
-1.29439e-05
0.000349314
-1.60791e-05
0.000329207
-2.00021e-05
0.000304128
-2.49435e-05
0.00027176
-3.22508e-05
0.000232323
-3.92738e-05
0.000179235
-5.29945e-05
0.000119939
-5.9376e-05
5.01157e-05
-7.01094e-05
-5.19117e-05
-0.000130004
4.97751e-09
0.000113296
4.00585e-09
0.000268787
1.62902e-09
0.000415748
8.36517e-10
0.000535497
-1.54236e-10
0.000645913
-6.21484e-10
0.000742669
-1.02103e-09
0.000830484
-1.24529e-09
0.000908464
-1.39695e-09
0.000978106
-1.52229e-09
0.00103951
-1.66363e-09
0.0010933
-1.85223e-09
0.00113984
-2.13385e-09
0.00117954
-2.53819e-09
0.00121275
-3.09754e-09
0.00123981
-3.82068e-09
0.00126102
-4.73248e-09
0.00127665
-5.81718e-09
0.00128696
-7.09416e-09
0.00129219
-8.49725e-09
0.00129256
-9.92614e-09
0.00128829
-1.18659e-08
0.00127962
-1.36926e-08
0.00126678
-1.55944e-08
0.00125001
-1.75586e-08
0.00122959
-1.95403e-08
0.00120579
-2.15056e-08
0.00117891
-2.34075e-08
0.00114927
-2.5201e-08
0.00111721
-2.68415e-08
0.00108307
-2.82748e-08
0.00104722
-2.94628e-08
0.00101004
-3.03591e-08
0.000971919
-3.09362e-08
0.000933238
-3.11508e-08
0.000894387
-3.09713e-08
0.000855743
-3.03878e-08
0.000817674
-2.93834e-08
0.000780524
-2.79546e-08
0.000744617
-2.61093e-08
0.00071024
-2.38643e-08
0.000677647
-2.12392e-08
0.00064705
-1.82662e-08
0.000618615
-1.49779e-08
0.000592463
-1.14219e-08
0.000568664
-7.64146e-09
0.000547246
-3.69065e-09
0.00052819
3.80152e-10
0.000511436
4.50611e-09
0.000496889
8.63385e-09
0.000484423
1.26974e-08
0.000473887
1.66307e-08
0.000465115
2.03667e-08
0.000457927
2.38359e-08
0.000452138
2.69692e-08
0.000447563
2.97073e-08
0.000444023
3.19921e-08
0.00044135
3.37711e-08
0.000439387
3.49927e-08
0.000437994
3.5635e-08
0.000437047
3.56455e-08
0.00043644
3.50879e-08
0.000436083
3.37798e-08
0.000435903
3.23389e-08
0.000435843
3.03273e-08
0.000435855
2.62904e-08
0.000435904
2.14921e-08
0.00043596
1.79671e-08
0.000436004
1.37268e-08
0.000436019
9.44713e-09
0.000435987
5.18588e-09
0.000435894
3.18315e-10
0.000435725
-4.39962e-09
0.000435464
-8.70286e-09
0.000435089
-1.26284e-08
0.000434578
-1.60596e-08
0.000433902
-1.89108e-08
0.000433027
-2.11097e-08
0.000431915
-2.26087e-08
0.000430516
-2.3384e-08
0.000428776
-2.34377e-08
0.000426625
-2.27995e-08
0.000423986
-2.15242e-08
0.000420757
-1.96895e-08
0.000416826
-1.73923e-08
0.000412035
-1.47452e-08
0.000406223
-1.18701e-08
0.000399129
-8.89727e-09
0.000390516
-5.95175e-09
0.000379927
-3.16007e-09
0.000366984
-6.21864e-10
0.000350903
1.55913e-09
0.000330897
3.33646e-09
0.000305949
4.65249e-09
0.000273693
5.52218e-09
0.000234413
5.97497e-09
0.000181413
6.08443e-09
0.00012203
6.04595e-09
5.19155e-05
5.52247e-09
3.87603e-09
-9.99844e-05
0.0030885
-0.00317407
-1.03445e-05
0.00320026
-0.0032899
8.02036e-05
0.00243085
-0.00252139
0.000172297
0.00237499
-0.00246709
0.000257069
0.00199617
-0.00208094
0.000338055
0.00188116
-0.00196214
0.000410787
0.00164911
-0.00172185
0.00047798
0.00151298
-0.00158017
0.000537945
0.00134127
-0.00140124
0.000591757
0.00120211
-0.00125592
0.000639462
0.00106041
-0.00110811
0.000681411
0.00093088
-0.00097283
0.000717928
0.000806867
-0.000843384
0.000749319
0.000690438
-0.000721829
0.000775854
0.000579935
-0.00060647
0.000797775
0.000475196
-0.000497117
0.000815293
0.000375463
-0.000392981
0.000828597
0.000280322
-0.000293626
0.000837857
0.00018935
-0.000198611
0.000843235
0.000102321
-0.000107699
0.000844899
1.91866e-05
-2.08505e-05
0.000843001
-6.03629e-05
6.22612e-05
0.000837734
-0.000135941
0.000141209
0.000829283
-0.000207433
0.000215883
0.000817852
-0.000274597
0.000286029
0.000803661
-0.000337116
0.000351307
0.00078695
-0.000394663
0.000411373
0.000767977
-0.000446907
0.00046588
0.000747012
-0.000493517
0.000514482
0.000724341
-0.000534174
0.000556845
0.000700261
-0.000568592
0.000592672
0.000675079
-0.000596528
0.00062171
0.000649107
-0.000617801
0.000643773
0.000622661
-0.000632301
0.000658748
0.000596053
-0.000640002
0.00066661
0.000569591
-0.00064097
0.000667433
0.000543569
-0.000635377
0.000661399
0.000518263
-0.000623505
0.00064881
0.000493928
-0.000605752
0.000630087
0.000470789
-0.000582628
0.000605768
0.000449036
-0.000554746
0.000576499
0.000428826
-0.000522809
0.00054302
0.000410272
-0.000487593
0.000506147
0.000393449
-0.000449922
0.000466746
0.000378388
-0.000410642
0.000425703
0.000365082
-0.000370596
0.000383902
0.000353485
-0.000330594
0.000342191
0.000343517
-0.000291393
0.000301362
0.000335065
-0.000253675
0.000262126
0.000327996
-0.000218027
0.000225097
0.000322153
-0.000184934
0.000190777
0.000317369
-0.000154762
0.000159546
0.000313471
-0.000127761
0.000131659
0.000310288
-0.00010406
0.000107244
0.000307656
-8.36744e-05
8.63064e-05
0.000305425
-6.65155e-05
6.87459e-05
0.000303464
-5.24032e-05
5.43645e-05
0.000301659
-4.10886e-05
4.28938e-05
0.000299917
-3.22765e-05
3.40182e-05
0.000298166
-2.56435e-05
2.73942e-05
0.000296352
-2.08612e-05
2.26752e-05
0.000294435
-1.76151e-05
1.95326e-05
0.000292386
-1.56081e-05
1.76568e-05
0.000290188
-1.45766e-05
1.67743e-05
0.00028783
-1.42992e-05
1.66571e-05
0.000285305
-1.45976e-05
1.71228e-05
0.000282607
-1.53351e-05
1.8033e-05
0.000279731
-1.64136e-05
1.92895e-05
0.000276671
-1.77708e-05
2.08311e-05
0.000273418
-1.93751e-05
2.26285e-05
0.00026996
-2.12208e-05
2.46783e-05
0.000266285
-2.33232e-05
2.69989e-05
0.000262374
-2.57146e-05
2.96257e-05
0.000258207
-2.84417e-05
3.26084e-05
0.000253761
-3.15614e-05
3.60069e-05
0.000249011
-3.51427e-05
3.98934e-05
0.000243925
-3.92618e-05
4.4347e-05
0.000238473
-4.40109e-05
4.94632e-05
0.000232618
-4.94873e-05
5.53426e-05
0.00022632
-5.58189e-05
6.21166e-05
0.000219537
-6.31323e-05
6.9916e-05
0.000212219
-7.16196e-05
7.89367e-05
0.000204316
-8.1444e-05
8.93477e-05
0.000195768
-9.29264e-05
0.000101474
0.000186512
-0.000106264
0.00011552
0.000176481
-0.000122045
0.000132077
0.000165595
-0.000140446
0.000151332
0.000153784
-0.000162654
0.000174465
0.000140961
-0.000188593
0.000201417
0.000127071
-0.000220868
0.000234759
0.000112064
-0.000258329
0.000273335
9.59235e-05
-0.000307013
0.000323154
7.89527e-05
-0.000362427
0.000379398
6.09517e-05
-0.000437146
0.000455147
4.40456e-05
-0.000521421
0.000538327
2.65823e-05
-0.000624973
0.000642436
1.71981e-05
-0.000755001
0.000764385
6.54834e-06
-0.000812376
0.000823025
5.85613e-06
-0.000970905
0.000971597
-0.000434012
0.000439868
-9.7645e-05
0.00299915
-2.10295e-06
0.00310472
8.98695e-05
0.00233887
0.000185425
0.00227944
0.00027058
0.00191101
0.000353723
0.00179801
0.000426858
0.00157598
0.000495191
0.00144464
0.000555706
0.00128076
0.000610203