/*--------------------------------*- C++ -*----------------------------------*\
  =========                 |
  \\      /  F ield         | OpenFOAM: The Open Source CFD Toolbox
   \\    /   O peration     | Website:  https://openfoam.org
    \\  /    A nd           | Version:  7
     \\/     M anipulation  |
\*---------------------------------------------------------------------------*/
FoamFile
{
    version     2.0;
    format      ascii;
    class       volVectorField;
    location    "98";
    object      U;
}
// * * * * * * * * * * * * * * * * * * * * * * * * * * * * * * * * * * * * * //

dimensions      [0 1 -1 0 0 0 0];

internalField   nonuniform List<vector> 
8000
(
(-0.244042 -0.000352987 -6.57966e-20)
(-0.244807 -0.000885848 2.74906e-19)
(-0.245785 -0.00155425 -2.75596e-19)
(-0.247156 -0.00201366 7.3596e-19)
(-0.248626 -0.00221852 -5.50768e-19)
(-0.250083 -0.00219437 -7.13933e-19)
(-0.251451 -0.00197454 1.15856e-18)
(-0.252672 -0.00159865 4.0273e-19)
(-0.253712 -0.00110478 2.36273e-19)
(-0.254546 -0.00052593 3.30098e-19)
(-0.255161 0.000111473 -9.9838e-19)
(-0.255551 0.000776705 -8.9819e-19)
(-0.255712 0.00145835 -5.97609e-18)
(-0.255647 0.00214158 -1.64566e-18)
(-0.255359 0.00281423 1.03377e-18)
(-0.254854 0.00346674 1.14116e-18)
(-0.254141 0.0040916 4.05941e-18)
(-0.25323 0.00468286 -8.75163e-19)
(-0.252132 0.0052357 1.25838e-18)
(-0.250859 0.00574625 3.20083e-19)
(-0.249422 0.00621129 1.77045e-18)
(-0.247837 0.00662811 2.87703e-18)
(-0.246117 0.00699444 8.38282e-19)
(-0.244277 0.00730841 -5.967e-19)
(-0.242333 0.00756858 8.28884e-20)
(-0.240299 0.00777399 1.22426e-18)
(-0.238193 0.00792425 -2.38989e-19)
(-0.236029 0.00801963 2.16861e-18)
(-0.233825 0.00806106 1.30823e-20)
(-0.231595 0.00805017 -3.92845e-20)
(-0.229355 0.00798928 9.16443e-19)
(-0.227119 0.00788134 6.50145e-20)
(-0.224899 0.00772983 4.30911e-18)
(-0.222708 0.0075387 -6.7039e-19)
(-0.220556 0.00731223 -3.1719e-18)
(-0.218452 0.00705495 -4.322e-20)
(-0.216405 0.00677149 2.20796e-19)
(-0.21442 0.00646655 4.54653e-18)
(-0.212502 0.00614474 1.90443e-18)
(-0.210655 0.00581058 5.2045e-18)
(-0.208881 0.00546836 1.47241e-18)
(-0.207182 0.00512217 8.73438e-19)
(-0.205555 0.00477581 5.065e-18)
(-0.204001 0.0044328 -5.15785e-19)
(-0.202517 0.0040963 2.3266e-19)
(-0.201099 0.00376918 4.38392e-19)
(-0.199743 0.00345395 -4.37826e-18)
(-0.198445 0.00315278 -7.95757e-19)
(-0.197199 0.00286751 4.89535e-19)
(-0.196 0.00259969 8.35306e-19)
(-0.194841 0.00235052 8.28473e-19)
(-0.193715 0.00212094 -1.02053e-18)
(-0.192615 0.00191163 -1.23729e-18)
(-0.191536 0.001723 -2.31401e-18)
(-0.190469 0.00155527 -1.42792e-18)
(-0.189407 0.00140846 -1.60961e-19)
(-0.188343 0.00128245 -1.55408e-18)
(-0.18727 0.00117696 1.44111e-19)
(-0.186181 0.00109166 -8.5104e-19)
(-0.185068 0.00102612 7.33832e-19)
(-0.183924 0.000980049 5.78477e-18)
(-0.182743 0.000953207 1.54624e-18)
(-0.181516 0.000945406 6.67774e-18)
(-0.180238 0.000956743 4.38363e-19)
(-0.1789 0.000987095 5.95178e-19)
(-0.177497 0.00103658 3.89918e-18)
(-0.17602 0.00110564 1.95987e-18)
(-0.174462 0.00119503 8.66694e-18)
(-0.172815 0.00130583 2.1624e-18)
(-0.171072 0.00143974 6.58942e-19)
(-0.169224 0.00159833 8.19778e-18)
(-0.167263 0.00178387 4.58813e-18)
(-0.165178 0.00199898 1.13422e-17)
(-0.162961 0.00224696 1.95495e-18)
(-0.160601 0.00253194 2.80226e-18)
(-0.158087 0.00285869 -2.97336e-18)
(-0.155406 0.0032328 -2.78208e-18)
(-0.152546 0.00366091 5.55762e-18)
(-0.149492 0.00415076 9.09862e-18)
(-0.14623 0.00471168 1.10983e-18)
(-0.142743 0.0053548 7.95725e-18)
(-0.139014 0.00609356 3.19594e-18)
(-0.135025 0.0069442 9.93575e-18)
(-0.130755 0.00792668 -5.36856e-18)
(-0.126185 0.00906564 7.55325e-18)
(-0.121294 0.0103922 8.1259e-18)
(-0.116062 0.0119446 1.07805e-17)
(-0.110474 0.0137766 -3.82461e-18)
(-0.104515 0.0159489 7.45553e-18)
(-0.0981947 0.018552 -7.55643e-18)
(-0.0915171 0.0216902 -1.87666e-18)
(-0.0845869 0.0255318 -2.39803e-18)
(-0.0774043 0.030233 -5.09241e-19)
(-0.0705172 0.0361091 -2.88124e-19)
(-0.0633976 0.0433703 6.60317e-20)
(-0.059011 0.052002 3.25609e-18)
(-0.0526006 0.0632504 -8.27174e-20)
(-0.0559578 0.0709948 -1.64862e-17)
(-0.0469987 0.0838335 -4.35796e-18)
(-0.036986 0.0507807 -2.4668e-17)
(-0.258171 -0.000247026 -8.79444e-20)
(-0.258719 -0.000667059 2.95283e-20)
(-0.259496 -0.00122239 -1.81177e-19)
(-0.260629 -0.00161839 3.12825e-19)
(-0.261875 -0.00180484 -5.7291e-19)
(-0.26313 -0.00179346 -1.34721e-18)
(-0.264313 -0.00160804 -2.80998e-19)
(-0.265364 -0.00128131 2.2918e-19)
(-0.266243 -0.000846448 5.10106e-20)
(-0.26692 -0.000332823 9.51488e-20)
(-0.267381 0.000233104 -3.91106e-19)
(-0.267618 0.000829061 -1.58263e-18)
(-0.267623 0.00144052 -5.27589e-18)
(-0.267399 0.00205413 -1.71145e-18)
(-0.266949 0.00265882 2.26739e-18)
(-0.266278 0.00324578 1.794e-18)
(-0.265397 0.00380804 1.92803e-18)
(-0.264315 0.00434007 -4.25365e-19)
(-0.263043 0.00483742 2.84299e-18)
(-0.261594 0.00529651 6.13865e-20)
(-0.259981 0.00571437 3.38897e-19)
(-0.258218 0.00608851 6.16032e-18)
(-0.256322 0.00641687 4.16118e-18)
(-0.254306 0.00669775 -1.56603e-18)
(-0.252187 0.00692984 -1.29061e-19)
(-0.249982 0.00711229 1.63409e-18)
(-0.247708 0.00724475 -1.51421e-18)
(-0.24538 0.00732743 3.81073e-18)
(-0.243017 0.00736117 -1.2235e-18)
(-0.240633 0.00734743 -8.84915e-19)
(-0.238245 0.00728828 1.21542e-18)
(-0.235867 0.00718637 -8.37521e-19)
(-0.233513 0.00704481 1.52197e-18)
(-0.231196 0.00686715 -3.3907e-18)
(-0.228927 0.00665725 -4.29106e-19)
(-0.226715 0.00641916 -1.50464e-19)
(-0.224569 0.00615707 -3.3466e-19)
(-0.222496 0.00587522 2.04689e-18)
(-0.220502 0.00557777 2.2282e-18)
(-0.21859 0.00526879 2.66146e-18)
(-0.216763 0.00495219 9.20439e-19)
(-0.215023 0.00463164 6.08188e-19)
(-0.213369 0.00431061 2.47792e-18)
(-0.211801 0.00399226 -3.18864e-18)
(-0.210316 0.00367948 -3.71037e-19)
(-0.208912 0.00337487 9.057e-20)
(-0.207585 0.00308071 -2.06487e-18)
(-0.206331 0.00279898 -4.40779e-19)
(-0.205143 0.00253135 1.73094e-19)
(-0.204018 0.00227923 7.29915e-19)
(-0.202948 0.00204373 5.25545e-19)
(-0.201927 0.00182571 1.14788e-18)
(-0.200948 0.00162577 -1.80837e-18)
(-0.200005 0.0014443 -3.70299e-19)
(-0.199091 0.00128151 -2.52422e-18)
(-0.198198 0.00113741 -4.10976e-19)
(-0.197319 0.00101189 -4.49882e-18)
(-0.196447 0.000904671 -4.20001e-19)
(-0.195576 0.000815425 -2.82617e-18)
(-0.194697 0.000743714 1.97374e-19)
(-0.193803 0.000689248 1.46669e-18)
(-0.192889 0.000651812 5.37179e-19)
(-0.191945 0.000631224 2.84431e-18)
(-0.190967 0.000627599 -2.12051e-18)
(-0.189946 0.000640673 -4.09976e-19)
(-0.188875 0.000670629 7.11269e-18)
(-0.187748 0.000717957 1.74057e-18)
(-0.186557 0.000783285 3.93774e-18)
(-0.185294 0.000867418 1.36324e-18)
(-0.183952 0.000971809 5.20301e-19)
(-0.182522 0.00109801 3.67428e-18)
(-0.180995 0.00124815 8.12585e-18)
(-0.179363 0.00142452 9.41914e-18)
(-0.177614 0.00163009 1.69007e-18)
(-0.175739 0.00186868 5.55108e-18)
(-0.173726 0.00214471 -7.04433e-18)
(-0.171562 0.00246333 -5.77391e-18)
(-0.169233 0.00283067 1.21487e-17)
(-0.166724 0.00325389 1.73634e-18)
(-0.164019 0.00374167 1.96247e-19)
(-0.1611 0.00430441 -3.78855e-19)
(-0.157945 0.00495469 4.67575e-18)
(-0.154533 0.00570781 3.39227e-18)
(-0.15084 0.00658267 -1.34303e-17)
(-0.146838 0.00760272 -2.19862e-18)
(-0.142499 0.00879783 -3.62315e-18)
(-0.137791 0.0102052 2.62718e-18)
(-0.132683 0.0118768 -1.05437e-17)
(-0.127138 0.0138737 -3.16653e-18)
(-0.121139 0.0162862 -1.76276e-17)
(-0.114642 0.0192225 -2.68111e-18)
(-0.107703 0.0228543 -3.92608e-18)
(-0.100214 0.0273661 -1.40201e-18)
(-0.0926446 0.0330533 -1.96149e-19)
(-0.084229 0.0402941 2.17507e-19)
(-0.0776383 0.0488568 7.33692e-18)
(-0.0680476 0.0606156 1.90642e-19)
(-0.0651758 0.068309 -1.36074e-17)
(-0.0500564 0.0803298 -4.15534e-18)
(-0.0252727 0.0465553 -1.12859e-17)
(-0.270818 -0.000172249 -1.1268e-20)
(-0.271209 -0.000498806 -1.68202e-19)
(-0.271822 -0.000954279 -2.12903e-19)
(-0.272751 -0.00128818 1.1277e-19)
(-0.2738 -0.00145294 -1.11174e-18)
(-0.274872 -0.0014496 -5.28991e-19)
(-0.275886 -0.00129442 1.05161e-18)
(-0.276781 -0.00101388 3.11543e-19)
(-0.277511 -0.000636321 -1.55995e-19)
(-0.278045 -0.000187043 -9.48933e-20)
(-0.278367 0.000308689 -1.11344e-19)
(-0.278464 0.000835081 9.85513e-19)
(-0.278328 0.001376 -3.18114e-18)
(-0.277961 0.00191952 -1.67302e-18)
(-0.277364 0.00245563 1.71839e-19)
(-0.276545 0.00297633 3.27895e-18)
(-0.275512 0.00347529 7.80682e-19)
(-0.274276 0.00394747 -4.58967e-19)
(-0.272847 0.00438883 5.76713e-19)
(-0.271239 0.00479608 -7.20687e-19)
(-0.269467 0.00516656 -6.18203e-19)
(-0.267544 0.00549802 7.20509e-18)
(-0.265487 0.0057886 2.40549e-18)
(-0.263312 0.00603678 2.00133e-18)
(-0.261036 0.0062414 9.79917e-20)
(-0.258675 0.0064017 3.10759e-18)
(-0.256248 0.00651735 -4.00763e-18)
(-0.25377 0.00658856 1.70834e-18)
(-0.251261 0.00661603 -4.06966e-18)
(-0.248736 0.00660107 -1.97682e-18)
(-0.246212 0.00654548 2.63934e-18)
(-0.243703 0.00645159 -2.64419e-18)
(-0.241226 0.00632216 -2.91213e-20)
(-0.238791 0.00616031 -1.75975e-18)
(-0.236412 0.00596946 2.57889e-18)
(-0.234099 0.00575319 -3.24153e-19)
(-0.23186 0.00551523 -9.20371e-19)
(-0.229703 0.00525933 1.09098e-18)
(-0.227634 0.0049892 3.70034e-18)
(-0.225658 0.00470845 1.51307e-18)
(-0.223777 0.00442058 5.02054e-19)
(-0.221995 0.00412886 5.82487e-19)
(-0.22031 0.00383638 1.40515e-18)
(-0.218722 0.00354599 -9.02264e-19)
(-0.217231 0.00326026 -7.74654e-19)
(-0.215832 0.00298153 -2.0895e-19)
(-0.214524 0.00271184 -1.26076e-18)
(-0.213301 0.00245298 -1.28798e-19)
(-0.212158 0.00220646 1.44582e-19)
(-0.211091 0.00197354 1.20417e-18)
(-0.210093 0.00175523 4.16308e-19)
(-0.209158 0.00155232 4.26123e-18)
(-0.208279 0.00136536 -3.52753e-18)
(-0.20745 0.0011947 1.35912e-18)
(-0.206663 0.00104055 -5.66477e-18)
(-0.205912 0.000902923 -5.05358e-19)
(-0.20519 0.00078172 -1.03731e-18)
(-0.204489 0.000676705 -1.46011e-19)
(-0.203802 0.000587561 3.38129e-18)
(-0.203122 0.000513864 8.23664e-19)
(-0.202443 0.000455337 -1.71371e-18)
(-0.201757 0.000411761 -4.4555e-19)
(-0.201056 0.000382875 1.29421e-18)
(-0.200335 0.000368948 -7.02877e-18)
(-0.199586 0.000369868 -6.17791e-19)
(-0.198803 0.00038531 3.12602e-18)
(-0.197977 0.000415442 1.59326e-18)
(-0.197102 0.00046082 2.04844e-18)
(-0.19617 0.000522469 8.62024e-19)
(-0.195174 0.000602447 3.91694e-19)
(-0.194104 0.000701402 1.853e-18)
(-0.192952 0.000821193 2.30826e-18)
(-0.19171 0.000963945 -1.65826e-18)
(-0.190366 0.00113241 6.44909e-19)
(-0.18891 0.00133011 1.21582e-17)
(-0.187329 0.00156108 -1.74317e-18)
(-0.185611 0.00183001 4.15457e-18)
(-0.18374 0.00214244 1.28883e-17)
(-0.181701 0.00250495 -6.05965e-18)
(-0.179476 0.00292545 -1.02158e-18)
(-0.177044 0.00341347 -8.63031e-18)
(-0.174383 0.00398059 8.9709e-18)
(-0.171466 0.00464091 -1.1102e-18)
(-0.168265 0.00541192 -1.35283e-17)
(-0.164748 0.00631535 -1.09476e-17)
(-0.160876 0.00737916 -1.80461e-17)
(-0.156608 0.00863822 -2.15786e-18)
(-0.151899 0.0101414 -5.47581e-18)
(-0.146688 0.0119472 -1.30256e-17)
(-0.140934 0.0141422 -1.8932e-17)
(-0.134545 0.0168327 -2.64951e-18)
(-0.127534 0.020184 -8.09038e-18)
(-0.119679 0.0243943 -2.03e-18)
(-0.111369 0.0297348 -8.73033e-20)
(-0.101616 0.036699 9.77527e-20)
(-0.0927725 0.0449017 1.57222e-17)
(-0.080031 0.0565165 1.5072e-18)
(-0.0713485 0.0639549 -2.00997e-17)
(-0.0512305 0.0743419 -4.33138e-18)
(-0.0196578 0.0431127 -8.72218e-18)
(-0.281951 -0.000119376 4.90088e-20)
(-0.282228 -0.000372007 -4.9215e-19)
(-0.28271 -0.000738795 -3.28494e-19)
(-0.283469 -0.00101489 -9.53019e-21)
(-0.284349 -0.00115605 -6.64306e-19)
(-0.28526 -0.00115698 2.85864e-19)
(-0.286124 -0.00102822 6.75968e-19)
(-0.286878 -0.000790606 3.02682e-19)
(-0.287475 -0.000467801 -5.10275e-19)
(-0.287882 -8.07411e-05 -2.78901e-19)
(-0.288078 0.000346039 9.62331e-20)
(-0.288051 0.000801768 -4.17201e-19)
(-0.28779 0.00127113 -3.58023e-18)
(-0.287295 0.00174353 -1.92344e-18)
(-0.28657 0.00221003 -1.1241e-18)
(-0.285619 0.00266349 1.48918e-18)
(-0.284452 0.00309823 -7.54954e-19)
(-0.283078 0.00350976 -1.00863e-18)
(-0.281511 0.00389444 -1.23932e-18)
(-0.279763 0.00424937 -2.0066e-18)
(-0.277849 0.00457214 -1.30921e-18)
(-0.275784 0.00486077 7.01922e-18)
(-0.273585 0.00511361 7.86982e-19)
(-0.271268 0.0053293 -2.32732e-19)
(-0.268851 0.00550684 7.0925e-20)
(-0.266351 0.00564553 -9.29488e-20)
(-0.263787 0.00574508 -3.37247e-18)
(-0.261175 0.00580564 1.46779e-18)
(-0.258535 0.00582784 -3.35759e-18)
(-0.255883 0.00581277 -3.15331e-18)
(-0.253236 0.005762 -4.02597e-19)
(-0.25061 0.00567754 9.53919e-20)
(-0.248019 0.00556178 -1.05713e-18)
(-0.245478 0.00541744 -1.15224e-18)
(-0.242999 0.00524748 9.60833e-19)
(-0.240592 0.00505506 -1.34017e-18)
(-0.238267 0.00484341 -2.16769e-18)
(-0.236033 0.00461581 1.27477e-18)
(-0.233894 0.00437553 4.96922e-19)
(-0.231857 0.00412574 6.71276e-19)
(-0.229925 0.00386949 2.82907e-19)
(-0.228099 0.00360968 7.88908e-19)
(-0.226382 0.00334902 1.15293e-18)
(-0.224773 0.00309002 4.61928e-19)
(-0.22327 0.00283495 -1.56518e-18)
(-0.221871 0.00258586 -2.99823e-19)
(-0.220572 0.00234457 -1.22451e-18)
(-0.219371 0.00211264 1.47054e-19)
(-0.218262 0.00189143 3.47679e-19)
(-0.21724 0.00168205 2.19045e-18)
(-0.216298 0.00148537 7.71215e-19)
(-0.215432 0.0013021 1.38691e-18)
(-0.214634 0.00113273 1.99827e-19)
(-0.213899 0.000977565 4.64797e-18)
(-0.213218 0.000836766 -3.66753e-18)
(-0.212585 0.000710348 1.56114e-19)
(-0.211992 0.000598208 1.96518e-18)
(-0.211434 0.000500111 5.76261e-19)
(-0.210903 0.000415725 1.84702e-18)
(-0.210392 0.000344576 9.897e-19)
(-0.209893 0.000286364 -6.05915e-18)
(-0.209399 0.000240949 -1.09587e-18)
(-0.208905 0.000208169 4.62677e-19)
(-0.208402 0.000188239 -5.57238e-18)
(-0.207884 0.000180145 -1.61804e-19)
(-0.207344 0.000184484 1.67396e-18)
(-0.206775 0.000201951 2.10609e-18)
(-0.206169 0.000232996 1.55406e-18)
(-0.205518 0.000277867 6.92656e-19)
(-0.204816 0.000336784 3.47748e-19)
(-0.204053 0.000412126 9.97121e-19)
(-0.203222 0.000505867 -2.12685e-18)
(-0.202312 0.000619342 9.94027e-20)
(-0.201313 0.000754835 8.24155e-19)
(-0.200213 0.000915528 1.2345e-17)
(-0.199001 0.00110508 -5.46006e-19)
(-0.197662 0.00132768 1.55785e-18)
(-0.196182 0.00158829 5.08043e-18)
(-0.194543 0.00189275 -3.67088e-18)
(-0.192726 0.00224815 -1.75274e-18)
(-0.190709 0.00266304 -5.66813e-18)
(-0.188467 0.00314778 3.04323e-18)
(-0.18597 0.00371508 -7.70394e-18)
(-0.183187 0.00438071 -4.46024e-18)
(-0.180078 0.00516433 -5.06395e-18)
(-0.1766 0.00609136 -2.2961e-17)
(-0.172701 0.00719364 -4.60214e-18)
(-0.168321 0.00851579 -3.23124e-18)
(-0.163383 0.0101124 -9.9923e-18)
(-0.157819 0.0120635 -1.05539e-17)
(-0.151496 0.0144703 -1.22239e-18)
(-0.144384 0.0174855 -1.70359e-17)
(-0.136161 0.0213117 -2.31832e-18)
(-0.12713 0.0261803 8.21984e-20)
(-0.116109 0.0326509 -1.76019e-19)
(-0.105134 0.0402345 1.35201e-17)
(-0.0894917 0.051208 1.59021e-18)
(-0.0756888 0.0582099 -1.92119e-17)
(-0.0514735 0.0669111 -3.73934e-18)
(-0.0168354 0.0395985 -1.37688e-17)
(-0.29154 -8.21758e-05 1.26501e-19)
(-0.291737 -0.000275331 -6.20449e-19)
(-0.292117 -0.000564942 -5.80018e-19)
(-0.292739 -0.000787998 -7.86929e-20)
(-0.293477 -0.000905182 -6.56221e-19)
(-0.29425 -0.000907997 1.50452e-18)
(-0.294984 -0.000802824 6.73781e-19)
(-0.295615 -0.000605607 3.19676e-19)
(-0.296096 -0.000335549 -1.29046e-18)
(-0.296391 -8.83654e-06 -5.49864e-19)
(-0.296479 0.000348922 3.7401e-19)
(-0.296343 0.000734041 -2.38573e-18)
(-0.295973 0.00113161 -1.74329e-18)
(-0.295368 0.00153234 -2.8104e-18)
(-0.294531 0.00192852 -2.66404e-18)
(-0.293466 0.00231394 1.07109e-18)
(-0.292183 0.00268366 -3.23094e-18)
(-0.290692 0.00303376 -2.07502e-18)
(-0.289004 0.00336109 -3.75393e-18)
(-0.287135 0.00366311 -4.35655e-18)
(-0.285098 0.00393773 -2.11574e-18)
(-0.28291 0.00418324 1.20482e-17)
(-0.280587 0.00439819 -2.02674e-18)
(-0.278147 0.00458142 -2.81995e-18)
(-0.275607 0.00473203 -6.63895e-20)
(-0.272986 0.00484943 -3.45776e-18)
(-0.270302 0.00493335 -4.92517e-18)
(-0.267573 0.0049839 2.87901e-18)
(-0.264818 0.00500158 -5.51283e-18)
(-0.262054 0.00498732 -5.84131e-18)
(-0.259299 0.00494244 -3.00764e-18)
(-0.256569 0.00486863 2.77506e-18)
(-0.253879 0.00476793 -2.91489e-18)
(-0.251244 0.00464264 -1.03889e-18)
(-0.248675 0.00449531 2.95241e-19)
(-0.246185 0.00432861 -3.59796e-18)
(-0.243783 0.00414534 -4.50845e-18)
(-0.241478 0.00394828 2.72651e-18)
(-0.239276 0.00374025 -2.64554e-18)
(-0.237183 0.00352396 1.67814e-19)
(-0.235202 0.00330204 2.7896e-20)
(-0.233337 0.00307697 1.62972e-18)
(-0.231588 0.00285109 1.52304e-18)
(-0.229956 0.00262654 1.78867e-18)
(-0.228438 0.00240529 -3.55791e-18)
(-0.227035 0.00218909 -4.20611e-19)
(-0.225741 0.00197951 -1.99033e-18)
(-0.224554 0.0017779 9.1643e-19)
(-0.223469 0.00158541 5.6458e-19)
(-0.222481 0.001403 4.63304e-18)
(-0.221584 0.00123142 1.00974e-18)
(-0.220772 0.00107127 -8.62364e-19)
(-0.220039 0.000922969 3.87572e-18)
(-0.219379 0.000786778 1.10814e-17)
(-0.218784 0.000662827 -5.21557e-18)
(-0.218247 0.000551127 1.62061e-18)
(-0.217762 0.000451582 6.60152e-18)
(-0.217321 0.000363979 1.38881e-18)
(-0.216918 0.000288042 1.10746e-18)
(-0.216546 0.000223341 1.57798e-18)
(-0.216197 0.000169613 -1.51155e-17)
(-0.215864 0.000126677 -1.16735e-18)
(-0.21554 9.39171e-05 1.21245e-19)
(-0.215219 7.18588e-05 -8.14556e-18)
(-0.214893 6.13803e-05 1.3395e-18)
(-0.214556 6.04557e-05 1.83765e-18)
(-0.214201 6.87713e-05 3.75376e-18)
(-0.213819 8.66636e-05 1.56965e-18)
(-0.213405 0.000115084 6.3806e-19)
(-0.212949 0.000159111 6.57368e-19)
(-0.212443 0.000215824 8.96516e-19)
(-0.211879 0.000286843 5.8582e-18)
(-0.211247 0.000374169 2.25255e-18)
(-0.210537 0.000479975 1.56093e-18)
(-0.209736 0.000607123 6.11193e-18)
(-0.208833 0.000758816 -2.36173e-18)
(-0.207812 0.000938633 2.12685e-19)
(-0.206659 0.00115081 9.44585e-19)
(-0.205355 0.00140043 -4.91406e-18)
(-0.203879 0.00169362 -2.97126e-18)
(-0.202209 0.0020378 -6.34164e-18)
(-0.200317 0.002442 7.07075e-19)
(-0.198172 0.00291725 -2.49333e-18)
(-0.195738 0.00347729 3.26986e-18)
(-0.19297 0.00413929 -2.14939e-18)
(-0.189821 0.00492553 -2.44304e-17)
(-0.186227 0.00586401 -5.99957e-18)
(-0.182119 0.00699397 -1.96251e-18)
(-0.177403 0.0083642 -1.38023e-17)
(-0.171991 0.0100458 -7.83305e-18)
(-0.165711 0.0121313 2.08697e-18)
(-0.158495 0.0147558 -1.65062e-17)
(-0.149936 0.0181164 -1.70919e-18)
(-0.140254 0.0223976 8.12926e-19)
(-0.12811 0.0281793 1.96853e-17)
(-0.115227 0.0349169 2.04939e-17)
(-0.0970393 0.0448463 2.44238e-18)
(-0.0788859 0.0512473 -1.19324e-17)
(-0.0512531 0.058474 -3.05978e-18)
(-0.0152692 0.0356158 -8.88396e-18)
(-0.299563 -5.59686e-05 9.1113e-20)
(-0.299704 -0.000200852 -6.44386e-19)
(-0.300007 -0.000423758 -5.74157e-20)
(-0.300522 -0.000598742 -7.32687e-20)
(-0.301145 -0.000692672 8.71295e-19)
(-0.301805 -0.000696096 1.64834e-18)
(-0.302429 -0.000612511 7.80005e-19)
(-0.302957 -0.000453783 3.58115e-19)
(-0.303338 -0.000235104 3.34339e-19)
(-0.30354 2.98965e-05 -8.03325e-19)
(-0.303536 0.000321838 8.24646e-19)
(-0.303308 0.000636767 -1.61714e-18)
(-0.302846 0.000962392 -7.07242e-19)
(-0.302149 0.00129108 -3.31361e-19)
(-0.301218 0.00161639 1.63778e-19)
(-0.300058 0.00193312 1.83761e-18)
(-0.298677 0.00223715 -2.48238e-18)
(-0.297086 0.00252518 1.90191e-18)
(-0.295298 0.00279457 -2.56265e-18)
(-0.293326 0.00304317 -2.68266e-18)
(-0.291186 0.00326923 -2.68557e-18)
(-0.288894 0.00347132 1.31444e-17)
(-0.286467 0.0036482 -2.72507e-18)
(-0.283923 0.00379891 -2.96831e-19)
(-0.281279 0.00392268 3.50286e-19)
(-0.278556 0.004019 -2.88378e-18)
(-0.27577 0.00408763 -2.2739e-18)
(-0.272942 0.00412862 5.16486e-19)
(-0.27009 0.00414239 -5.6886e-18)
(-0.267231 0.00412967 -4.54885e-18)
(-0.264384 0.00409154 5.28083e-19)
(-0.261565 0.00402938 1.13925e-18)
(-0.258791 0.00394488 -6.85522e-19)
(-0.256074 0.00383994 -1.00488e-18)
(-0.253429 0.00371665 1.27984e-20)
(-0.250867 0.00357725 -1.52935e-18)
(-0.248398 0.00342405 -2.13363e-18)
(-0.246032 0.00325937 7.39599e-20)
(-0.243774 0.00308555 -9.35669e-19)
(-0.241631 0.00290485 2.85957e-19)
(-0.239608 0.00271945 -2.05025e-19)
(-0.237706 0.00253142 3.62742e-18)
(-0.235928 0.00234271 2.53947e-18)
(-0.234273 0.00215511 4.07619e-18)
(-0.232742 0.00197025 -8.07759e-19)
(-0.231331 0.00178959 -8.51374e-20)
(-0.230038 0.00161442 -4.01894e-18)
(-0.22886 0.00144588 2.89181e-18)
(-0.227792 0.00128492 1.18001e-18)
(-0.226829 0.00113231 1.87791e-18)
(-0.225966 0.000988698 9.71421e-19)
(-0.225196 0.000854547 -4.15864e-18)
(-0.224514 0.000730194 2.49138e-18)
(-0.223912 0.000615846 6.11545e-18)
(-0.223385 0.000511591 -3.45749e-18)
(-0.222925 0.000417424 5.66158e-18)
(-0.222526 0.000333257 5.42533e-18)
(-0.22218 0.000258895 1.91453e-18)
(-0.22188 0.000194011 1.32906e-18)
(-0.22162 0.000138091 2.47999e-18)
(-0.221391 9.08679e-05 -1.39537e-17)
(-0.221189 5.23709e-05 1.07817e-18)
(-0.221004 2.29189e-05 -1.24568e-19)
(-0.220829 3.17357e-06 -4.75002e-18)
(-0.22066 -1.0724e-05 5.06793e-18)
(-0.220489 -1.6595e-05 3.20589e-18)
(-0.220309 -1.40797e-05 7.78804e-18)
(-0.220112 -2.62253e-06 1.83018e-18)
(-0.219888 1.87609e-05 6.17303e-19)
(-0.219632 4.4856e-05 1.64387e-18)
(-0.219337 8.35066e-05 7.96415e-19)
(-0.218991 0.000135912 3.90446e-18)
(-0.218587 0.000201568 4.77763e-18)
(-0.218112 0.000281975 3.38497e-18)
(-0.217555 0.000379539 3.84894e-18)
(-0.216904 0.00049706 -7.29491e-18)
(-0.216143 0.000637636 -7.35973e-19)
(-0.215257 0.000804847 -2.48212e-18)
(-0.214226 0.00100292 -1.01389e-17)
(-0.21303 0.00123698 -5.41224e-18)
(-0.211644 0.00151319 -1.08941e-17)
(-0.210038 0.0018391 -3.17801e-19)
(-0.20818 0.00222393 6.07383e-19)
(-0.206031 0.00267914 -4.53019e-18)
(-0.203543 0.00321909 -1.83971e-18)
(-0.200661 0.00386244 -2.35714e-17)
(-0.197317 0.00463272 -6.30756e-18)
(-0.193432 0.00556287 -1.57327e-18)
(-0.188897 0.00669438 -6.99901e-18)
(-0.183607 0.00808736 -8.43879e-18)
(-0.177359 0.00982211 8.61039e-18)
(-0.170054 0.0120115 -7.15991e-18)
(-0.16121 0.0148372 5.62636e-20)
(-0.150979 0.0184361 2.09624e-18)
(-0.137891 0.0233676 3.03801e-17)
(-0.123389 0.0290769 1.79063e-17)
(-0.103062 0.0376381 2.19253e-18)
(-0.0813259 0.0432565 -1.39688e-17)
(-0.0507993 0.0492256 -2.91113e-18)
(-0.014243 0.0310404 -1.14502e-17)
(-0.306003 -3.7301e-05 1.01324e-19)
(-0.306106 -0.00014248 -5.58299e-19)
(-0.306353 -0.000307468 5.4298e-19)
(-0.306786 -0.000439068 -7.42644e-20)
(-0.307321 -0.000511011 1.321e-18)
(-0.30789 -0.000514478 5.49583e-19)
(-0.308427 -0.000451096 1.03409e-18)
(-0.308871 -0.000329282 4.12227e-19)
(-0.309173 -0.000160389 1.97924e-18)
(-0.309298 4.36306e-05 -1.69559e-18)
(-0.309219 0.000270637 2.07122e-18)
(-0.308917 0.000515313 -2.22302e-18)
(-0.308382 0.000768798 3.05007e-19)
(-0.30761 0.0010251 2.17383e-18)
(-0.306603 0.00127908 3.30667e-18)
(-0.305366 0.00152661 3.74244e-18)
(-0.303907 0.0017644 1.84662e-18)
(-0.302236 0.00198982 1.69299e-18)
(-0.300367 0.00220074 2.26433e-18)
(-0.298313 0.00239548 -2.44677e-18)
(-0.29609 0.00257261 -3.56565e-18)
(-0.293714 0.00273098 1.09881e-17)
(-0.291203 0.00286961 -2.17401e-18)
(-0.288574 0.0029877 2.46737e-18)
(-0.285847 0.00308464 8.64492e-19)
(-0.28304 0.00315998 -4.44077e-18)
(-0.280173 0.00321352 -3.55546e-19)
(-0.277264 0.00324528 -1.21185e-18)
(-0.274332 0.00325556 -3.30419e-18)
(-0.271397 0.00324491 -5.09988e-18)
(-0.268475 0.00321417 -1.20391e-18)
(-0.265584 0.00316442 3.13828e-19)
(-0.262739 0.00309699 7.62073e-19)
(-0.259956 0.00301337 -1.46684e-18)
(-0.257248 0.00291524 3.60814e-21)
(-0.254627 0.00280435 -6.24725e-19)
(-0.252103 0.00268254 -9.34681e-19)
(-0.249686 0.00255168 -2.09977e-18)
(-0.247382 0.00241361 1.42778e-19)
(-0.245198 0.00227013 8.04079e-19)
(-0.243138 0.002123 -5.85924e-19)
(-0.241206 0.00197386 8.74779e-19)
(-0.239402 0.00182426 4.78096e-18)
(-0.237728 0.00167563 1.00824e-18)
(-0.236182 0.00152927 3.29748e-19)
(-0.234763 0.00138634 3.34966e-19)
(-0.233469 0.00124789 -8.7751e-18)
(-0.232296 0.0011148 -7.69187e-19)
(-0.231239 0.00098782 2.20752e-18)
(-0.230294 0.000867579 -1.33294e-19)
(-0.229456 0.000754562 1.33884e-18)
(-0.228717 0.000649135 -1.05837e-17)
(-0.228074 0.000551546 3.80461e-18)
(-0.227518 0.000461936 4.68935e-18)
(-0.227043 0.000380351 -5.54495e-18)
(-0.226642 0.000306749 5.18444e-18)
(-0.226309 0.000241017 6.99615e-18)
(-0.226036 0.000182965 2.44176e-18)
(-0.225816 0.000132403 2.13968e-18)
(-0.225643 8.89177e-05 4.38636e-18)
(-0.22551 5.21996e-05 -1.24483e-17)
(-0.225408 2.25547e-05 -3.86132e-18)
(-0.225331 -1.0541e-06 -8.69834e-19)
(-0.225273 -2.10309e-05 -4.47316e-18)
(-0.225228 -3.57627e-05 1.48699e-18)
(-0.225185 -4.30682e-05 6.13964e-18)
(-0.225141 -4.28694e-05 4.0407e-18)
(-0.225086 -3.49711e-05 1.36973e-18)
(-0.225016 -1.91882e-05 6.63442e-19)
(-0.22492 5.38556e-07 3.90856e-18)
(-0.224787 2.72279e-05 6.04235e-19)
(-0.224612 6.20981e-05 4.93775e-18)
(-0.224386 0.00010713 9.88522e-18)
(-0.224097 0.000163392 6.55838e-18)
(-0.223733 0.000233074 3.56905e-18)
(-0.22328 0.000318521 -3.25481e-18)
(-0.222724 0.000421933 -5.43806e-19)
(-0.222048 0.000546055 -7.6316e-18)
(-0.221233 0.000694256 -5.90877e-18)
(-0.220257 0.00087061 -1.00319e-17)
(-0.219094 0.00108003 -2.25474e-17)
(-0.217715 0.00132849 1.14111e-19)
(-0.216083 0.00162327 4.54669e-18)
(-0.214159 0.00197342 2.87194e-18)
(-0.211892 0.00239025 -2.00447e-18)
(-0.209222 0.0028885 -1.97891e-17)
(-0.206076 0.00348676 -6.74289e-18)
(-0.202369 0.00421104 -1.83056e-18)
(-0.197978 0.00509452 -5.08551e-18)
(-0.192788 0.00618472 -1.36937e-17)
(-0.186567 0.00754725 1.62828e-18)
(-0.179195 0.00926987 -5.15003e-18)
(-0.170128 0.0115094 3.56886e-18)
(-0.159463 0.0143573 3.40585e-18)
(-0.145631 0.0183106 1.935e-17)
(-0.129831 0.0228544 2.2854e-17)
(-0.107791 0.0297883 1.22932e-18)
(-0.0832153 0.0344389 -5.89839e-18)
(-0.0502496 0.0392711 -1.55606e-18)
(-0.0134489 0.0257614 -4.7134e-18)
(-0.310846 -2.3674e-05 1.66412e-19)
(-0.310923 -9.53569e-05 -2.34413e-19)
(-0.311132 -0.000209298 6.53949e-19)
(-0.311507 -0.000301474 -1.8106e-19)
(-0.311976 -0.000352836 9.10741e-19)
(-0.312479 -0.000356289 -4.85785e-19)
(-0.31295 -0.000312384 1.87011e-18)
(-0.313331 -0.000226675 6.12867e-19)
(-0.313573 -0.000107083 1.36536e-18)
(-0.313641 3.73926e-05 -3.35133e-19)
(-0.313506 0.000199476 8.55594e-19)
(-0.313148 0.000374541 -6.21291e-19)
(-0.312557 0.000556164 2.22576e-18)
(-0.311729 0.000740048 1.35298e-18)
(-0.310665 0.000922488 3.11991e-18)
(-0.30937 0.00110048 1.94259e-18)
(-0.307852 0.00127161 8.33814e-19)
(-0.306121 0.00143396 2.44384e-18)
(-0.30419 0.00158599 1.75399e-18)
(-0.302074 0.00172644 -4.7315e-18)
(-0.299788 0.00185427 -5.4936e-18)
(-0.297349 0.00196861 4.33147e-18)
(-0.294775 0.00206875 8.18378e-19)
(-0.292083 0.00215406 1.14499e-18)
(-0.289292 0.00222407 1.17982e-18)
(-0.286422 0.00227845 -2.75748e-18)
(-0.283493 0.00231699 -4.40063e-18)
(-0.280522 0.00233969 -3.98218e-18)
(-0.277531 0.00234674 -3.31148e-18)
(-0.274536 0.00233852 -1.62562e-18)
(-0.271557 0.00231562 -2.53336e-18)
(-0.268611 0.00227883 1.46666e-20)
(-0.265714 0.0022291 -4.11057e-18)
(-0.26288 0.00216755 -3.21984e-18)
(-0.260124 0.00209539 2.35633e-19)
(-0.257457 0.00201396 -8.54701e-20)
(-0.254891 0.00192458 -4.04996e-19)
(-0.252434 0.00182865 -5.31409e-18)
(-0.250094 0.00172754 -5.24227e-18)
(-0.247878 0.00162258 1.66777e-18)
(-0.24579 0.00151506 -1.39474e-18)
(-0.243833 0.00140621 -1.03338e-18)
(-0.242009 0.00129716 2.6213e-18)
(-0.240318 0.00118898 -2.3843e-18)
(-0.238761 0.00108261 1.32761e-18)
(-0.237335 0.000978929 6.79445e-19)
(-0.236039 0.000878675 -3.9003e-18)
(-0.234868 0.000782501 -2.40254e-18)
(-0.233818 0.000690951 -3.1344e-18)
(-0.232885 0.000604463 -2.57292e-18)
(-0.232064 0.000523381 2.48222e-18)
(-0.231348 0.000447949 -7.24915e-18)
(-0.230731 0.000378325 1.09869e-18)
(-0.230208 0.00031459 -3.67378e-18)
(-0.22977 0.000256752 -3.06355e-18)
(-0.229413 0.000204774 8.45713e-20)
(-0.229127 0.000158577 2.79226e-18)
(-0.228908 0.000118036 3.29581e-18)
(-0.228747 8.27027e-05 4.38327e-18)
(-0.228638 5.19534e-05 -1.6715e-18)
(-0.228574 2.5755e-05 -1.00369e-17)
(-0.228547 4.46855e-06 -8.87409e-18)
(-0.228551 -1.2842e-05 -1.56596e-18)
(-0.228579 -2.98251e-05 -7.178e-18)
(-0.228622 -4.07585e-05 -1.29025e-20)
(-0.228676 -4.76302e-05 1.25206e-18)
(-0.228733 -5.05192e-05 1.88772e-18)
(-0.228785 -4.9168e-05 6.31209e-19)
(-0.228824 -4.27513e-05 1.3176e-18)
(-0.228844 -2.69603e-05 9.01765e-18)
(-0.228836 -9.13883e-06 1.35551e-19)
(-0.22879 1.12692e-05 9.81857e-18)
(-0.228696 3.8954e-05 6.94273e-18)
(-0.228544 7.46563e-05 1.22619e-17)
(-0.228321 0.000119436 4.27818e-18)
(-0.228015 0.000175083 -2.3698e-18)
(-0.227611 0.000243681 -7.44838e-19)
(-0.227091 0.000327371 -1.83223e-18)
(-0.226436 0.000428589 -4.33321e-18)
(-0.225623 0.000550257 -3.56222e-18)
(-0.224627 0.000695927 -1.30188e-17)
(-0.223415 0.000869923 5.53676e-18)
(-0.221953 0.0010775 1.17298e-17)
(-0.220196 0.00132518 1.12506e-17)
(-0.218094 0.00162109 -4.58482e-18)
(-0.215583 0.00197578 -3.05159e-17)
(-0.212586 0.00240264 -7.31687e-18)
(-0.209012 0.00292031 -2.06619e-18)
(-0.204732 0.00355287 -6.75926e-18)
(-0.199619 0.00433429 -7.32047e-18)
(-0.193424 0.00531341 -2.0287e-19)
(-0.186009 0.00655157 -7.17679e-18)
(-0.176783 0.00817274 1.01664e-17)
(-0.165806 0.010226 6.5107e-18)
(-0.151431 0.0131056 2.24759e-17)
(-0.13467 0.0163907 1.98281e-17)
(-0.111347 0.0214939 -1.76441e-18)
(-0.0846501 0.0250009 -3.12165e-18)
(-0.0497073 0.0286843 -6.36737e-19)
(-0.0127858 0.0196963 -2.31892e-18)
(-0.31408 -1.31129e-05 1.75833e-19)
(-0.314143 -5.52746e-05 -5.31423e-20)
(-0.314327 -0.000122934 2.9227e-19)
(-0.314665 -0.000178473 -5.15595e-19)
(-0.315092 -0.000210184 1.13173e-18)
(-0.315551 -0.000213357 3.17033e-19)
(-0.315979 -0.000187978 1.52855e-18)
(-0.316318 -0.000137087 8.18395e-19)
(-0.31652 -6.5312e-05 1.50001e-18)
(-0.316549 2.21779e-05 5.72849e-19)
(-0.316376 0.000118578 3.51612e-19)
(-0.31598 0.000223342 6.26005e-19)
(-0.315352 0.00033251 1.09706e-18)
(-0.314487 0.00044338 1.05378e-18)
(-0.313385 0.000553652 -3.70698e-19)
(-0.312051 0.000661459 7.09487e-19)
(-0.310494 0.000765309 2.2276e-19)
(-0.308723 0.000864009 4.81494e-18)
(-0.306751 0.000956583 1.55153e-18)
(-0.304593 0.00104225 -4.80669e-18)
(-0.302265 0.00112035 -3.37255e-18)
(-0.299784 0.00119032 2.37678e-18)
(-0.297167 0.00125167 3.40092e-18)