/*--------------------------------*- C++ -*----------------------------------*\
  =========                 |
  \\      /  F ield         | OpenFOAM: The Open Source CFD Toolbox
   \\    /   O peration     | Website:  https://openfoam.org
    \\  /    A nd           | Version:  7
     \\/     M anipulation  |
\*---------------------------------------------------------------------------*/
FoamFile
{
    version     2.0;
    format      ascii;
    class       volScalarField;
    location    "88";
    object      p;
}
// * * * * * * * * * * * * * * * * * * * * * * * * * * * * * * * * * * * * * //

dimensions      [0 2 -2 0 0 0 0];

internalField   nonuniform List<scalar> 
175
(
-0.0928758
-0.113424
-0.123084
-0.127095
-0.0948129
-0.0922171
-0.114409
-0.124063
-0.132226
-0.103881
-0.0919473
-0.115302
-0.123734
-0.137505
-0.113004
-0.0913594
-0.116846
-0.124747
-0.142949
-0.122054
-0.0903269
-0.118266
-0.126445
-0.147939
-0.131453
-0.11924
-0.128702
-0.1524
-0.141352
-0.119521
-0.13162
-0.156319
-0.151668
-0.119112
-0.135866
-0.160392
-0.162164
-0.118106
-0.14191
-0.166057
-0.173697
-0.115234
-0.145019
-0.168738
-0.187664
-0.0666946
-0.0613556
-0.0695103
-0.0667361
-0.0637794
-0.0645644
-0.0653131
-0.0656695
-0.0661894
-0.0657434
-0.0664258
-0.064284
-0.0670511
-0.0617127
-0.070909
-0.0673881
-0.0638851
-0.0646769
-0.0654199
-0.0657942
-0.0662983
-0.065903
-0.0665629
-0.064533
-0.0674002
-0.062101
-0.0723772
-0.0679121
-0.0639923
-0.0647895
-0.0655256
-0.0659152
-0.0664007
-0.0660541
-0.0666852
-0.0647764
-0.0677248
-0.0625231
-0.0739461
-0.068274
-0.0640957
-0.0648955
-0.0656211
-0.0660227
-0.066485
-0.0661854
-0.0667764
-0.0650064
-0.0680119
-0.0630035
-0.0756403
-0.0684261
-0.0632009
-0.064168
-0.0649764
-0.0656995
-0.0661264
-0.0665777
-0.0663467
-0.0669122
-0.0653087
-0.0683543
-0.0635897
-0.0771143
-0.0686156
-0.0634523
-0.0644605
-0.0653445
-0.0661222
-0.0666954
-0.0672078
-0.0672732
-0.067892
-0.0667981
-0.0697487
-0.0656912
-0.0788988
-0.0702326
-0.0634128
-0.0644329
-0.0653291
-0.0661055
-0.0666812
-0.0671481
-0.0671986
-0.0676992
-0.0664213
-0.0700105
-0.0638892
-0.0862581
-0.0650015
-0.0632926
-0.0643014
-0.0651851
-0.0659278
-0.0664765
-0.0668457
-0.0669113
-0.0670409
-0.0661396
-0.0684994
-0.0633542
-0.0829113
-0.0552206
-0.0629839
-0.0639482
-0.0647763
-0.0654422
-0.0659021
-0.0661404
-0.0661035
-0.0659069
-0.0652549
-0.0660191
-0.063014
-0.0779684
-0.0493582
-0.06246
-0.0633455
-0.0640771
-0.0646218
-0.0649376
-0.0649972
-0.0647667
-0.0642719
-0.0635122
-0.0632054
-0.0629743
-0.0722786
-0.05134
)
;

boundaryField
{
    inlet
    {
        type            zeroGradient;
    }
    outlet
    {
        type            fixedValue;
        value           nonuniform 0();
    }
    polygon
    {
        type            zeroGradient;
    }
    top
    {
        type            symmetryPlane;
    }
    bottom
    {
        type            symmetryPlane;
    }
    outside
    {
        type            slip;
    }
    procBoundary18to10
    {
        type            processor;
        value           nonuniform List<scalar> 
24
(
-0.0720495
-0.0704869
-0.0693208
-0.0676884
-0.0656705
-0.0888364
-0.0888364
-0.086799
-0.0841225
-0.0809264
-0.077537
-0.0617154
-0.0624837
-0.0630727
-0.0634438
-0.0635574
-0.0633887
-0.0629142
-0.0621133
-0.0610109
-0.0602271
-0.06102
-0.0647602
-0.051964
)
;
    }
    procBoundary18to11
    {
        type            processor;
        value           nonuniform List<scalar> 6(-0.0621575 -0.0623641 -0.0623092 -0.0621912 -0.0619146 -0.0614533);
    }
    procBoundary18to19
    {
        type            processor;
        value           nonuniform List<scalar> 5(-0.0628065 -0.0629129 -0.0630213 -0.0631283 -0.0631283);
    }
    procBoundary18to25
    {
        type            processor;
        value           nonuniform List<scalar> 4(-0.107444 -0.135064 -0.153627 -0.180162);
    }
    procBoundary18to26
    {
        type            processor;
        value           nonuniform List<scalar> 
13
(
-0.0663421
-0.0610333
-0.0681892
-0.0659692
-0.0636737
-0.0644519
-0.0652067
-0.065545
-0.0660807
-0.0655852
-0.0662872
-0.0640444
-0.0640444
)
;
    }
}


// ************************************************************************* //
