/*--------------------------------*- C++ -*----------------------------------*\
  =========                 |
  \\      /  F ield         | OpenFOAM: The Open Source CFD Toolbox
   \\    /   O peration     | Website:  https://openfoam.org
    \\  /    A nd           | Version:  7
     \\/     M anipulation  |
\*---------------------------------------------------------------------------*/
FoamFile
{
    version     2.0;
    format      ascii;
    class       surfaceScalarField;
    location    "10";
    object      phi;
}
// * * * * * * * * * * * * * * * * * * * * * * * * * * * * * * * * * * * * * //

dimensions      [0 3 -1 0 0 0 0];

internalField   nonuniform List<scalar> 
85
(
-0.0229524
0.024747
-0.0226984
0.0250891
-0.0223092
0.0249934
-0.0214105
0.0245841
0.0230588
0.0031234
0.0217789
0.00635542
0.0218571
0.00961705
0.0217318
0.0129036
0.0212976
0.0201177
0.00144452
0.0204918
0.00291608
0.0203855
0.00442876
0.0202191
0.00594367
0.0197827
0.0188572
0.00741785
0.0190446
0.00888067
0.0189227
0.0103148
0.018785
0.0115977
0.0184999
0.0179639
0.00619907
0.0186473
0.00658915
0.0185326
0.00697104
0.0184031
0.00728343
0.0181875
0.0178251
0.00687139
0.0184105
0.00705839
0.0183456
0.00720474
0.0182567
0.00727094
0.0181213
0.0178985
0.00614997
0.0185112
0.00602513
0.0184705
0.00587314
0.0184087
0.00568034
0.0183141
0.0181578
0.00499016
0.0186312
0.00484958
0.0186111
0.00468863
0.0185697
0.00449992
0.0185028
0.0183923
0.00395179
0.0187597
0.00381558
0.0187473
0.00366562
0.0187196
0.00349446
0.0186739
0.0186007
0.00207838
0.00201427
0.00194078
0.00185218
)
;

boundaryField
{
    inlet
    {
        type            calculated;
        value           nonuniform 0();
    }
    outlet
    {
        type            calculated;
        value           nonuniform List<scalar> 5(0.0188169 0.0188114 0.0187931 0.0187625 0.0187143);
    }
    polygon
    {
        type            calculated;
        value           nonuniform 0();
    }
    top
    {
        type            symmetryPlane;
        value           uniform 0;
    }
    bottom
    {
        type            symmetryPlane;
        value           uniform 0;
    }
    outside
    {
        type            calculated;
        value           nonuniform List<scalar> 10(0.0234955 -0.000155357 -0.000157383 -0.00597067 -0.00580175 -0.00663461 -0.00625067 -0.00511011 -0.00408034 -0.00213554);
    }
    procBoundary15to10
    {
        type            processor;
        value           uniform -0.025296;
    }
    procBoundary15to11
    {
        type            processor;
        value           nonuniform List<scalar> 10(-0.0191733 0.0158446 0.00720425 0.0124909 0.00742224 0.00719749 0.00542102 0.00426546 0.00328607 0.00173862);
    }
    procBoundary15to14
    {
        type            processor;
        value           nonuniform List<scalar> 4(-0.0252901 -0.0253431 -0.0253826 -0.0254828);
    }
}


// ************************************************************************* //
