/*--------------------------------*- C++ -*----------------------------------*\
  =========                 |
  \\      /  F ield         | OpenFOAM: The Open Source CFD Toolbox
   \\    /   O peration     | Website:  https://openfoam.org
    \\  /    A nd           | Version:  7
     \\/     M anipulation  |
\*---------------------------------------------------------------------------*/
FoamFile
{
    version     2.0;
    format      ascii;
    class       volVectorField;
    location    "10";
    object      U;
}
// * * * * * * * * * * * * * * * * * * * * * * * * * * * * * * * * * * * * * //

dimensions      [0 1 -1 0 0 0 0];

internalField   nonuniform List<vector> 
50
(
(1.328 0.202284 -9.22649e-18)
(1.34507 0.199361 -2.53682e-18)
(1.33642 0.194199 6.81188e-19)
(1.30763 0.193331 2.06197e-18)
(1.20967 0.181072 3.59307e-18)
(1.15732 -0.00160443 -1.03844e-18)
(1.17375 -0.0506955 -1.21535e-18)
(1.17331 -0.0621775 -3.73904e-20)
(1.16105 -0.102812 -1.61422e-20)
(1.10654 -0.123097 -7.79925e-17)
(1.02907 -0.00146902 -2.47767e-18)
(1.02232 -0.023035 1.45733e-18)
(1.01075 -0.0284372 -1.93383e-18)
(0.980761 -0.0477763 1.82738e-18)
(0.917737 -0.0563641 3.79799e-18)
(1.00838 -0.0526616 2.21507e-17)
(1.00388 -0.0748369 -2.04698e-17)
(0.998421 -0.0808734 2.14038e-17)
(0.9842 -0.0974628 -2.28033e-17)
(0.954341 -0.104941 -3.09551e-18)
(0.907509 -0.0504993 1.41206e-18)
(0.899977 -0.0568924 -1.09537e-18)
(0.891833 -0.0580879 1.25216e-18)
(0.877773 -0.0628142 -1.09167e-18)
(0.854165 -0.0641601 1.18023e-17)
(0.946263 -0.057892 9.25864e-18)
(0.942336 -0.061218 -7.57315e-18)
(0.937428 -0.0617899 7.86832e-18)
(0.929799 -0.0633385 -7.67076e-18)
(0.917089 -0.063207 8.14294e-18)
(0.904196 -0.0541613 -9.15615e-18)
(0.901524 -0.0530241 8.30107e-18)
(0.897587 -0.0517079 -8.6587e-18)
(0.891717 -0.0504033 8.75411e-18)
(0.88219 -0.0484492 1.03166e-18)
(0.938934 -0.0442867 -1.17618e-18)
(0.937658 -0.0427207 5.09781e-19)
(0.935392 -0.0415174 -9.69961e-19)
(0.931769 -0.0400438 6.68919e-19)
(0.925655 -0.0382378 1.60035e-18)
(0.930409 -0.0353348 4.30087e-18)
(0.92955 -0.033621 4.51198e-19)
(0.927689 -0.0326125 4.20121e-18)
(0.924639 -0.0311896 5.59764e-19)
(0.91972 -0.0295897 4.95712e-18)
(0.94085 -0.0185107 3.22105e-19)
(0.940576 -0.0177306 5.14614e-20)
(0.939662 -0.0172477 3.50196e-19)
(0.938133 -0.016528 1.0249e-19)
(0.935719 -0.0156821 1.17754e-18)
)
;

boundaryField
{
    inlet
    {
        type            uniformFixedValue;
        uniformValue    constant (1 0 0);
        value           nonuniform 0();
    }
    outlet
    {
        type            pressureInletOutletVelocity;
        value           nonuniform List<vector> 5((0.94085 -0.0185107 3.22105e-19) (0.940576 -0.0177306 5.14614e-20) (0.939662 -0.0172477 3.50196e-19) (0.938133 -0.016528 1.0249e-19) (0.935719 -0.0156821 1.17754e-18));
    }
    polygon
    {
        type            fixedValue;
        value           nonuniform 0();
    }
    top
    {
        type            symmetryPlane;
    }
    bottom
    {
        type            symmetryPlane;
    }
    outside
    {
        type            zeroGradient;
    }
    procBoundary15to10
    {
        type            processor;
        value           uniform (1.26433 0.248728 -8.19891e-18);
    }
    procBoundary15to11
    {
        type            processor;
        value           nonuniform List<vector> 10((0.995863 0.151739 -4.32575e-18) (0.990781 -0.150617 -1.0731e-17) (0.800108 -0.0682757 -2.60992e-18) (0.895934 -0.111672 2.62675e-17) (0.810923 -0.0648207 2.79777e-18) (0.892728 -0.0619214 9.13553e-18) (0.864462 -0.0458714 -9.76306e-18) (0.914293 -0.0359608 -9.69092e-19) (0.91136 -0.0275762 4.89917e-18) (0.931849 -0.0145602 4.32549e-19));
    }
    procBoundary15to14
    {
        type            processor;
        value           nonuniform List<vector> 4((1.26194 0.163264 -3.66397e-17) (1.26354 0.191611 -1.64687e-17) (1.26549 0.206536 -1.03605e-17) (1.27079 0.232443 2.85187e-18));
    }
}


// ************************************************************************* //
