/*--------------------------------*- C++ -*----------------------------------*\
  =========                 |
  \\      /  F ield         | OpenFOAM: The Open Source CFD Toolbox
   \\    /   O peration     | Website:  https://openfoam.org
    \\  /    A nd           | Version:  7
     \\/     M anipulation  |
\*---------------------------------------------------------------------------*/
FoamFile
{
    version     2.0;
    format      ascii;
    class       volVectorField;
    location    "78";
    object      U;
}
// * * * * * * * * * * * * * * * * * * * * * * * * * * * * * * * * * * * * * //

dimensions      [0 1 -1 0 0 0 0];

internalField   nonuniform List<vector> 
115
(
(1.20543 -0.210045 2.28875e-17)
(1.20166 -0.225622 1.35934e-17)
(1.1982 -0.24236 1.8151e-17)
(1.19531 -0.260428 1.33369e-18)
(1.19304 -0.280246 2.58901e-18)
(1.19142 -0.302331 -1.40452e-17)
(1.19525 -0.210003 1.75672e-17)
(1.1904 -0.226296 1.61589e-17)
(1.18571 -0.243872 3.45916e-17)
(1.18137 -0.262936 2.51325e-18)
(1.17741 -0.283892 -3.12886e-18)
(1.17387 -0.307269 -1.75286e-17)
(1.2189 -0.225639 7.3573e-18)
(1.2163 -0.241139 1.71489e-17)
(1.21432 -0.257696 8.80206e-18)
(1.213 -0.275768 7.21363e-18)
(1.21262 -0.295873 -9.52144e-18)
(1.21409 -0.210843 2.35577e-17)
(1.21077 -0.225929 1.63027e-17)
(1.20772 -0.242132 2.41456e-17)
(1.2052 -0.259539 9.82778e-18)
(1.20332 -0.278617 9.36178e-18)
(1.20216 -0.299908 -1.05586e-17)
(1.23588 -0.226208 5.95229e-18)
(1.2345 -0.240413 1.76441e-17)
(1.2339 -0.255568 3.86683e-18)
(1.23425 -0.271939 4.40474e-18)
(1.23589 -0.289935 -1.23219e-19)
(1.22705 -0.226345 8.32682e-18)
(1.22505 -0.241307 2.0338e-17)
(1.22373 -0.257286 9.32643e-18)
(1.2232 -0.274657 5.76688e-18)
(1.22383 -0.293881 -1.92549e-18)
(1.25307 -0.226793 8.91138e-18)
(1.25263 -0.23975 4.24162e-18)
(1.2531 -0.2535 7.11037e-18)
(1.25474 -0.268213 8.86409e-19)
(1.25786 -0.284158 -4.13305e-18)
(1.26305 -0.301354 -1.09515e-18)
(1.24454 -0.226915 1.12113e-17)
(1.24364 -0.240576 1.01798e-17)
(1.2436 -0.255131 1.19894e-18)
(1.24463 -0.270792 3.37249e-18)
(1.24706 -0.287889 -3.22594e-18)
(1.26858 -0.227397 5.44338e-18)
(1.26891 -0.239236 3.30328e-18)
(1.27024 -0.251691 2.00092e-18)
(1.27286 -0.264863 2.98643e-18)
(1.27712 -0.278886 -1.5148e-18)
(1.26098 -0.22749 6.90949e-18)
(1.26092 -0.239961 2.60616e-18)
(1.26183 -0.253152 2.00864e-18)
(1.26399 -0.267202 4.15628e-18)
(1.26775 -0.282295 6.6776e-19)
(1.28215 -0.22802 2.48729e-18)
(1.28314 -0.238893 -6.33684e-20)
(1.28524 -0.250212 1.47001e-18)
(1.28873 -0.262 1.03246e-18)
(1.29392 -0.274248 -2.52945e-18)
(1.27554 -0.228053 4.50373e-18)
(1.2762 -0.23947 -3.79836e-19)
(1.27794 -0.251438 1.74562e-18)
(1.28107 -0.264036 1.97055e-18)
(1.28597 -0.277329 -3.18415e-18)
(1.29302 -0.219036 3.31326e-18)
(1.29361 -0.228767 3.19938e-18)
(1.2952 -0.238862 9.20033e-21)
(1.29799 -0.24924 9.30497e-19)
(1.30225 -0.259835 7.09797e-22)
(1.30811 -0.270413 -1.34197e-18)
(1.28809 -0.228586 4.33561e-18)
(1.28938 -0.239096 7.77937e-20)
(1.29185 -0.249999 1.19471e-18)
(1.29584 -0.261318 4.48319e-19)
(1.30173 -0.273015 -2.08731e-18)
(1.3019 -0.220691 1.47136e-18)
(1.30299 -0.229986 1.81372e-18)
(1.30516 -0.239551 -7.03634e-19)
(1.30864 -0.249227 5.96028e-19)
(1.31359 -0.25882 -5.21416e-19)
(1.31956 -0.267685 -4.08209e-19)
(1.29772 -0.219626 3.55916e-18)
(1.29856 -0.229066 2.53752e-18)
(1.30042 -0.238823 4.36517e-19)
(1.30356 -0.248808 6.81141e-19)
(1.30827 -0.25898 -1.64915e-19)
(1.31473 -0.269138 -1.12792e-18)
(1.06122 -0.0786475 1.16066e-17)
(1.07483 -0.147441 -1.74213e-17)
(1.12572 -0.142274 1.00086e-16)
(1.15 -0.206035 3.77886e-17)
(1.05353 -0.0826756 1.35698e-18)
(1.06462 -0.15895 1.32956e-17)
(1.11728 -0.150388 1.34043e-17)
(1.1393 -0.22433 1.84237e-17)
(1.04518 -0.0863096 -1.86111e-17)
(1.05358 -0.170362 4.90362e-17)
(1.1079 -0.15825 2.09948e-17)
(1.12752 -0.244173 4.49327e-17)
(1.03621 -0.0896005 -5.60681e-17)
(1.04166 -0.181571 -3.28998e-17)
(1.09729 -0.165838 5.24454e-17)
(1.11451 -0.265919 -8.00437e-18)
(1.02677 -0.092668 2.00406e-18)
(1.02866 -0.192402 -2.48475e-17)
(1.08506 -0.173158 -2.33797e-18)
(1.10025 -0.289947 -4.43895e-17)
(1.01722 -0.0955956 -3.97663e-18)
(1.0142 -0.202564 -6.36701e-17)
(1.07085 -0.180263 -2.91201e-17)
(1.32426 -0.252805 -4.56783e-19)
(1.31893 -0.244734 3.66808e-19)
(1.31485 -0.236365 -3.86708e-19)
(1.3121 -0.227928 1.12267e-18)
(1.31049 -0.219611 1.1567e-18)
)
;

boundaryField
{
    inlet
    {
        type            uniformFixedValue;
        uniformValue    constant (1 0 0);
        value           nonuniform 0();
    }
    outlet
    {
        type            pressureInletOutletVelocity;
        value           nonuniform 0();
    }
    polygon
    {
        type            fixedValue;
        value           nonuniform 0();
    }
    top
    {
        type            symmetryPlane;
    }
    bottom
    {
        type            symmetryPlane;
    }
    outside
    {
        type            zeroGradient;
    }
    procBoundary9to0
    {
        type            processor;
        value           nonuniform List<vector> 2((1.03581 -0.0895378 2.08667e-17) (1.02873 -0.0948396 3.56792e-17));
    }
    procBoundary9to1
    {
        type            processor;
        value           nonuniform List<vector> 
23
(
(1.20961 -0.195496 2.53325e-17)
(1.20033 -0.194835 2.97078e-17)
(1.22191 -0.211177 1.03384e-17)
(1.22191 -0.211177 1.03384e-17)
(1.21785 -0.19671 2.35771e-17)
(1.23798 -0.212897 1.28954e-17)
(1.22969 -0.212361 1.59727e-17)
(1.2543 -0.21458 9.55576e-18)
(1.24619 -0.214086 1.11622e-17)
(1.26911 -0.216158 6.82277e-18)
(1.26186 -0.215702 8.21534e-18)
(1.28207 -0.217621 4.63644e-18)
(1.27576 -0.217185 5.78578e-18)
(1.29324 -0.209547 4.63162e-18)
(1.28775 -0.218503 4.21823e-18)
(1.28775 -0.218503 4.21823e-18)
(1.3017 -0.211537 3.47298e-18)
(1.29772 -0.210378 4.14764e-18)
(1.06825 -0.0742006 1.81101e-17)
(1.08426 -0.135923 -7.06114e-18)
(1.1334 -0.133911 2.85883e-17)
(1.15981 -0.189038 9.22822e-18)
(1.30981 -0.211341 2.50588e-18)
)
;
    }
    procBoundary9to2
    {
        type            processor;
        value           nonuniform List<vector> 2((1.32332 -0.224244 5.56611e-19) (1.32152 -0.217313 7.43612e-19));
    }
    procBoundary9to8
    {
        type            processor;
        value           nonuniform List<vector> 4((1.02106 -0.0995184 3.52663e-17) (1.01264 -0.103359 5.14585e-17) (1.00322 -0.106054 1.42688e-17) (0.992423 -0.107418 -6.04299e-17));
    }
    procBoundary9to10
    {
        type            processor;
        value           nonuniform List<vector> 3((1.33423 -0.244225 -8.1302e-19) (1.32993 -0.237923 5.90902e-20) (1.32613 -0.231172 -2.40058e-19));
    }
    procBoundary9to17
    {
        type            processor;
        value           nonuniform List<vector> 
26
(
(1.19058 -0.327039 -1.17708e-17)
(1.1708 -0.333519 -1.23654e-17)
(1.0847 -0.316741 -7.84223e-17)
(1.21355 -0.318082 7.96779e-19)
(1.20194 -0.323639 -5.71125e-18)
(1.23935 -0.309559 2.55262e-18)
(1.22603 -0.314996 -1.45782e-18)
(1.27063 -0.320672 -2.19466e-18)
(1.2514 -0.306428 3.20568e-18)
(1.27359 -0.298399 -3.33475e-19)
(1.2514 -0.306428 3.20568e-18)
(1.28354 -0.293767 -1.89886e-18)
(1.27359 -0.298399 -3.33475e-19)
(1.30117 -0.28685 -4.23103e-20)
(1.29306 -0.291205 -8.24275e-19)
(1.31521 -0.28045 1.01753e-18)
(1.30977 -0.284848 1.94955e-19)
(1.32406 -0.274198 9.62816e-19)
(1.32976 -0.259928 -1.41273e-18)
(1.32239 -0.278682 1.03108e-18)
(1.0847 -0.316741 -7.84223e-17)
(1.00816 -0.0983987 -2.50461e-18)
(0.997513 -0.21157 2.05404e-17)
(1.0847 -0.316741 -7.84223e-17)
(1.05455 -0.187298 -8.55898e-17)
(1.32976 -0.259928 -1.41273e-18)
)
;
    }
}


// ************************************************************************* //
