/*--------------------------------*- C++ -*----------------------------------*\
  =========                 |
  \\      /  F ield         | OpenFOAM: The Open Source CFD Toolbox
   \\    /   O peration     | Website:  https://openfoam.org
    \\  /    A nd           | Version:  7
     \\/     M anipulation  |
\*---------------------------------------------------------------------------*/
FoamFile
{
    version     2.0;
    format      ascii;
    class       surfaceScalarField;
    location    "14";
    object      phi;
}
// * * * * * * * * * * * * * * * * * * * * * * * * * * * * * * * * * * * * * //

dimensions      [0 3 -1 0 0 0 0];

internalField   nonuniform List<scalar> 
15760
(
-0.00342102
0.000132583
-0.000146072
-0.00340688
0.000137576
-0.000151719
-0.00339301
0.000136637
-0.00015051
-0.00337852
0.000142371
-0.000156856
-0.00336404
0.000142827
-0.000157306
-0.00334907
0.000148237
-0.00016321
-0.00333395
0.000149957
-0.000165078
-0.00331841
0.000154891
-0.000170436
-0.00330263
0.000157474
-0.000173254
-0.00328645
0.000162056
-0.000178235
-0.00326996
0.000165288
-0.000181776
-0.00325305
0.000169812
-0.000186721
-0.00323574
0.000173723
-0.000191026
-0.00321796
0.000178567
-0.000196353
-0.00319968
0.000183303
-0.000201584
-0.00318083
0.000188785
-0.000207633
-0.00316139
0.000194438
-0.000213877
-0.00314131
0.000200682
-0.000220763
-0.00312057
0.000207177
-0.000227919
-0.00309914
0.000214092
-0.000235522
-0.00307701
0.000221219
-0.000243346
-0.00305417
0.000228619
-0.000251455
-0.00303062
0.000236192
-0.000259744
-0.00300634
0.000243992
-0.000268275
-0.0029813
0.00025202
-0.000277058
-0.00295547
0.000260369
-0.000286197
-0.0029288
0.000269114
-0.000295783
-0.00290123
0.00027837
-0.000305944
-0.00287268
0.000288237
-0.000316789
-0.00284307
0.000298812
-0.000328423
-0.00281231
0.000310169
-0.000340921
-0.00278034
0.000322366
-0.000354342
-0.00274705
0.000335444
-0.000368726
-0.00271239
0.000349444
-0.000384112
-0.00267625
0.000364417
-0.000400555
-0.00263855
0.000380442
-0.000418141
-0.00259918
0.000397631
-0.000436998
-0.00255802
0.000416146
-0.000457308
-0.00251491
0.000436189
-0.000479301
-0.00246966
0.000458009
-0.000503255
-0.00242207
0.000481886
-0.000529483
-0.00237187
0.000508128
-0.000558326
-0.00231879
0.000537069
-0.00059015
-0.00226251
0.000569063
-0.000625345
-0.00220267
0.000604492
-0.000664329
-0.00213888
0.000643768
-0.000707555
-0.0020707
0.000687338
-0.000755518
-0.00199763
0.000735679
-0.000808748
-0.00191912
0.000789284
-0.0008678
-0.00183453
0.000848621
-0.000933212
-0.00174318
0.000914157
-0.0010055
-0.00164437
0.000986343
-0.00108516
-0.00153734
0.00106544
-0.00117247
-0.00142134
0.00115143
-0.00126743
-0.00129567
0.00124398
-0.00136964
-0.00115971
0.00134227
-0.00147824
-0.001013
0.00144495
-0.00159166
-0.000855339
0.00154993
-0.00170759
-0.000686876
0.00165428
-0.00182274
-0.000508245
0.00175433
-0.00193297
-0.000320659
0.00184533
-0.00203291
-0.00012638
0.00192303
-0.00211731
7.21673e-05
0.00198073
-0.00217927
0.000273516
0.00200941
-0.00221076
0.000472129
0.00200745
-0.00220606
0.000664
0.00196944
-0.00216131
0.000844907
0.00189388
-0.00207479
0.00101067
0.00178024
-0.001946
0.001158
0.00163198
-0.00177931
0.00128422
0.00145371
-0.00157993
0.00138763
0.00125187
-0.00135528
0.00146745
0.0010337
-0.00111353
0.00152376
0.000806357
-0.000862665
0.00155723
0.000576335
-0.000609802
0.00156897
0.000349008
-0.000360751
0.00156055
0.000128812
-0.000120395
0.00153346
-8.2439e-05
0.000109538
0.00148889
-0.000282156
0.000326722
0.00142945
-0.000466616
0.000526058
0.00135657
-0.00063649
0.000709367
0.00127204
-0.0007904
0.00087493
0.00117779
-0.000927041
0.00102129
0.00107586
-0.00104499
0.00114692
0.000968512
-0.00114227
0.00124962
0.000858256
-0.00121652
0.00132677
0.000747861
-0.00126522
0.00137561
0.00064028
-0.00128613
0.00139371
0.000538515
-0.00127805
0.00137982
0.000445457
-0.0012413
0.00133435
0.000363536
-0.00117868
0.0012606
0.000294252
-0.0010954
0.00116469
0.000237976
-0.000999686
0.00105596
0.00019396
-0.000902189
0.000946204
0.000159808
-0.000816334
0.000850486
0.000134006
-0.000757257
0.00078306
0.000111849
-0.000733293
0.000755449
9.72525e-05
-0.000769778
0.000784374
8.0407e-05
-0.000798309
0.000815155
5.60077e-05
-0.000908674
0.000933073
-0.000525685
0.000581693
-0.00341483
0.000118839
-0.0034003
0.000123048
-0.00338618
0.000122512
-0.0033713
0.00012749
-0.00335652
0.000128046
-0.00334113
0.000132857
-0.00332566
0.000134478
-0.00330968
0.000138915
-0.00329349
0.000141282
-0.00327685
0.000145417
-0.00325991
0.000148346
-0.00324252
0.00015242
-0.00322473
0.000155938
-0.00320645
0.000160282
-0.00318766
0.000164522
-0.00316831
0.000169426
-0.00314835
0.000174483
-0.00312774
0.000180072
-0.00310646
0.000185893
-0.00308447
0.000192099
-0.00306175
0.000198508
-0.00303831
0.000205171
-0.00301411
0.000211999
-0.00298916
0.000219035
-0.00296341
0.000226278
-0.00293685
0.000233805
-0.00290942
0.000241681
-0.00288106
0.000250008
-0.00285169
0.000258873
-0.00282124
0.000268366
-0.00278963
0.000278556
-0.00275677
0.0002895
-0.00272256
0.000301239
-0.00268693
0.000313813
-0.00264978
0.000327271
-0.00261102
0.000341681
-0.00257054
0.000357145
-0.00252819
0.000373801
-0.00248383
0.000391828
-0.00243726
0.000411444
-0.00238828
0.000432896
-0.00233661
0.000456461
-0.00228197
0.000482435
-0.00222405
0.000511136
-0.00216246
0.000542908
-0.00209681
0.000578118
-0.00202664
0.000617165
-0.00195143
0.000660473
-0.00187062
0.000708475
-0.00178358
0.000761578
-0.0016896
0.000820178
-0.00158796
0.000884702
-0.0014779
0.000955377
-0.00135865
0.00103219
-0.0012295
0.00111482
-0.00108981
0.00120258
-0.000939119
0.00129426
-0.000777211
0.00138802
-0.000604227
0.00148129
-0.000420783
0.00157089
-0.000228092
0.00165263
-2.892e-05
0.00172385
0.000177051
0.00177476
0.000384558
0.0018019
0.000590007
0.001802
0.000789262
0.00177019
0.000978059
0.00170508
0.0011522
0.0016061
0.00130821
0.00147597
0.00144326
0.00131866
0.00155543
0.0011397
0.00164371
0.000945418
0.00170792
0.000742145
0.00174855
0.000535713
0.00176657
0.000330985
0.00176326
0.000132121
0.00173995
-5.91313e-05
0.00169851
-0.000240716
0.00164052
-0.000408626
0.0015678
-0.00056377
0.00148213
-0.000704731
0.00138542
-0.000830328
0.00127969
-0.00093926
0.0011672
-0.00102978
0.00105047
-0.00109978
0.00093229
-0.00114704
0.000815727
-0.00116956
0.000703845
-0.00116617
0.000599572
-0.00113702
0.000505361
-0.00108447
0.000422958
-0.001013
0.000353047
-0.000929775
0.000295231
-0.000844373
0.000247393
-0.000768496
0.000207593
-0.000717458
0.000171035
-0.000696735
0.000137769
-0.000736511
0.000100533
-0.000761074
4.39354e-05
-0.000852076
-0.00048175
-0.0034088
0.000104758
-0.00339405
0.000108296
-0.00337958
0.00010804
-0.0033644
0.000112307
-0.00334927
0.000112917
-0.00333354
0.000117124
-0.00331768
0.000118621
-0.00330131
0.000122544
-0.0032847
0.000124674
-0.00326763
0.000128342
-0.00325023
0.000130954
-0.00323237
0.000134562
-0.00321411
0.000137675
-0.00319534
0.000141509
-0.00317606
0.000145246
-0.0031562
0.000149564
-0.00313573
0.000154015
-0.0031146
0.000158937
-0.00309277
0.00016407
-0.00307022
0.000169549
-0.00304693
0.000175215
-0.00302288
0.000181115
-0.00299804
0.000187167
-0.00297242
0.000193409
-0.00294597
0.000199834
-0.00291868
0.000206509
-0.00289048
0.000213487
-0.00286133
0.000220856
-0.00283115
0.000228692
-0.00279986
0.000237077
-0.00276738
0.000246073
-0.00273361
0.000255734
-0.00269847
0.0002661
-0.00266187
0.000277209
-0.0026237
0.000289105
-0.00258387
0.00030185
-0.00254226
0.00031553
-0.00249872
0.000330265
-0.00245311
0.000346211
-0.00240522
0.000363554
-0.00235483
0.000382511
-0.00230169
0.000403322
-0.00224551
0.000426249
-0.00218594
0.000451571
-0.00212262
0.000479591
-0.00205514
0.000510632
-0.00198302
0.000545043
-0.00190574
0.000583193
-0.00182272
0.000625459
-0.00173333
0.00067219
-0.00163686
0.00072371
-0.00153258
0.000780416
-0.00141971
0.000842507
-0.00129748
0.000909963
-0.00116518
0.000982514
-0.00102215
0.00105955
-0.000867918
0.00114003
-0.000702263
0.00122236
-0.000525302
0.00130433
-0.000337606
0.00138319
-0.000140404
0.00145543
6.42727e-05
0.00151918
0.000275516
0.00156351
0.00048859
0.00158883
0.000700181
0.0015904
0.000906118
0.00156425
0.00110214
0.00150906
0.00128402
0.00142423
0.00144813
0.00131185
0.00159149
0.0011753
0.00171196
0.00101923
0.0018083
0.000849084
0.00188008
0.000670363
0.00192758
0.000488216
0.0019516
0.000306965
0.00195328
0.00013044
0.0019339
-3.97571e-05
0.00189526
-0.000202076
0.00183874
-0.000352099
0.00176624
-0.00049127
0.00167953
-0.000618025
0.00158052
-0.000731319
0.00147125
-0.000829986
0.00135397
-0.000912495
0.0012312
-0.000977012
0.00110575
-0.00102159
0.000980643
-0.00104446
0.000859051
-0.00104458
0.000743988
-0.00102196
0.000638038
-0.000978518
0.000543119
-0.000918082
0.000460143
-0.000846799
0.000388919
-0.000773148
0.000327591
-0.000707168
0.000273726
-0.000663593
0.000222698
-0.000645707
0.00017153
-0.000685343
0.000116418
-0.000705962
4.11328e-05
-0.000776791
-0.000440617
-0.00340317
9.03762e-05
-0.0033882
9.33173e-05
-0.0033734
9.32491e-05
-0.00335794
9.68401e-05
-0.00334248
9.74598e-05
-0.00332642
0.000101063
-0.00331021
0.000102408
-0.00329346
0.000105799
-0.00327646
0.000107674
-0.00325897
0.000110856
-0.00324115
0.000113133
-0.00322285
0.00011626
-0.00320414
0.000118958
-0.0031849
0.00012227
-0.00316514
0.000125495
-0.0031448
0.000129217
-0.00312384
0.000133054
-0.0031022
0.000137298
-0.00307986
0.000141727
-0.00305677
0.000146462
-0.00303292
0.000151364
-0.00300828
0.000156474
-0.00298283
0.000161723
-0.00295656
0.000167138
-0.00292944
0.000172715
-0.00290144
0.000178505
-0.00287251
0.000184555
-0.00284259
0.000190937
-0.00281161
0.000197718
-0.0027795
0.000204968
-0.00274617
0.000212743
-0.00271153
0.000221091
-0.00267548
0.00023005
-0.00263793
0.000239655
-0.00259877
0.000249945
-0.00255789
0.000260974
-0.00251518
0.000272815
-0.00247048
0.00028557
-0.00242364
0.000299371
-0.00237446
0.000314375
-0.00232272
0.000330767
-0.00226815
0.000348753
-0.00221045
0.000368556
-0.0021493
0.000390419
-0.00208431
0.0004146
-0.00201506
0.000441378
-0.00194107
0.000471052
-0.00186181
0.000503937
-0.0017767
0.000540351
-0.0016851
0.00058059
-0.0015863
0.000624908
-0.00147955
0.00067367
-0.00136409
0.000727046
-0.00123915
0.000785016
-0.00110398
0.000847345
-0.000957943
0.000913519
-0.000800563
0.000982651
-0.000631598
0.0010534
-0.000451155
0.00112389
-0.000259749
0.00119179
-5.88357e-05
0.00125452
0.000150926
0.00130942
0.000366445
0.00134799
0.000584453
0.00137082
0.000801459
0.0013734
0.00101333
0.00135238
0.00121582
0.00130657
0.00140467
0.00123537
0.00157617
0.00114035
0.00172717
0.0010243
0.00185533
0.000891066
0.00195918
0.000745229
0.00203808
0.000591465
0.00209208
0.000434218
0.00212181
0.000277234
0.00212825
0.000123996
0.00211258
-2.40863e-05
0.0020766
-0.000166093
0.00202152
-0.000297019
0.00194927
-0.00041902
0.00186162
-0.000530374
0.00176047
-0.000630175
0.00164789
-0.000717403
0.00152614
-0.000790744
0.00139776
-0.000848632
0.00126557
-0.000889397
0.00113263
-0.000911523
0.00100213
-0.000914077
0.000877147
-0.000896976
0.000760373
-0.000861744
0.000653872
-0.000811582
0.000558737
-0.000751664
0.000474936
-0.000689347
0.000400813
-0.000633045
0.000333584
-0.000596364
0.000268811
-0.000580934
0.000201391
-0.000617924
0.000130632
-0.000635203
4.27524e-05
-0.000688911
-0.000397865
-0.00339805
7.57274e-05
-0.00338286
7.81252e-05
-0.00336778
7.81686e-05
-0.00335206
8.11169e-05
-0.0033363
8.17025e-05
-0.00331994
8.47023e-05
-0.0033034
8.58696e-05
-0.00328632
8.87164e-05
-0.00326896
9.03145e-05
-0.0032511
9.29936e-05
-0.00323288
9.49202e-05
-0.00321418
9.75512e-05
-0.00319504
9.98213e-05
-0.00317537
0.000102601
-0.00315518
0.000105305
-0.00313438
0.000108422
-0.00311297
0.000111635
-0.00309086
0.000115191
-0.00306803
0.000118903
-0.00304445
0.000122876
-0.00302008
0.000126993
-0.0029949
0.000131291
-0.00296888
0.000135709
-0.00294201
0.00014027
-0.00291427
0.000144968
-0.00288561
0.000149844
-0.00285599
0.000154936
-0.00282535
0.000160304
-0.00279364
0.000166002
-0.00276076
0.00017209
-0.00272663
0.000178616
-0.00269116
0.000185623
-0.00265426
0.000193142
-0.00261581
0.000201207
-0.00257571
0.000209849
-0.00253386
0.000219115
-0.00249011
0.000229066
-0.00244432
0.000239786
-0.00239633
0.000251381
-0.00234594
0.000263984
-0.00229292
0.000277747
-0.00223701
0.00029284
-0.00217791
0.000309451
-0.00211527
0.00032778
-0.00204871
0.000348044
-0.00197781
0.000370475
-0.00190208
0.000395323
-0.00182099
0.000422848
-0.00173395
0.000453315
-0.00164032
0.000486961
-0.0015394
0.00052398
-0.00143042
0.000564699
-0.00131264
0.00060926
-0.00118527
0.000657643
-0.00104757
0.000709651
-0.000898912
0.000764861
-0.000738804
0.000822543
-0.000567001
0.000881595
-0.000383598
0.000940487
-0.000189062
0.000997252
1.47587e-05
0.0010507
0.000228791
0.00109538
0.000448082
0.0011287
0.000670333
0.00114857
0.000892014
0.00115172
0.00110905
0.00113535
0.00131723
0.00109839
0.0015123
0.0010403
0.00169043
0.000962221
0.00184836
0.000866378
0.00198356
0.000755866
0.00209435
0.000634435
0.00217987
0.000505949
0.00223995
0.000374129
0.00227507
0.000242122
0.00228607
0.000112997
0.0022739
-1.19191e-05
0.00224045
-0.000132644
0.00218685
-0.000243415
0.00211496
-0.000347129
0.00202655
-0.000441969
0.00192355
-0.000527171
0.00180802
-0.000601875
0.00168225
-0.00066498
0.00154881
-0.000715185
0.00141052
-0.000751108
0.00127048
-0.000771488
0.0011319
-0.000775491
0.000997903
-0.000762981
0.000871296
-0.000735137
0.000754273
-0.000694559
0.000648085
-0.000645476
0.000552829
-0.000594092
0.000467025
-0.000547241
0.00038764
-0.000516979
0.00031045
-0.000503744
0.000228853
-0.000536327
0.000144502
-0.000550852
4.70057e-05
-0.000591414
-0.000350859
-0.00339356
6.08515e-05
-0.00337818
6.27409e-05
-0.00336285
6.28382e-05
-0.0033469
6.51689e-05
-0.00333088
6.56832e-05
-0.00331426
6.80811e-05
-0.00329744
6.9046e-05
-0.00328006
7.13371e-05
-0.00326238
7.26397e-05
-0.00324419
7.48015e-05
-0.00322563
7.63624e-05
-0.00320656
7.84842e-05
-0.00318706
8.03152e-05
-0.00316701
8.25519e-05
-0.00314643
8.4726e-05
-0.00312524
8.72307e-05
-0.00310342
8.98116e-05
-0.00308089
9.26677e-05
-0.00305764
9.56521e-05
-0.00303361
9.88476e-05
-0.00300878
0.000102163
-0.00298312
0.000105627
-0.0029566
0.00010919
-0.0029292
0.000112871
-0.0029009
0.000116663
-0.00287165
0.000120599
-0.00284142
0.000124706
-0.00281015
0.000129033
-0.00277777
0.000133624
-0.00274421
0.000138525
-0.00270937
0.000143777
-0.00267316
0.000149415
-0.00263548
0.000155466
-0.00259623
0.000161957
-0.0025553
0.000168915
-0.00251256
0.000176377
-0.00246789
0.000184392
-0.00242113
0.000193026
-0.00237211
0.000202364
-0.00232063
0.00021251
-0.00226647
0.000223586
-0.00220936
0.000235726
-0.00214899
0.000249082
-0.00208502
0.000263813
-0.00201707
0.000280092
-0.0019447
0.000298106
-0.00186743
0.000318053
-0.00178472
0.000340141
-0.00169599
0.000364581
-0.00160059
0.000391556
-0.00149781
0.000421202
-0.00138691
0.000453806
-0.00126714
0.000489481
-0.0011377
0.000528208
-0.000997876
0.000569827
-0.000847022
0.000614006
-0.000684651
0.000660172
-0.000510512
0.000707456
-0.000324684
0.000754659
-0.000127596
0.000800163
7.96271e-05
0.000843476
0.000296033
0.000878977
0.000518443
0.000906293
0.000744206
0.000922805
0.000969818
0.000926105
0.00119126
0.000913903
0.00140435
0.000885297
0.00160485
0.000839807
0.00178883
0.000778232
0.00195294
0.000702274
0.00209448
0.000614329
0.00221157
0.00051734
0.00230314
0.000414375
0.00236885
0.000308424
0.00240895
0.000202022
0.00242422
9.77243e-05
0.00241553
-3.22764e-06
0.00238443
-0.000101545
0.00233234
-0.000191319
0.00226094
-0.000275729
0.00217202
-0.000353051
0.0020675
-0.000422652
0.00194947
-0.000483848
0.00182024
-0.00053575
0.00168238
-0.000577324
0.00153876
-0.000607489
0.00139248
-0.000625206
0.00124676
-0.000629769
0.0011048
-0.000621022
0.000969499
-0.000599835
0.000843177
-0.000568237
0.000727236
-0.000529534
0.000621897
-0.000488752
0.000525845
-0.000451189
0.000435883
-0.000427017
0.000348017
-0.000415878
0.000254551
-0.00044286
0.000158604
-0.000454905
5.29692e-05
-0.00048578
-0.00029789
-0.00338981
4.5792e-05
-0.00337426
4.71949e-05
-0.00335873
4.73035e-05
-0.00334259
4.90351e-05
-0.00332636
4.94479e-05
-0.00330952
5.12447e-05
-0.00329246
5.19869e-05
-0.00327484
5.37129e-05
-0.0032569
5.47042e-05
-0.00323844
5.63363e-05
-0.00321959
5.75186e-05
-0.00320023
5.91198e-05
-0.00318042
6.05018e-05
-0.00316005
6.21868e-05
-0.00313915
6.38238e-05
-0.00311763
6.57081e-05
-0.00309546
6.76495e-05
-0.0030726
6.97982e-05
-0.00304899
7.20443e-05
-0.00302459
7.44507e-05
-0.00299938
7.69496e-05
-0.00297331
7.9562e-05
-0.00294637
8.2251e-05
-0.00291853
8.50301e-05
-0.00288976
8.78933e-05
-0.00286003
9.0865e-05
-0.00282929
9.39652e-05
-0.00279748
9.72294e-05
-0.00276455
0.00010069
-0.00273041
0.000104384
-0.00269497
0.00010834
-0.00265814
0.000112587
-0.00261982
0.000117144
-0.0025799
0.000122034
-0.00253826
0.000127277
-0.00249478
0.0001329
-0.00244933
0.000138941
-0.00240175
0.000145448
-0.00235188
0.000152485
-0.00229949
0.000160128
-0.00224438
0.000168469
-0.00218626
0.000177609
-0.00212484
0.000187659
-0.00205977
0.00019874
-0.00199066
0.000210981
-0.00191707
0.000224522
-0.00183853
0.000239511
-0.00175449
0.000256104
-0.00166437
0.000274457
-0.00156752
0.000294707
-0.00146325
0.000316932
-0.00135082
0.000341376
-0.00122946
0.000368122
-0.0010984
0.000397151
-0.000956922
0.000428345
-0.000804375
0.000461459
-0.000640274
0.000496071
-0.00046436
0.000531543
-0.000276696
0.000566995
-7.77381e-05
0.000601205
0.000131843
0.000633894
0.000350292
0.000660528
0.000575153
0.000681433
0.000803695
0.000694263
0.00103249
0.000697309
0.00125758
0.000688816
0.0014748
0.000668072
0.00167993
0.000634684
0.00186899
0.000589171
0.0020385
0.000532758
0.00218565
0.000467183
0.00230837
0.000394616
0.00240541
0.000317341
0.00247623
0.000237604
0.00252093
0.000157323
0.00254019
7.84643e-05
0.00253465
2.31265e-06
0.00250592
-7.28198e-05
0.00245538
-0.000140784
0.00238465
-0.000204994
0.00229551
-0.000263915
0.0021899
-0.000317038
0.00206991
-0.00036386
0.00193788
-0.000403715
0.0017964
-0.000435851
0.00164835
-0.000459436
0.00149682
-0.000473673
0.00134506
-0.000478011
0.00119634
-0.000472299
0.00105364
-0.000457136
0.000919405
-0.000434004
0.000795189
-0.000405319
0.000681337
-0.0003749
0.000576709
-0.000346561
0.000478007
-0.000328316
0.000381484
-0.000319354
0.000278586
-0.000339963
0.000173133
-0.000349451
6.01916e-05
-0.000372839
-0.000237698
-0.00338689
3.05964e-05
-0.00337122
3.15254e-05
-0.00335553
3.16151e-05
-0.00333926
3.27611e-05
-0.00332286
3.30494e-05
-0.00330586
3.4246e-05
-0.00328862
3.47496e-05
-0.00327082
3.59036e-05
-0.00325268
3.65712e-05
-0.00323401
3.76642e-05
-0.00321495
3.84577e-05
-0.00319536
3.95296e-05
-0.00317531
4.04548e-05
-0.00315471
4.15815e-05
-0.00313356
4.26754e-05
-0.00311178
4.39339e-05
-0.00308936
4.52304e-05
-0.00306623
4.66653e-05
-0.00304235
4.81658e-05
-0.00301768
4.97741e-05
-0.00299217
5.14452e-05
-0.0029658
5.3193e-05
-0.00293855
5.4993e-05
-0.00291037
5.68539e-05
-0.00288125
5.87713e-05
-0.00285114
6.07612e-05
-0.00282001
6.28365e-05
-0.00278781
6.50207e-05
-0.00275445
6.73356e-05
-0.00271987
6.98051e-05
-0.00268398
7.24496e-05
-0.00264668
7.52874e-05
-0.00260787
7.83334e-05
-0.00256744
8.16013e-05
-0.00252527
8.51058e-05
-0.00248123
8.88651e-05
-0.0024352
9.29035e-05
-0.002387
9.72537e-05
-0.00233647
0.000101957
-0.00228341
0.000107065
-0.00222758
0.000112638
-0.00216871
0.000118742
-0.0021065
0.000125451
-0.00204061
0.000132846
-0.00197064
0.000141014
-0.00189617
0.000150046
-0.00181669
0.00016004
-0.00173169
0.000171102
-0.00164057
0.000183335
-0.00154269
0.000196827
-0.00143737
0.000211611
-0.00132387
0.000227878
-0.00120143
0.000245682
-0.00106929
0.000265005
-0.00092671
0.000285768
-0.000773062
0.000307811
-0.000607853
0.000330862
-0.000430812
0.000354502
-0.000241979
0.000378162
-4.1849e-05
0.000401075
0.000169229
0.000422816
0.000389066
0.000440692
0.000615616
0.000454883
0.000846153
0.000463725
0.00107733
0.000466128
0.00130526
0.000460896
0.0015258
0.000447531
0.00173473
0.000425751
0.00192805
0.000395855
0.00210218
0.000358624
0.00225418
0.000315187
0.00238183
0.000266963
0.0024837
0.000215468
0.0025591
0.000162203
0.00260796
0.000108464
0.00263083
5.56015e-05
0.0026288
4.33672e-06
0.00260214
-4.61625e-05
0.00255325
-9.18922e-05
0.00248348
-0.000135218
0.00239456
-0.000175001
0.00228843
-0.000210907
0.0021672
-0.000242627
0.00203321
-0.000269728
0.00188906
-0.000291697
0.00173759
-0.000307972
0.00158194
-0.000318018
0.00142538
-0.00032145
0.00127122
-0.000318145
0.00112255
-0.000308467
0.000981932
-0.000293383
0.000851057
-0.000274443
0.0007304
-0.000254244
0.000619017
-0.000235177
0.000513565
-0.000222864
0.000410571
-0.00021636
0.00030076
-0.000230152
0.000188083
-0.000236775
6.85727e-05
-0.000253328
-0.000169126
-0.00338489
1.5315e-05
-0.00336915
1.57774e-05
-0.00335336
1.5828e-05
-0.00333699
1.63978e-05
-0.00332049
1.65459e-05
-0.00330339
1.71435e-05
-0.00328604
1.73978e-05
-0.00326811
1.79756e-05
-0.00324985
1.83112e-05
-0.00323104
1.8859e-05
-0.00321184
1.92571e-05
-0.00319211
1.97943e-05
-0.00317191
2.02577e-05
-0.00315115
2.08217e-05
-0.00312984
2.1369e-05
-0.00310791
2.19986e-05
-0.00308533
2.2647e-05
-0.00306203
2.33647e-05
-0.00303798
2.41154e-05
-0.00301312
2.49202e-05
-0.00298743
2.57567e-05
-0.00296087
2.66319e-05
-0.00293341
2.75336e-05
-0.00290502
2.84659e-05
-0.00287568
2.94266e-05
-0.00284534
3.04235e-05
-0.00281397
3.1463e-05
-0.0027815
3.25567e-05
-0.00274788
3.37154e-05
-0.00271303
3.49511e-05
-0.00267686
3.62742e-05
-0.00263926
3.76938e-05
-0.00260015
3.92175e-05
-0.0025594
4.08522e-05
-0.0025169
4.26054e-05
-0.00247252
4.44861e-05
-0.00242612
4.65064e-05
-0.00237755
4.86825e-05
-0.00232663
5.1035e-05
-0.00227315
5.35893e-05
-0.00221689
5.6375e-05
-0.00215757
5.94256e-05
-0.0020949
6.27779e-05
-0.00202852
6.64719e-05
-0.00195806
7.05505e-05
-0.00188308
7.50596e-05
-0.00180308
8.00485e-05
-0.00171755
8.55688e-05
-0.00162589
9.16721e-05
-0.00152747
9.84058e-05
-0.00142162
0.000105769
-0.00130761
0.000113866
-0.00118467
0.000122744
-0.00105205
0.000132378
-0.000909006
0.000142728
-0.000754916
0.000153721
-0.000589279
0.000165225
-0.000411817
0.00017704
-0.000222561
0.000188906
-2.20615e-05
0.000200575
0.000189677
0.000211077
0.000410208
0.000220161
0.000637691
0.0002274
0.000869451
0.000231965
0.00110222
0.000233358
0.00133216
0.000230958
0.00155518
0.000224511
0.00176707
0.000213864
0.00196377
0.000199146
0.00214167
0.000180732
0.00229768
0.000159173
0.00242948
0.000135166
0.00253548
0.000109469
0.00261485
8.2828e-05
0.00266742
5.58977e-05
0.00269365
2.93678e-05
0.00269417
3.81516e-06
0.00267
-2.19873e-05
0.00262295
-4.48473e-05
0.00255433
-6.65991e-05
0.00246605
-8.67202e-05
0.00236004
-0.000104897
0.0022384
-0.000120987
0.00210344
-0.000134769
0.00195773
-0.000145988
0.00180413
-0.000154366
0.00164574
-0.00015963
0.00148587
-0.000161583
0.00132788
-0.000160155
0.00117492
-0.000155504
0.00102965
-0.000148118
0.000893925
-0.000138714
0.000768349
-0.000128668
0.000652173
-0.000119001
0.000542088
-0.000112779
0.000434909
-0.000109181
0.00032074
-0.000115982
0.000203341
-0.000119377
7.85274e-05
-0.000128515
-9.05982e-05
-0.00338388
1.18627e-12
-0.0033681
1.33095e-12
-0.00335228
1.31276e-12
-0.00333588
1.66806e-12
-0.00331933
2.08351e-12
-0.00330219
2.13639e-12
-0.00328479
2.33956e-12
-0.00326682
2.60507e-12
-0.0032485
2.6419e-12
-0.00322965
2.3525e-12
-0.00321039
1.51801e-12
-0.00319059
1.56909e-12
-0.00317034
1.61878e-12
-0.00314951
1.3909e-12
-0.00312815
1.39247e-12
-0.00310615
1.32227e-12
-0.0030835
1.17826e-12
-0.00306014
1.28609e-12
-0.00303602
1.49501e-12
-0.0030111
1.29138e-12
-0.00298534
1.25988e-12
-0.00295871
1.16156e-12
-0.00293118
9.68381e-13
-0.00290271
3.40529e-13
-0.00287329
-7.32544e-13
-0.00284286
-1.09722e-12
-0.0028114
-1.37658e-12
-0.00277884
-1.77967e-12
-0.00274513
-2.01132e-12
-0.00271018
-2.21568e-12
-0.0026739
-2.69329e-12
-0.00263621
-3.13118e-12
-0.00259699
-3.76103e-12
-0.00255614
-4.20063e-12
-0.00251353
-4.30523e-12
-0.00246905
-4.69682e-12
-0.00242254
-5.18548e-12
-0.00237386
-4.96557e-12
-0.00232282
-5.46112e-12
-0.00226923
-5.97992e-12
-0.00221286
-6.3158e-12
-0.00215343
-6.84142e-12
-0.00209065
-7.1485e-12
-0.00202418
-7.51023e-12
-0.00195363
-7.68313e-12
-0.00187857
-7.66827e-12
-0.00179852
-7.18422e-12
-0.00171296
-6.92469e-12
-0.00162128
-6.33666e-12
-0.00152288
-5.87648e-12
-0.00141711
-4.27718e-12
-0.00130324
-2.82543e-12
-0.0011805
-1.93013e-12
-0.00104812
-1.38821e-12
-0.000905392
1.62365e-12
-0.000751671
5.00284e-12
-0.000586446
7.81147e-12
-0.000409406
1.18916e-11
-0.000220499
1.61209e-11
-1.99239e-05
2.34185e-11
0.000191153
2.71579e-11
0.000411314
2.65103e-11
0.000638714
2.8273e-11
0.000870679
3.12357e-11
0.00110404
3.34691e-11
0.00133499
3.61089e-11
0.00155951
3.83973e-11
0.00177337
3.77938e-11
0.00197252
3.67117e-11
0.00215325
3.30718e-11
0.00231242
2.88035e-11
0.00244759
2.33915e-11
0.00255706
1.66431e-11
0.00263988
9.00861e-12
0.00269578
3.76534e-12
0.00272515
-1.72697e-12
0.00272896
-8.13558e-12
0.00270698
-1.48961e-11
0.00266213
-2.00553e-11
0.00259553
-2.38195e-11
0.00250881
-2.69695e-11
0.00240391
-2.94958e-11
0.00228293
-3.17524e-11
0.00214816
-3.30056e-11
0.00200217
-3.3134e-11
0.0018478
-3.34212e-11
0.00168817
-3.31346e-11
0.00152659
-3.15823e-11
0.00136644
-2.85935e-11
0.00121093
-2.42766e-11
0.00106281
-1.8805e-11
0.0009241
-1.24544e-11
0.000795432
-5.81488e-12
0.000676432
5.99716e-13
0.000563653
5.84886e-12
0.000454472
9.87551e-12
0.000338489
1.24226e-11
0.000219113
1.38303e-11
9.05982e-05
1.32454e-11
1.0031e-11
-0.000698276
0.00963774
-0.00950818
-0.00082769
0.00961724
-0.00948783
-0.000957421
0.00958713
-0.0094574
-0.00108801
0.00955806
-0.00942747
-0.00121977
0.00953193
-0.00940016
-0.00135294
0.00950954
-0.00937638
-0.00148791
0.00949165
-0.00935669
-0.00162508
0.00947875
-0.00934158
-0.0017651
0.00947173
-0.00933172
-0.00190897
0.00947246
-0.00932859
-0.00205856
0.00948458
-0.00933498
-0.00221664
0.00951538
-0.0093573
-0.00238704
0.00957369
-0.00940329
-0.00257088
0.00966981
-0.00948598
-0.00276213
0.00979074
-0.00959948
-0.00291958
0.00988418
-0.00972673
-0.00293392
0.00974017
-0.00972583
-0.00255302
0.00891237
-0.00929326
-0.00147549
0.00643943
-0.00751696
0.00207183
-0.00354732
-0.000707121
0.00976699
-0.000836506
0.00974663
-0.00096628
0.0097169
-0.00109697
0.00968874
-0.00122873
0.00966369
-0.00136188
0.0096427
-0.00149673
0.00962649
-0.00163366
0.00961568
-0.00177327
0.00961135
-0.00191663
0.00961581
-0.00206559
0.00963354
-0.00222284
0.00967263
-0.00239107
0.00974191
-0.00256825
0.009847
-0.00273741
0.00995989
-0.00283698
0.00998375
-0.00272761
0.0096308
-0.00217613
0.0083609
-0.00104358
0.00530687
0.00102826
-0.000715736
0.009896
-0.000844986
0.00987588
-0.00097476
0.00984668
-0.00110544
0.00981942
-0.00123718
0.00979543
-0.00137027
0.00977579
-0.00150497
0.00976119
-0.00164166
0.00975237
-0.00178094
0.00975063
-0.00192391
0.00975878
-0.00207243
0.00978206
-0.00222887
0.00982907
-0.00239427
0.00990731
-0.00256146
0.0100142
-0.00270119
0.0100996
-0.00273231
0.0100149
-0.00249912
0.00939761
-0.00180762
0.0076694
-0.000672113
0.00417136
0.000356143
-0.00072409
0.0100248
-0.000853172
0.010005
-0.000982876
0.00997638
-0.00111348
0.00995003
-0.00124513
0.00992709
-0.00137808
0.00990873
-0.00151256
0.00989568
-0.00164894
0.00988874
-0.00178782
0.00988951
-0.00193033
0.00990128
-0.00207824
0.00992997
-0.00223328
0.00998412
-0.00239416
0.0100682
-0.00254723
0.0101673
-0.00265016
0.0102025
-0.00260594
0.00997065
-0.00225459
0.00904627
-0.00144929
0.00686409
-0.000411509
0.00313358
-5.53669e-05
-0.000732156
0.0101533
-0.00086106
0.0101339
-0.000990644
0.010106
-0.00112112
0.0100805
-0.00125262
0.0100586
-0.00138535
0.0100415
-0.00151953
0.0100299
-0.00165548
0.0100247
-0.00179384
0.0100279
-0.00193572
0.0100432
-0.0020827
0.010077
-0.00223549
0.0101369
-0.00238953
0.0102222
-0.00252359
0.0103013
-0.00258228
0.0102612
-0.00245799
0.00984636
-0.0020021
0.00859037
-0.00112606
0.00598806
-0.00023184
0.00223936
-0.000287207
-0.000739937
0.0102815
-0.00086866
0.0102626
-0.0009981
0.0102354
-0.00112842
0.0102108
-0.00125973
0.0101899
-0.00139219
0.0101739
-0.00152598
0.0101636
-0.00166141
0.0101601
-0.0017991
0.0101656
-0.00194007
0.0101841
-0.00208548
0.0102224
-0.00223453
0.010286
-0.0023787
0.0103664
-0.00248887
0.0104115
-0.00249812
0.0102705
-0.00229298
0.00964122
-0.00174884
0.00804623
-0.000853076
0.00509229
-0.000118806
0.00150509
-0.000406013
-0.000747399
0.0104095
-0.000875932
0.0103911
-0.0010052
0.0103647
-0.00113533
0.0103409
-0.00126639
0.010321
-0.00139851
0.0103061
-0.00153184
0.010297
-0.00166667
0.010295
-0.00180359
0.0103025
-0.00194355
0.0103241
-0.00208719
0.010366
-0.00223183
0.0104306
-0.00236417
0.0104987
-0.0024465
0.0104938
-0.0024021
0.0102261
-0.00211776
0.00935688
-0.00150111
0.00742958
-0.00063669
0.00422787
-5.87928e-05
0.000927196
-0.000464806
-0.000754603
0.0105371
-0.000882972
0.0105195
-0.00101207
0.0104938
-0.00114203
0.0104709
-0.00127285
0.0104518
-0.00140464
0.0104378
-0.00153749
0.0104298
-0.00167168
0.0104292
-0.00180773
0.0104385
-0.00194632
0.0104627
-0.00208708
0.0105068
-0.00222472
0.0105682
-0.00234068
0.0106147
-0.00238997
0.0105431
-0.00229072
0.0101269
-0.00193609
0.00900226
-0.00127012
0.00676361
-0.000475594
0.00343334
-3.63565e-05
0.000487959
-0.000501163
-0.00076136
0.0106643
-0.000889576
0.0106477
-0.0010184
0.0106226
-0.0011481
0.0106006
-0.00127857
0.0105822
-0.0014099
0.0105692
-0.00154215
0.0105621
-0.00167557
0.0105626
-0.00181066
0.0105736
-0.00194789
0.0105999
-0.00208612
0.010645
-0.0022177
0.0106998
-0.00231885
0.0107159
-0.00233639
0.0105606
-0.00218202
0.00997248
-0.00175932
0.00857956
-0.00106493
0.00606922
-0.000364131
0.00273254
-3.80221e-05
0.00016185
-0.000539185
-0.000767637
0.0107902
-0.000896677
0.0107767
-0.00102514
0.010751
-0.00115505
0.0107305
-0.00128536
0.0107126
-0.00141654
0.0107004
-0.00154845
0.010694
-0.00168138
0.0106955
-0.00181564
0.0107079
-0.00195108
0.0107354