/*--------------------------------*- C++ -*----------------------------------*\
  =========                 |
  \\      /  F ield         | OpenFOAM: The Open Source CFD Toolbox
   \\    /   O peration     | Website:  https://openfoam.org
    \\  /    A nd           | Version:  7
     \\/     M anipulation  |
\*---------------------------------------------------------------------------*/
FoamFile
{
    version     2.0;
    format      ascii;
    class       volVectorField;
    location    "14";
    object      U;
}
// * * * * * * * * * * * * * * * * * * * * * * * * * * * * * * * * * * * * * //

dimensions      [0 1 -1 0 0 0 0];

internalField   nonuniform List<vector> 
8000
(
(0.971424 -0.0119776 8.778e-20)
(0.964377 -0.0124301 -2.39299e-19)
(0.962759 -0.0123322 1.18768e-19)
(0.95715 -0.0128512 -5.6316e-19)
(0.954306 -0.012884 5.94821e-19)
(0.949344 -0.01337 -3.16886e-19)
(0.945771 -0.0135191 -9.16259e-19)
(0.941057 -0.0139601 5.70591e-19)
(0.937016 -0.0141879 6.32495e-19)
(0.932342 -0.0145968 1.26488e-18)
(0.927963 -0.014884 1.85259e-18)
(0.923206 -0.0152881 1.9901e-18)
(0.918536 -0.0156373 3.40002e-18)
(0.913608 -0.0160711 -2.87912e-18)
(0.908645 -0.0164955 -1.24638e-18)
(0.903469 -0.0169873 -1.15545e-18)
(0.898184 -0.0174945 -3.32104e-18)
(0.892698 -0.0180549 6.10586e-19)
(0.887057 -0.0186375 -2.81433e-18)
(0.881216 -0.0192574 -6.62809e-19)
(0.875197 -0.0198959 -5.55888e-18)
(0.868979 -0.0205585 -1.95168e-18)
(0.862571 -0.0212361 4.34597e-19)
(0.855964 -0.0219339 -8.32647e-19)
(0.849158 -0.0226522 -1.38446e-18)
(0.842142 -0.0233995 -1.8244e-18)
(0.834908 -0.024183 -1.15365e-18)
(0.827438 -0.0250131 -3.60435e-18)
(0.819718 -0.0258988 3.35679e-19)
(0.811725 -0.0268489 -2.96443e-18)
(0.803438 -0.0278698 -1.488e-18)
(0.794835 -0.0289666 -1.97688e-18)
(0.785894 -0.0301429 -8.18911e-18)
(0.776595 -0.0314022 4.73163e-18)
(0.766916 -0.0327492 4.04183e-18)
(0.756834 -0.0341908 -4.92127e-18)
(0.746326 -0.0357377 -6.95108e-18)
(0.735363 -0.0374046 -1.45659e-17)
(0.723908 -0.0392103 -5.08098e-18)
(0.711921 -0.0411775 -1.37338e-17)
(0.69935 -0.0433321 -7.32985e-19)
(0.686139 -0.0457024 -5.33496e-18)
(0.672218 -0.048319 -1.10008e-17)
(0.657514 -0.0512145 5.11673e-18)
(0.64194 -0.0544244 -1.82072e-18)
(0.625404 -0.0579871 2.84156e-18)
(0.607799 -0.0619448 1.17918e-17)
(0.589007 -0.0663438 -4.44839e-18)
(0.568895 -0.0712331 -1.19839e-18)
(0.54731 -0.0766613 5.38821e-19)
(0.524083 -0.0826679 3.28242e-18)
(0.499029 -0.0892924 6.40041e-18)
(0.471956 -0.0965588 2.86454e-18)
(0.442656 -0.104469 4.79727e-18)
(0.410922 -0.112996 -2.32699e-18)
(0.376552 -0.122069 -8.59534e-19)
(0.339368 -0.131565 1.45355e-18)
(0.299228 -0.141295 -1.45839e-18)
(0.256052 -0.150993 4.38044e-19)
(0.209858 -0.160319 -2.0579e-19)
(0.160756 -0.16883 2.21911e-18)
(0.109057 -0.176103 2.54738e-18)
(0.0553074 -0.181578 1.2367e-17)
(0.000202999 -0.184437 5.08619e-18)
(-0.055566 -0.184389 8.13547e-18)
(-0.111006 -0.181001 1.87393e-17)
(-0.164928 -0.174125 1.41446e-17)
(-0.216218 -0.163698 6.3763e-17)
(-0.26374 -0.150047 2.46333e-17)
(-0.30657 -0.133599 3.81793e-18)
(-0.343948 -0.114955 7.45311e-17)
(-0.375351 -0.0947938 3.17774e-17)
(-0.400509 -0.0737824 1.18277e-16)
(-0.419359 -0.052524 2.51238e-17)
(-0.432007 -0.0315137 3.13583e-17)
(-0.438717 -0.011157 -1.50819e-17)
(-0.43977 0.00810436 -4.02984e-17)
(-0.435553 0.0264309 4.41836e-17)
(-0.426489 0.0434454 1.01029e-16)
(-0.413105 0.0590589 1.66673e-17)
(-0.395794 0.0731554 6.84606e-17)
(-0.375015 0.0856223 2.45204e-17)
(-0.351269 0.0963292 9.41418e-17)
(-0.325075 0.105094 -4.60965e-17)
(-0.297003 0.111697 4.26918e-17)
(-0.267696 0.11591 3.85547e-17)
(-0.237867 0.11753 5.99853e-17)
(-0.208303 0.116459 -3.00924e-17)
(-0.179824 0.11274 3.23817e-17)
(-0.153265 0.106651 -5.44237e-17)
(-0.129313 0.0986976 -1.34489e-17)
(-0.108599 0.0896547 -1.34414e-17)
(-0.0913018 0.0805084 -4.95565e-18)
(-0.0778046 0.0724917 -9.02042e-19)
(-0.0670222 0.0669081 -4.05149e-19)
(-0.0609632 0.0644959 1.89241e-17)
(-0.0540214 0.0673702 4.57846e-19)
(-0.05692 0.0695073 -7.97449e-17)
(-0.047583 0.0796457 -2.08636e-17)
(-0.0368058 0.0481248 -1.12051e-16)
(0.969744 -0.0108187 1.92219e-19)
(0.962522 -0.0112143 -3.27995e-20)
(0.960884 -0.0111435 8.15108e-20)
(0.955117 -0.0116053 5.21117e-20)
(0.952218 -0.0116431 7.28186e-19)
(0.947112 -0.0120828 7.20378e-19)
(0.943452 -0.0122221 5.18833e-19)
(0.9386 -0.0126242 4.83181e-19)
(0.934448 -0.0128335 5.26926e-19)
(0.929633 -0.0132067 9.43853e-19)
(0.925125 -0.0134686 1.65145e-18)
(0.920222 -0.0138361 3.15744e-18)
(0.915412 -0.0141524 2.92558e-18)
(0.910333 -0.0145448 -2.89034e-18)
(0.905222 -0.0149277 -3.34535e-18)
(0.899892 -0.0153713 -1.17026e-18)
(0.894452 -0.0158286 -1.00472e-18)
(0.888806 -0.0163344 -9.73183e-19)
(0.883002 -0.0168608 -5.15528e-18)
(0.876993 -0.0174219 -1.09537e-18)
(0.870799 -0.0180008 -5.08188e-18)
(0.864397 -0.0186024 -6.80816e-18)
(0.857799 -0.0192185 -1.77585e-18)
(0.85099 -0.0198533 2.77157e-18)
(0.843973 -0.0205067 -1.08931e-18)
(0.836736 -0.0211861 -1.48511e-18)
(0.829271 -0.0218974 7.83981e-19)
(0.821563 -0.02265 -6.64749e-18)
(0.813595 -0.0234519 3.56166e-18)
(0.805347 -0.0243113 -3.16045e-18)
(0.796796 -0.0252343 -1.43416e-18)
(0.78792 -0.0262259 1.91906e-18)
(0.778695 -0.0272898 -1.71599e-18)
(0.7691 -0.0284295 8.83377e-18)
(0.75911 -0.0296492 -2.95583e-18)
(0.748701 -0.0309555 -2.1545e-18)
(0.737848 -0.0323574 -5.41996e-18)
(0.726518 -0.0338681 -8.06148e-18)
(0.714676 -0.035504 -5.40614e-18)
(0.702277 -0.0372853 -5.83612e-18)
(0.68927 -0.0392349 -2.24832e-19)
(0.675595 -0.0413783 -2.64943e-18)
(0.661182 -0.043743 -1.51321e-18)
(0.645954 -0.0463586 1.3087e-17)
(0.62982 -0.0492571 -1.32741e-18)
(0.612684 -0.0524734 2.28988e-18)
(0.594434 -0.0560455 4.42992e-18)
(0.574947 -0.0600149 -2.96421e-18)
(0.554084 -0.0644259 -7.10465e-19)
(0.531691 -0.0693216 -1.41289e-19)
(0.50759 -0.0747341 1.45681e-18)
(0.481593 -0.0806958 -4.97231e-19)
(0.4535 -0.0872304 5.19941e-18)
(0.423102 -0.0943389 2.13443e-18)
(0.390186 -0.101995 2.56571e-18)
(0.35455 -0.110137 1.00053e-19)
(0.316012 -0.118654 7.81008e-18)
(0.274434 -0.127378 -6.57307e-19)
(0.229733 -0.136071 2.99633e-18)
(0.181936 -0.144437 -1.28664e-19)
(0.13114 -0.152082 1.3218e-18)
(0.077665 -0.158706 1.58794e-18)
(0.0221129 -0.163611 6.5978e-18)
(-0.0348539 -0.166171 -5.85432e-19)
(-0.0925433 -0.166249 4.23656e-18)
(-0.149943 -0.163352 3.5119e-17)
(-0.20587 -0.157349 1.16218e-17)
(-0.259194 -0.148182 3.46128e-17)
(-0.308771 -0.136115 1.82196e-17)
(-0.353638 -0.121523 2.83269e-18)
(-0.393002 -0.104924 3.37381e-17)
(-0.426296 -0.0869155 7.32648e-17)
(-0.4532 -0.0680895 1.11007e-16)
(-0.473606 -0.0489902 2.02133e-17)
(-0.487582 -0.0300709 6.15962e-17)
(-0.495359 -0.0117048 -5.14289e-17)
(-0.497153 0.00581808 -8.38904e-17)
(-0.493438 0.0226181 1.1899e-16)
(-0.484569 0.038091 3.43778e-17)
(-0.470991 0.0523323 1.26852e-17)
(-0.453166 0.06525 -1.9441e-17)
(-0.431552 0.0767333 2.99946e-17)
(-0.406648 0.0866619 3.39045e-17)
(-0.378978 0.0948732 -1.08155e-16)
(-0.349125 0.101173 -3.03612e-17)
(-0.317744 0.105354 -5.41678e-17)
(-0.285564 0.107234 -6.3691e-18)
(-0.253386 0.10671 -7.05476e-17)
(-0.222048 0.103805 -3.31305e-17)
(-0.19241 0.0987477 -1.09105e-16)
(-0.165185 0.0919605 -1.87561e-17)
(-0.141052 0.0841129 -2.55793e-17)
(-0.120218 0.0760898 -8.30121e-18)
(-0.103154 0.068975 -9.76643e-20)
(-0.0887438 0.0641284 6.58437e-19)
(-0.0788278 0.0620568 3.9769e-17)
(-0.0678259 0.0654238 1.98767e-18)
(-0.0643748 0.0673152 -6.47447e-17)
(-0.049253 0.0761877 -1.95228e-17)
(-0.0249009 0.043483 -5.28344e-17)
(0.968135 -0.00963491 1.48831e-19)
(0.960745 -0.0099651 1.71927e-19)
(0.959083 -0.00992914 6.45625e-20)
(0.953169 -0.0103245 2.56101e-19)
(0.950212 -0.0103726 1.04748e-18)
(0.944971 -0.0107589 -2.40359e-19)
(0.941225 -0.0108909 -6.82676e-19)
(0.93624 -0.011249 6.18244e-19)
(0.931979 -0.0114404 5.64742e-19)
(0.927027 -0.0117744 6.1953e-19)
(0.922393 -0.0120106 8.61236e-19)
(0.917347 -0.0123392 4.92993e-20)
(0.912398 -0.0126222 1.65901e-18)
(0.907172 -0.0129718 -1.7279e-18)
(0.901914 -0.0133126 -1.54394e-18)
(0.896431 -0.013707 -2.84789e-18)
(0.890838 -0.0141136 6.04852e-19)
(0.885034 -0.0145634 -7.08249e-19)
(0.879068 -0.0150323 -2.0113e-18)
(0.872891 -0.0155327 -1.58958e-18)
(0.866523 -0.0160498 -4.87567e-18)
(0.85994 -0.016588 -7.09524e-18)
(0.85315 -0.0171399 1.62118e-18)
(0.846142 -0.0177088 -3.92826e-18)
(0.838915 -0.0182945 1.25273e-19)
(0.831458 -0.0189032 -3.18219e-18)
(0.823764 -0.0195398 6.96091e-18)
(0.815817 -0.0202126 -1.63296e-18)
(0.807601 -0.0209286 9.54814e-18)
(0.799096 -0.0216953 -3.61296e-18)
(0.790279 -0.0225183 -4.62292e-18)
(0.781127 -0.0234025 7.9755e-18)
(0.771616 -0.0243513 -4.62409e-19)
(0.761722 -0.0253684 1.87799e-18)
(0.751418 -0.0264576 -8.40894e-18)
(0.740681 -0.0276246 8.0574e-19)
(0.729479 -0.0288775 -3.94084e-18)
(0.717782 -0.0302276 -6.36383e-18)
(0.70555 -0.0316893 -9.95448e-18)
(0.692738 -0.03328 -2.04182e-18)
(0.679294 -0.03502 -6.46085e-19)
(0.665155 -0.0369317 -1.75638e-18)
(0.65025 -0.0390395 1.0986e-18)
(0.634498 -0.0413697 6.6393e-18)
(0.617807 -0.0439507 4.18551e-19)
(0.600076 -0.0468131 1.33486e-18)
(0.58119 -0.0499905 1.25084e-18)
(0.561021 -0.0535191 -2.70718e-18)
(0.539425 -0.0574369 -8.55533e-19)
(0.516244 -0.0617822 -1.71755e-18)
(0.4913 -0.0665882 -6.64909e-19)
(0.464397 -0.0718803 -1.02545e-17)
(0.435333 -0.0776789 1.18589e-17)
(0.403896 -0.0839849 5.65404e-20)
(0.369871 -0.0907755 1.27682e-17)
(0.333054 -0.0979965 -1.26694e-18)
(0.293263 -0.105552 2.93211e-18)
(0.250361 -0.113295 -8.00228e-19)
(0.204269 -0.12102 -3.36893e-18)
(0.155016 -0.128469 -4.71653e-20)
(0.102679 -0.135306 1.11905e-18)
(0.0476372 -0.141347 1.05036e-18)
(-0.00952247 -0.145642 2.99894e-18)
(-0.0681846 -0.148093 -1.36269e-17)
(-0.127603 -0.148336 2.14179e-18)
(-0.186768 -0.145968 1.82277e-17)
(-0.244506 -0.140864 7.52511e-18)
(-0.299678 -0.132962 1.88428e-17)
(-0.351131 -0.122462 1.16372e-17)
(-0.397867 -0.109683 1.9128e-18)
(-0.439063 -0.0950646 1.86264e-17)
(-0.474106 -0.0791237 2.46724e-17)
(-0.50263 -0.0623798 -5.91257e-18)
(-0.52448 -0.0453181 -6.62421e-18)
(-0.539682 -0.0283439 1.27791e-16)
(-0.548439 -0.0118015 6.53841e-18)
(-0.550935 0.00403291 2.90527e-17)
(-0.547645 0.0190897 1.36599e-16)
(-0.538886 0.0331628 -3.87933e-17)
(-0.525084 0.0461396 3.16159e-18)
(-0.506724 0.0579325 -9.82127e-17)
(-0.484266 0.0684459 6.39469e-17)
(-0.458211 0.0775713 -6.56624e-18)
(-0.429099 0.0851645 -1.00458e-16)
(-0.39752 0.0910534 -7.67655e-17)
(-0.364146 0.0950569 -1.45739e-16)
(-0.329718 0.0970127 -4.18164e-17)
(-0.295056 0.0968266 -3.34626e-17)
(-0.261008 0.0945114 -8.41625e-17)
(-0.228456 0.0902576 -1.0978e-16)
(-0.198128 0.0844347 -1.658e-17)
(-0.170738 0.0776253 -4.71412e-17)
(-0.146505 0.0706222 -1.11404e-17)
(-0.125946 0.0643616 -1.07925e-20)
(-0.107905 0.0601821 1.68345e-18)
(-0.0940429 0.0583795 7.82386e-17)
(-0.0788962 0.0618524 7.61784e-18)
(-0.0693624 0.0634722 -9.70181e-17)
(-0.0494613 0.0705057 -2.05375e-17)
(-0.0190141 0.0399112 -4.18745e-17)
(0.966627 -0.00841988 1.6816e-19)
(0.959083 -0.00869431 5.25754e-19)
(0.957393 -0.00868001 -2.56525e-21)
(0.951345 -0.00901504 7.17915e-20)
(0.94833 -0.00906671 2.18922e-19)
(0.942963 -0.0094009 -6.28434e-19)
(0.939134 -0.00952162 1.50909e-19)
(0.934024 -0.0098348 6.29029e-19)
(0.929659 -0.0100055 8.99954e-19)
(0.924578 -0.0102987 4.31152e-19)
(0.919823 -0.0105072 9.21645e-19)
(0.914642 -0.0107954 1.69608e-18)
(0.90956 -0.0110435 2.80116e-18)
(0.904193 -0.0113491 -3.84538e-20)
(0.898793 -0.0116467 1.67863e-19)
(0.893164 -0.0119907 -2.08707e-19)
(0.887423 -0.0123453 2.36882e-18)
(0.881465 -0.0127378 3.18658e-19)
(0.875343 -0.0131472 5.76582e-19)
(0.869004 -0.0135848 -1.40505e-18)
(0.862467 -0.0140377 -4.68501e-18)
(0.855708 -0.0145097 -4.37345e-18)
(0.848735 -0.0149942 5.68928e-18)
(0.841533 -0.015494 -1.05549e-18)
(0.834103 -0.0160087 2.07756e-18)
(0.826433 -0.0165433 2.29777e-18)
(0.818516 -0.0171021 4.29128e-18)
(0.810336 -0.0176919 -2.8288e-19)
(0.801879 -0.0183191 8.56847e-18)
(0.793123 -0.0189902 -9.60204e-19)
(0.784046 -0.0197102 -2.84253e-19)
(0.774624 -0.0204837 2.21084e-18)
(0.764832 -0.021314 2.89306e-18)
(0.754643 -0.0222043 -2.59074e-19)
(0.744033 -0.0231584 -1.64052e-18)
(0.732972 -0.024181 4.01956e-18)
(0.721429 -0.0252794 -1.44849e-18)
(0.709371 -0.026463 -5.66701e-18)
(0.696757 -0.0277443 -5.42484e-19)
(0.683541 -0.0291382 -1.88442e-18)
(0.669668 -0.0306622 -1.17384e-18)
(0.655074 -0.0323357 -2.15412e-18)
(0.639687 -0.0341801 1.16604e-18)
(0.623423 -0.0362181 4.05039e-18)
(0.606189 -0.0384747 4.16897e-18)
(0.587879 -0.0409767 2.9086e-19)
(0.568375 -0.0437531 3.27068e-19)
(0.547546 -0.0468354 -3.89564e-18)
(0.525244 -0.0502563 -1.80477e-18)
(0.501308 -0.0540487 -4.7783e-18)
(0.475557 -0.0582435 -1.95303e-19)
(0.447794 -0.0628622 -5.35379e-18)
(0.417814 -0.0679209 -1.37757e-18)
(0.385401 -0.0734205 -5.56252e-18)
(0.350342 -0.0793416 1.01551e-17)
(0.312431 -0.0856375 -4.57922e-18)
(0.271489 -0.0922262 -1.80552e-18)
(0.227381 -0.0989819 -6.08738e-19)
(0.180028 -0.105728 -1.86452e-18)
(0.129467 -0.112244 1.27915e-19)
(0.0757431 -0.118255 1.62012e-18)
(0.0193301 -0.123606 1.08349e-18)
(-0.039247 -0.127349 1.42618e-18)
(-0.0994265 -0.129618 -1.09045e-17)
(-0.160371 -0.129957 2.18355e-18)
(-0.221099 -0.128043 1.04287e-17)
(-0.280448 -0.123758 8.56792e-18)
(-0.337268 -0.117039 1.15228e-17)
(-0.390402 -0.108041 7.21924e-18)
(-0.438824 -0.0970276 2.25921e-18)
(-0.48168 -0.0843701 1.05067e-17)
(-0.518317 -0.0705093 -2.19282e-17)
(-0.548322 -0.0558941 4.37846e-18)
(-0.571493 -0.0409505 -1.50674e-17)
(-0.587819 -0.0260368 1.29838e-16)
(-0.597463 -0.0114745 2.43501e-17)
(-0.600584 0.00253078 1.01567e-17)
(-0.597633 0.0158156 5.90711e-17)
(-0.588927 0.0283451 -1.71457e-17)
(-0.574887 0.0398928 -5.47237e-18)
(-0.555982 0.0504073 -6.08746e-17)
(-0.532686 0.0598081 1.12829e-17)
(-0.505508 0.0679989 -7.07327e-17)
(-0.475001 0.0748548 -3.20448e-17)
(-0.44177 0.0802269 -1.57455e-17)
(-0.406502 0.0839575 -1.6232e-16)
(-0.369951 0.0859043 -5.73038e-17)
(-0.332955 0.0859846 -2.18013e-17)
(-0.296375 0.0841987 -6.09954e-17)
(-0.26111 0.0807007 -6.05171e-17)
(-0.227899 0.0758032 -5.32667e-18)
(-0.197486 0.0700035 -9.11302e-17)
(-0.170082 0.0639994 -1.281e-17)
(-0.146232 0.0585876 5.49864e-19)
(-0.124736 0.05503 3.12107e-18)
(-0.107073 0.0534688 6.71311e-17)
(-0.0879734 0.0568032 8.54479e-18)
(-0.0729348 0.0581947 -9.42534e-17)
(-0.0490354 0.0635171 -1.8648e-17)
(-0.0159477 0.0364356 -6.59021e-17)
(0.965254 -0.00717643 5.8933e-20)
(0.957571 -0.00740235 5.96796e-19)
(0.955852 -0.00740029 1.18982e-19)
(0.949684 -0.00767931 -1.89008e-19)
(0.946613 -0.00772971 -2.4549e-20)
(0.941134 -0.00801239 -1.51366e-18)
(0.937226 -0.00811895 5.42724e-19)
(0.932003 -0.00838621 6.18973e-19)
(0.927541 -0.00853408 1.88907e-18)
(0.922342 -0.00878508 3.08131e-19)
(0.917475 -0.00896439 9.50461e-19)
(0.912169 -0.00921079 3.26773e-18)
(0.906964 -0.00942291 7.18569e-19)
(0.901465 -0.00968352 2.58003e-18)
(0.895934 -0.00993696 2.18411e-18)
(0.890169 -0.0102297 8.68585e-19)
(0.884288 -0.0105314 5.54186e-18)
(0.878188 -0.0108654 2.59519e-18)
(0.87192 -0.0112142 4.92952e-18)
(0.865428 -0.0115874 4.80494e-19)
(0.858735 -0.0119741 -6.03331e-18)
(0.851811 -0.0123776 -1.02417e-17)
(0.844665 -0.0127922 1.31614e-17)
(0.837281 -0.0132202 2.27744e-18)
(0.829661 -0.0136611 4.12448e-18)
(0.821791 -0.0141188 8.2345e-18)
(0.813665 -0.0145969 5.87099e-18)
(0.805267 -0.0151013 -2.01797e-18)
(0.796581 -0.0156371 1.43357e-17)
(0.787588 -0.0162099 4.54333e-18)
(0.778265 -0.0168243 2.41002e-18)
(0.768586 -0.0174842 -4.17013e-18)
(0.758527 -0.0181927 9.09353e-18)
(0.74806 -0.0189528 -5.77378e-19)
(0.737158 -0.0197676 2.4863e-18)
(0.725789 -0.0206413 1.10292e-17)
(0.713922 -0.02158 4.25581e-18)
(0.701521 -0.0225916 -9.7421e-18)
(0.688545 -0.0236865 8.4628e-18)
(0.674944 -0.0248774 -2.84974e-18)
(0.660663 -0.0261788 -1.63276e-18)
(0.645638 -0.0276072 -5.36036e-18)
(0.629793 -0.0291808 1.45065e-19)
(0.613043 -0.0309189 1.53671e-18)
(0.595292 -0.0328428 1.29929e-17)
(0.576433 -0.0349753 2.93461e-19)
(0.556344 -0.0373413 9.70102e-19)
(0.534892 -0.0399675 -7.61105e-18)
(0.511925 -0.0428819 -2.64768e-18)
(0.487281 -0.0461123 -1.26102e-17)
(0.460776 -0.0496851 1.40001e-18)
(0.432213 -0.0536174 -2.23552e-18)
(0.401383 -0.057922 -1.71273e-17)
(0.368072 -0.0625998 -2.1912e-17)
(0.332064 -0.0676345 1.56449e-17)
(0.293157 -0.0729874 -1.00391e-17)
(0.251173 -0.0785899 -1.07143e-17)
(0.205979 -0.0843369 -5.5154e-19)
(0.157501 -0.0900816 -9.78303e-19)
(0.105777 -0.0956362 4.80338e-20)
(0.0508338 -0.100838 3.26185e-18)
(-0.00678542 -0.105325 1.51949e-18)
(-0.0665966 -0.108606 5.41942e-19)
(-0.128097 -0.110622 -1.69144e-17)
(-0.190375 -0.111017 5.13548e-18)
(-0.252469 -0.109515 7.09105e-18)
(-0.313226 -0.106008 1.45131e-17)
(-0.371491 -0.100439 1.00499e-17)
(-0.426105 -0.0929192 6.30284e-18)
(-0.476017 -0.0836643 2.19976e-18)
(-0.520345 -0.0729772 2.43197e-18)
(-0.558399 -0.0612246 4.82025e-17)
(-0.589723 -0.0487842 2.22761e-17)
(-0.614071 -0.0360193 -4.6147e-18)
(-0.631395 -0.023236 6.88e-17)
(-0.641819 -0.0107212 -1.26501e-18)
(-0.645486 0.00137943 1.42484e-18)
(-0.642802 0.0127796 1.97784e-17)
(-0.634095 0.0236293 -3.90013e-17)
(-0.619797 0.0336467 -2.11899e-17)
(-0.600352 0.0427852 -6.10006e-17)
(-0.576244 0.0509756 -1.96582e-17)
(-0.547995 0.0581349 -3.18999e-17)
(-0.51617 0.0641568 2.23944e-17)
(-0.48139 0.0689154 1.5033e-17)
(-0.444355 0.072277 -1.57534e-16)
(-0.405838 0.0741222 -6.2257e-17)
(-0.366692 0.074376 -2.17317e-17)
(-0.327789 0.0730323 -8.23711e-17)
(-0.290048 0.0702134 -5.03287e-17)
(-0.254219 0.0661786 1.1849e-17)
(-0.221067 0.0613421 -8.28997e-17)
(-0.190795 0.0563034 -9.02262e-18)
(-0.163959 0.0517221 4.31731e-18)
(-0.13932 0.0487412 9.99346e-17)
(-0.118174 0.0473924 1.02105e-16)
(-0.0954885 0.05041 1.24997e-17)
(-0.0756559 0.0516127 -5.78109e-17)
(-0.0483604 0.055598 -1.55266e-17)
(-0.0141993 0.0326392 -4.29664e-17)
(0.964048 -0.0059083 5.554e-20)
(0.956242 -0.00608948 3.43967e-19)
(0.954497 -0.0060941 -5.91687e-19)
(0.948225 -0.00631935 -5.53018e-19)
(0.945102 -0.00636513 -1.64982e-18)
(0.939525 -0.00659623 -1.2931e-18)
(0.935547 -0.00668648 2.47951e-19)
(0.930224 -0.00690661 2.03231e-19)
(0.925676 -0.00703 3.81987e-19)
(0.920372 -0.00723732 6.51876e-19)
(0.915406 -0.00738598 -2.07333e-19)
(0.909989 -0.00758935 1.76765e-18)
(0.904674 -0.0077644 -1.05578e-18)
(0.899058 -0.00797899 -3.26356e-19)
(0.89341 -0.00818747 -6.1246e-19)
(0.887522 -0.00842809 2.08985e-19)
(0.881517 -0.00867604 3.85554e-18)
(0.875289 -0.00895065 -1.9637e-18)
(0.868889 -0.00923758 4.88802e-18)
(0.862261 -0.00954485 -1.69614e-18)
(0.855425 -0.0098636 -5.95626e-18)
(0.848353 -0.0101965 -1.17281e-17)
(0.841052 -0.0105389 1.42458e-17)
(0.833506 -0.0108926 -2.12345e-18)
(0.825714 -0.011257 5.25646e-18)
(0.817664 -0.0116353 5.74094e-18)
(0.809349 -0.0120302 1.6436e-18)
(0.800753 -0.0124465 3.67864e-18)
(0.791862 -0.0128884 1.28982e-17)
(0.782653 -0.0133606 1.07792e-18)
(0.773106 -0.0138668 -5.68645e-18)
(0.763195 -0.0144105 -3.29676e-19)
(0.752893 -0.0149943 2.87963e-18)
(0.742172 -0.0156208 4.23619e-19)
(0.731003 -0.0162926 2.32233e-18)
(0.719354 -0.0170133 5.18677e-18)
(0.707191 -0.0177877 1.16294e-18)
(0.694478 -0.0186223 -2.77651e-18)
(0.68117 -0.0195256 7.48315e-19)
(0.667218 -0.0205077 -2.47458e-18)
(0.652566 -0.0215806 -2.15397e-18)
(0.637145 -0.0227578 -1.39604e-17)
(0.620881 -0.0240541 -3.12255e-18)
(0.603687 -0.0254855 -6.19796e-18)
(0.585465 -0.0270693 6.51639e-18)
(0.566104 -0.0288245 2.92808e-18)
(0.545482 -0.0307714 6.03373e-18)
(0.523462 -0.0329322 -1.6666e-17)
(0.499891 -0.0353301 -2.97711e-18)
(0.474604 -0.0379884 -3.88754e-18)
(0.447417 -0.0409291 2.96549e-18)
(0.418132 -0.0441648 6.23026e-18)
(0.38654 -0.0477048 -1.48672e-17)
(0.352425 -0.0515503 -9.66576e-18)
(0.315573 -0.0556881 8.76361e-18)
(0.275782 -0.0600873 -2.02588e-17)
(0.232878 -0.0646928 -8.78925e-18)
(0.186732 -0.06942 -6.70204e-19)
(0.137272 -0.0741509 -9.66854e-19)
(0.0845265 -0.0787302 -3.91146e-19)
(0.0285647 -0.0830929 4.19149e-18)
(-0.0300944 -0.0867047 3.17904e-18)
(-0.0909915 -0.0895063 3.14994e-19)
(-0.153605 -0.0912389 -9.47367e-18)
(-0.217021 -0.0916572 1.71462e-17)
(-0.280282 -0.0905307 1.04093e-17)
(-0.342243 -0.087765 3.60083e-17)
(-0.401749 -0.0833072 1.09674e-17)
(-0.457634 -0.0772359 3.88393e-18)
(-0.508831 -0.0697197 8.18265e-18)
(-0.554431 -0.060998 1.72512e-18)
(-0.593713 -0.0513658 2.39229e-17)
(-0.626181 -0.0411307 3.99064e-17)
(-0.651547 -0.0305927 1.83087e-17)
(-0.669731 -0.0200056 5.32878e-17)
(-0.680815 -0.00961982 -5.6157e-17)
(-0.684956 0.000474944 -5.63829e-18)
(-0.68248 0.0099574 -5.70425e-18)
(-0.67372 0.0190301 -9.76686e-17)
(-0.659152 0.0274217 -4.14612e-17)
(-0.639187 0.0350867 -1.07194e-16)
(-0.614316 0.0419704 -4.19487e-17)
(-0.585072 0.0480044 -9.62064e-18)
(-0.552035 0.0531008 -4.2752e-17)
(-0.51584 0.0571562 1.6166e-17)
(-0.477203 0.0600631 -1.46518e-16)
(-0.43691 0.0617226 -6.30455e-17)
(-0.395832 0.0620687 -2.13619e-17)
(-0.354856 0.0610921 -3.94038e-17)
(-0.314919 0.0588865 -5.35137e-17)
(-0.276779 0.05566 4.31079e-17)
(-0.241225 0.051746 -3.41013e-17)
(-0.208449 0.0476429 1.03177e-18)
(-0.179012 0.0438762 1.01982e-17)
(-0.15164 0.041438 1.49653e-16)
(-0.127462 0.0402839 8.98083e-17)
(-0.101672 0.0428597 1.01692e-17)
(-0.0778093 0.0438858 -6.79278e-17)
(-0.0476026 0.0469027 -1.30512e-17)
(-0.0130523 0.0283808 -5.77043e-17)
(0.963038 -0.00461912 -9.48375e-20)
(0.955131 -0.00475774 1.10106e-20)
(0.953361 -0.00476501 -1.25749e-18)
(0.947004 -0.00493813 -5.58682e-19)
(0.943836 -0.00497648 -1.8053e-18)
(0.938177 -0.00515592 -1.91208e-19)
(0.93414 -0.00522794 -6.46957e-19)
(0.928734 -0.00539993 -1.21626e-19)
(0.924113 -0.00549731 -1.17759e-18)
(0.918721 -0.00565966 1.71335e-18)
(0.91367 -0.00577641 -2.16402e-18)
(0.90816 -0.00593558 2.17694e-18)
(0.902752 -0.00607255 -2.92139e-18)
(0.897037 -0.00624017 -3.54893e-18)
(0.891289 -0.00640289 -4.1964e-18)
(0.885297 -0.00659058 -2.75017e-18)
(0.879187 -0.00678396 -1.76817e-18)
(0.872849 -0.0069982 -8.56055e-19)
(0.866337 -0.00722216 -5.6337e-19)
(0.859592 -0.00746219 1.72218e-19)
(0.852636 -0.00771141 -4.58733e-18)
(0.845438 -0.00797195 -1.08121e-17)
(0.838004 -0.00824009 1.11014e-17)
(0.830319 -0.00851722 -5.93712e-18)
(0.82238 -0.00880275 6.24953e-18)
(0.814177 -0.00909917 8.52838e-18)
(0.8057 -0.00940853 -1.52646e-18)
(0.796936 -0.00973445 5.88164e-18)
(0.787867 -0.0100802 6.4545e-18)
(0.778474 -0.0104495 5.3193e-18)
(0.768735 -0.0108453 -5.27185e-19)
(0.758623 -0.0112703 3.78582e-19)
(0.748112 -0.0117267 -1.78003e-18)
(0.737171 -0.0122166 1.87944e-18)
(0.725772 -0.0127421 1.61408e-18)
(0.713881 -0.0133061 3.21627e-18)
(0.701463 -0.0139121 1.93713e-18)
(0.68848 -0.0145654 2.32056e-18)
(0.674886 -0.0152723 -6.7213e-18)
(0.66063 -0.0160409 -2.19134e-18)
(0.645656 -0.0168802 1.23807e-18)
(0.629894 -0.0178008 -7.62409e-18)
(0.613268 -0.0188143 -1.03389e-17)
(0.595689 -0.019933 3.04806e-18)
(0.577058 -0.0211707 2.10804e-18)
(0.557263 -0.0225421 6.69483e-18)
(0.536179 -0.0240632 2.39779e-17)
(0.513667 -0.0257514 -8.76797e-18)
(0.489574 -0.0276253 -7.46922e-18)
(0.463732 -0.0297037 1.5664e-18)
(0.435959 -0.032005 4.43745e-18)
(0.406055 -0.034536 2.69111e-17)
(0.37381 -0.0373036 -1.96742e-17)
(0.339009 -0.0403093 -6.49988e-18)
(0.301439 -0.043543 1.26086e-17)
(0.260899 -0.0469815 -2.0506e-17)
(0.217219 -0.0505827 -1.39846e-17)
(0.170274 -0.0542816 -2.10425e-18)
(0.119993 -0.0579879 -1.93243e-18)
(0.0663952 -0.0615779 -1.98346e-18)
(0.0095921 -0.0650205 4.69233e-18)
(-0.0499264 -0.0678483 1.39285e-18)
(-0.111725 -0.0700853 8.79702e-20)
(-0.175254 -0.0714913 -7.88179e-18)
(-0.23961 -0.0718831 6.37692e-18)
(-0.303838 -0.0710762 2.33397e-17)
(-0.366799 -0.0689926 2.06473e-17)
(-0.427337 -0.0655881 8.47919e-18)
(-0.484283 -0.0609154 -4.12461e-19)
(-0.536556 -0.0551007 2.54406e-17)
(-0.583223 -0.0483253 1.913e-18)
(-0.623534 -0.0408156 2.52687e-17)
(-0.656962 -0.0328106 8.59875e-17)
(-0.683181 -0.0245449 5.44506e-17)
(-0.702082 -0.0162181 5.43431e-17)
(-0.713707 -0.00802956 -9.97822e-18)
(-0.71822 -3.91867e-06 3.86188e-18)
(-0.715892 0.00739445 -6.27677e-17)
(-0.70706 0.0145604 -5.44324e-17)
(-0.692227 0.0212269 -7.11909e-17)
(-0.671783 0.0273217 -2.14629e-16)
(-0.646224 0.0328025 -5.10937e-17)
(-0.616094 0.0376183 1.22718e-17)
(-0.581987 0.0417006 2.59884e-17)
(-0.544549 0.044971 2.52562e-17)
(-0.504512 0.0473461 -1.20495e-16)
(-0.462677 0.0487456 -6.53207e-17)
(-0.419932 0.0491155 -2.39625e-17)
(-0.377176 0.0484448 -2.94531e-17)
(-0.335365 0.046801 -8.30397e-17)
(-0.29527 0.0443426 2.68442e-18)
(-0.2577 0.0413231 -2.74477e-17)
(-0.222837 0.0381372 1.93739e-17)
(-0.191249 0.0351795 1.7894e-17)
(-0.161628 0.0332648 9.65414e-17)
(-0.134955 0.0323032 1.12514e-16)
(-0.106624 0.0343536 6.29826e-18)
(-0.0795194 0.0351954 -2.88056e-17)
(-0.0468499 0.0375045 -6.56321e-18)
(-0.0121854 0.023534 -2.37163e-17)
(0.962251 -0.00331272 -3.54845e-19)
(0.954266 -0.00341007 -3.16099e-19)
(0.952475 -0.00341699 -1.22643e-18)
(0.946053 -0.00353929 -3.82025e-19)
(0.94285 -0.00356797 -1.17892e-18)
(0.937128 -0.0036958 4.03293e-19)
(0.933043 -0.00374808 -2.03263e-18)
(0.927572 -0.00387119 -1.2189e-19)
(0.922894 -0.00394136 -6.98385e-19)
(0.917433 -0.00405777 4.42405e-19)
(0.912317 -0.00414161 -1.33661e-18)
(0.906733 -0.00425569 -4.29812e-19)
(0.901253 -0.0043538 -4.09872e-18)
(0.89546 -0.00447375 -1.68415e-18)
(0.889633 -0.0045901 -3.90293e-18)
(0.883559 -0.00472427 -1.11875e-18)
(0.877366 -0.00486248 -1.06076e-18)
(0.870942 -0.00501564 -9.09523e-19)
(0.864341 -0.00517582 2.21027e-18)
(0.857505 -0.0053476 4.78129e-18)
(0.850453 -0.00552608 -3.19741e-19)
(0.843155 -0.00571278 -4.31058e-18)
(0.835617 -0.00590506 3.69443e-18)
(0.827822 -0.00610386 -1.75417e-18)
(0.819768 -0.00630872 5.12556e-18)
(0.811443 -0.00652138 7.64874e-18)
(0.802838 -0.00674326 7.63088e-18)
(0.79394 -0.00697693 8.84337e-18)
(0.784731 -0.00722472 3.31859e-18)
(0.775192 -0.00748927 3.31466e-20)
(0.7653 -0.00777275 5.73062e-18)
(0.755028 -0.00807717 2.58907e-18)
(0.74435 -0.00840412 9.31269e-18)
(0.733236 -0.00875513 3.26853e-18)
(0.721653 -0.00913176 6.74311e-19)
(0.709569 -0.00953603 2.85894e-18)
(0.696947 -0.00997061 3.94137e-18)
(0.683748 -0.0104391 1.34229e-17)
(0.669925 -0.010946 4.23964e-18)
(0.655428 -0.0114971 -6.06519e-18)
(0.640196 -0.0120988 8.46241e-18)
(0.624161 -0.0127587 -1.66512e-18)
(0.607244 -0.013485 -4.06918e-18)
(0.589358 -0.0142867 1.13151e-17)
(0.570399 -0.0151736 -3.02985e-18)
(0.550257 -0.0161563 6.65534e-18)
(0.528804 -0.0172465 1.14385e-17)
(0.5059 -0.0184569 7.23327e-19)
(0.481389 -0.0198012 7.87915e-18)
(0.455104 -0.0212944 6.05487e-18)
(0.426863 -0.0229519 -2.53997e-19)
(0.396468 -0.0247713 2.11765e-17)
(0.363706 -0.0267582 -6.97894e-18)
(0.328363 -0.0289157 1.44076e-17)
(0.290226 -0.0312376 4.56037e-18)
(0.249099 -0.0337083 -6.61427e-18)
(0.204811 -0.0362991 -7.65822e-18)
(0.157242 -0.0389648 -4.98812e-18)
(0.106326 -0.0416425 -4.33721e-18)
(0.0520685 -0.0442453 3.62338e-18)
(-0.00538442 -0.0467493 4.52977e-18)
(-0.0655669 -0.0488187 -6.37084e-19)
(-0.128062 -0.0504876 -1.03881e-19)
(-0.1923 -0.0515691 -1.29663e-17)
(-0.257387 -0.0519346 1.90579e-18)
(-0.322372 -0.0514474 5.64173e-18)
(-0.386122 -0.0500458 9.85261e-18)
(-0.447479 -0.047693 5.05802e-18)
(-0.505271 -0.0444185 -2.14185e-18)
(-0.558405 -0.0403063 6.59282e-17)
(-0.605929 -0.035481 -3.24002e-18)
(-0.647068 -0.0301013 6.96801e-17)
(-0.681265 -0.0243381 5.19852e-17)
(-0.708165 -0.0183611 1.09495e-16)
(-0.727633 -0.0123171 6.52775e-17)
(-0.739666 -0.00635479 7.18883e-18)
(-0.744505 -0.000521671 9.65778e-19)
(-0.742301 0.00492368 -6.11051e-18)
(-0.733347 0.010192 -3.71332e-17)
(-0.718261 0.015084 -1.10832e-17)
(-0.697404 0.0195594 -1.13643e-16)
(-0.671263 0.0235888 8.83414e-18)
(-0.640392 0.0271353 7.16388e-17)
(-0.605394 0.0301496 1.04108e-16)
(-0.56693 0.0325752 1.96159e-17)
(-0.525744 0.0343502 -2.00711e-16)
(-0.482648 0.0354164 -7.25871e-17)
(-0.438548 0.0357347 -2.47178e-17)
(-0.394356 0.0352961 -4.11325e-17)
(-0.351046 0.0341469 -4.55854e-17)
(-0.309402 0.0324001 -6.94047e-18)
(-0.270251 0.0302341 -3.90626e-17)
(-0.233768 0.0279376 5.10141e-17)
(-0.200529 0.0257809 3.3367e-17)
(-0.169193 0.0243778 1.12761e-16)
(-0.140629 0.0236216 9.67877e-17)
(-0.110368 0.0250953 -1.06667e-17)
(-0.0808253 0.0257315 -1.42094e-17)
(-0.0461677 0.0274599 -1.52629e-18)
(-0.0114804 0.0179962 -1.18944e-17)
(0.961711 -0.00199307 -4.11044e-19)
(0.953673 -0.00204969 -2.6833e-19)
(0.951867 -0.00205409 -6.39561e-19)
(0.9454 -0.00212641 -2.40935e-19)
(0.942172 -0.00214377 -1.80527e-18)
(0.936407 -0.00222 -6.36147e-19)
(0.932289 -0.00225142 -1.49948e-18)
(0.926775 -0.00232514 -5.78433e-19)
(0.922056 -0.00236726 -1.00916e-18)
(0.916549 -0.0024371 -5.13693e-20)
(0.911387 -0.00248741 -1.1774e-18)
(0.905753 -0.00255586 -1.36671e-18)
(0.900222 -0.00261469 -1.30748e-18)
(0.894376 -0.00268662 -4.1628e-19)
(0.888494 -0.00275636 5.44527e-19)
(0.882364 -0.00283679 -1.08429e-18)
(0.876113 -0.00291963 -1.30662e-18)
(0.869629 -0.00301147 -3.63542e-18)
(0.862967 -0.00310756 3.55772e-18)
(0.856067 -0.00321066 4.7723e-18)
(0.848949 -0.00331785 -2.27219e-18)
(0.841582 -0.00343004 -3.24209e-18)
(0.833972 -0.00354564 -2.07146e-18)
(0.8261 -0.0036652 9.22999e-20)
(0.817966 -0.00378844 2.90837e-18)
(0.809557 -0.00391637 1.00707e-17)
(0.800864 -0.00404981 6.51658e-18)
(0.791872 -0.0041903 4.31351e-18)
(0.782566 -0.00433924 5.88304e-18)
(0.772926 -0.00449819 -7.28856e-18)
(0.762927 -0.00466848 -1.81279e-18)
(0.752544 -0.00485132 3.54925e-18)
(0.74175 -0.0050477 8.80783e-18)
(0.730513 -0.00525854 -8.82113e-18)
(0.718803 -0.0054848 -1.58372e-19)
(0.706584 -0.00572768 3.23729e-18)
(0.69382 -0.00598878 3.73021e-18)
(0.68047 -0.00627023 1.31696e-17)
(0.666487 -0.00657476 3.49552e-18)
(0.65182 -0.00690573 -1.73228e-17)
(0.636409 -0.00726707 -2.45325e-18)
(0.620183 -0.00766326 7.48385e-18)
(0.603063 -0.00809925 -6.53462e-18)
(0.584961 -0.00858046 3.67247e-18)
(0.565774 -0.00911281 -1.0988e-17)
(0.545388 -0.00970281 6.05289e-18)
(0.523677 -0.0103577 8.12796e-18)
(0.500498 -0.0110854 1.01276e-17)
(0.475695 -0.0118953 5.36168e-20)