/*--------------------------------*- C++ -*----------------------------------*\
  =========                 |
  \\      /  F ield         | OpenFOAM: The Open Source CFD Toolbox
   \\    /   O peration     | Website:  https://openfoam.org
    \\  /    A nd           | Version:  7
     \\/     M anipulation  |
\*---------------------------------------------------------------------------*/
FoamFile
{
    version     2.0;
    format      ascii;
    class       surfaceScalarField;
    location    "15";
    object      phi;
}
// * * * * * * * * * * * * * * * * * * * * * * * * * * * * * * * * * * * * * //

dimensions      [0 3 -1 0 0 0 0];

internalField   nonuniform List<scalar> 
122
(
-0.00145756
-0.0206828
0.0207552
-0.0013213
-0.0205355
0.0203992
-0.000756839
-0.017603
0.0170386
-0.00580352
0.00504669
-0.00154696
-0.0205702
-0.00145753
-0.0206249
-0.000912542
-0.018148
-0.00671607
-0.00159736
-0.0204346
-0.00154503
-0.0206773
-0.00104833
-0.0186447
-0.0077644
-0.0016598
-0.0202711
-0.00164931
-0.0206878
-0.00119318
-0.0191008
-0.00895758
-0.00171237
-0.0200846
-0.00174681
-0.0206533
-0.0013391
-0.0195086
-0.0102967
-0.0017647
-0.0198753
-0.00184826
-0.0205698
-0.00149287
-0.0198639
-0.0117896
-0.00181255
-0.0196447
-0.00194616
-0.0204362
-0.0016549
-0.0201552
-0.0134445
-0.00185648
-0.0193949
-0.00204423
-0.0202484
-0.00183264
-0.0203668
-0.0152771
-0.00189711
-0.0191285
-0.00215078
-0.0199947
-0.00204558
-0.020472
-0.0173227
-0.00193978
-0.00227587
-0.00230866
-0.000108615
1.79698e-05
-0.000108615
-0.000118788
2.84136e-05
-0.000227402
-0.000139081
2.17243e-05
-0.000366484
-0.000169437
-1.16768e-05
-0.000535921
-0.000209375
-8.11558e-05
-0.000745296
-0.000258734
-0.000195726
-0.00100403
-0.000317298
-0.000363914
-0.00132133
-0.000384982
-0.000593624
-0.00170631
-0.000461799
-0.000891949
-0.00216811
-0.000548097
-0.00126402
-0.00271621
-0.00666039
-0.006727
-0.00396712
-0.00395729
-0.00163664
-0.0114365
-0.00719377
-0.0115859
-0.00380786
0.00381604
-0.0151268
-0.00666466
-0.0164702
-0.0024645
0.00774512
-0.0170955
-0.00571607
-0.0185904
-0.000969579
0.00990995
-0.0178791
-0.0193007
)
;

boundaryField
{
    inlet
    {
        type            calculated;
        value           nonuniform 0();
    }
    outlet
    {
        type            calculated;
        value           nonuniform 0();
    }
    polygon
    {
        type            calculated;
        value           uniform 0;
    }
    top
    {
        type            symmetryPlane;
        value           uniform 0;
    }
    bottom
    {
        type            symmetryPlane;
        value           uniform 0;
    }
    outside
    {
        type            calculated;
        value           nonuniform 0();
    }
    procBoundary6to2
    {
        type            processor;
        value           nonuniform List<scalar> 
14
(
0.00138517
-0.020394
0.00143432
0.00146174
0.00149628
0.00152594
0.00155536
0.00158193
0.00160671
0.00163067
0.00165465
-0.00466627
0.000451998
0.0110033
)
;
    }
    procBoundary6to3
    {
        type            processor;
        value           nonuniform List<scalar> 7(0.000920164 0.00496084 0.00842655 0.0119032 0.0145977 0.0161469 0.0168293);
    }
    procBoundary6to5
    {
        type            processor;
        value           nonuniform List<scalar> 4(-0.0188433 -0.0196587 -0.0204392 -0.0196313);
    }
    procBoundary6to7
    {
        type            processor;
        value           nonuniform List<scalar> 9(9.0645e-05 0.000108344 0.000145771 0.000202838 0.000278854 0.000373303 0.000485486 0.000614692 0.000760124);
    }
    procBoundary6to10
    {
        type            processor;
        value           nonuniform List<scalar> 2(-1.85715e-11 1.32362e-11);
    }
}


// ************************************************************************* //
