/*--------------------------------*- C++ -*----------------------------------*\
  =========                 |
  \\      /  F ield         | OpenFOAM: The Open Source CFD Toolbox
   \\    /   O peration     | Website:  https://openfoam.org
    \\  /    A nd           | Version:  7
     \\/     M anipulation  |
\*---------------------------------------------------------------------------*/
FoamFile
{
    version     2.0;
    format      ascii;
    class       volScalarField;
    location    "20";
    object      p;
}
// * * * * * * * * * * * * * * * * * * * * * * * * * * * * * * * * * * * * * //

dimensions      [0 2 -2 0 0 0 0];

internalField   nonuniform List<scalar> 
75
(
-0.253756
-0.288467
-0.311741
-0.306377
-0.273398
-0.312341
-0.346432
-0.34089
-0.283295
-0.326314
-0.374366
-0.379944
-0.291118
-0.338876
-0.400314
-0.423539
-0.299538
-0.352251
-0.425824
-0.472037
-0.307684
-0.365114
-0.449271
-0.525828
-0.314484
-0.376297
-0.46955
-0.588738
-0.319666
-0.385465
-0.483667
-0.658219
-0.3231
-0.392193
-0.492175
-0.748423
-0.324609
-0.395781
-0.48394
-0.835595
0.183384
0.194408
0.185353
0.189998
0.184882
0.182745
0.183847
0.172072
0.181489
0.15795
0.17801
0.140447
0.173327
0.119561
0.167333
0.0952512
0.159996
0.0674468
0.152669
0.0363477
0.00545889
0.104788
-0.0624154
-0.00367788
0.0587008
-0.0217137
-0.0124006
0.0183601
-0.0585977
-0.0197274
-0.0150706
-0.0548219
-0.0268487
-0.0385429
-0.0658606
)
;

boundaryField
{
    inlet
    {
        type            zeroGradient;
    }
    outlet
    {
        type            fixedValue;
        value           nonuniform 0();
    }
    polygon
    {
        type            zeroGradient;
    }
    top
    {
        type            symmetryPlane;
    }
    bottom
    {
        type            symmetryPlane;
    }
    outside
    {
        type            slip;
    }
    procBoundary9to5
    {
        type            processor;
        value           nonuniform List<scalar> 2(0.183384 0.194408);
    }
    procBoundary9to8
    {
        type            processor;
        value           nonuniform List<scalar> 9(0.00652188 0.00853827 0.0094501 0.0104084 0.0110129 0.0113729 0.0114687 0.0112989 0.0108792);
    }
    procBoundary9to10
    {
        type            processor;
        value           nonuniform List<scalar> 4(-0.321833 -0.393512 -0.465298 -0.939111);
    }
    procBoundary9to12
    {
        type            processor;
        value           nonuniform List<scalar> 7(0.0104247 0.0104247 0.0231041 0.0151468 0.00625094 -0.00320436 -0.0118122);
    }
    procBoundary9to13
    {
        type            processor;
        value           nonuniform List<scalar> 
14
(
-0.233363
-0.233363
-0.248967
-0.255967
-0.260666
-0.265907
-0.271333
-0.276079
-0.279851
-0.282613
-0.284356
-0.0333675
-0.0584001
-0.0753037
)
;
    }
}


// ************************************************************************* //
