/*--------------------------------*- C++ -*----------------------------------*\
  =========                 |
  \\      /  F ield         | OpenFOAM: The Open Source CFD Toolbox
   \\    /   O peration     | Website:  https://openfoam.org
    \\  /    A nd           | Version:  7
     \\/     M anipulation  |
\*---------------------------------------------------------------------------*/
FoamFile
{
    version     2.0;
    format      ascii;
    class       surfaceScalarField;
    location    "42";
    object      phi;
}
// * * * * * * * * * * * * * * * * * * * * * * * * * * * * * * * * * * * * * //

dimensions      [0 3 -1 0 0 0 0];

internalField   nonuniform List<scalar> 
311
(
-0.000196521
-0.00962797
0.00957721
-0.000148464
-0.00959265
0.00954459
-0.000100523
-0.00955515
0.0095072
-5.47863e-05
-0.00951238
0.00946665
-0.0094765
0.00943165
-0.000194543
-0.00967831
-0.000146961
-0.00964023
-9.95293e-05
-0.00960258
-5.43002e-05
-0.00955761
-0.00952074
-0.000192525
-0.00972823
-0.000145437
-0.00968732
-9.85066e-05
-0.00964951
-5.37869e-05
-0.00960233
-0.00956439
-0.000190467
-0.00977773
-0.00014389
-0.00973389
-9.74547e-05
-0.00969594
-5.32446e-05
-0.00964654
-0.00960746
-0.000188371
-0.00982681
-0.000142319
-0.00977995
-9.63719e-05
-0.00974189
-5.2669e-05
-0.00969024
-0.00964996
-0.00018624
-0.00987547
-0.000140719
-0.00982547
-9.52556e-05
-0.00978735
-5.20522e-05
-0.00973345
-0.00969188
-0.000184075
-0.00992371
-0.000139088
-0.00987045
-9.41091e-05
-0.00983233
-5.13931e-05
-0.00977616
-0.00973325
-0.000181876
-0.00997153
-0.000137449
-0.00991488
-9.29536e-05
-0.00987683
-5.07255e-05
-0.00981839
-0.00977408
-0.000179628
-0.0100189
-0.000135848
-0.00995866
-9.18135e-05
-0.00992086
-5.01105e-05
-0.00986009
-0.00981439
-0.000178841
-0.0100627
-0.000133511
-0.010004
-9.14928e-05
-0.00996288
-4.99862e-05
-0.0099016
-0.00985443
-0.000314808
-0.00952863
0.00952136
-0.000308517
-0.00950774
0.00950145
-0.000303105
-0.00947715
0.00947174
-0.00029893
-0.00944934
0.00944516
-0.000295876
-0.00942562
0.00942257
-0.00940675
0.00940491
-0.000312346
-0.00953553
-0.0003065
-0.00951359
-0.000301527
-0.00948212
-0.000297821
-0.00945305
-0.000295264
-0.00942818
-0.00940804
-0.000309819
-0.00954205
-0.000304409
-0.009519
-0.000299859
-0.00948667
-0.000296607
-0.0094563
-0.000294533
-0.00943025
-0.00940882
-0.000307237
-0.00954818
-0.000302262
-0.00952397
-0.000298133
-0.0094908
-0.000295333
-0.0094591
-0.000293738
-0.00943185
-0.00940908
-0.0003046
-0.00955394
-0.000300059
-0.00952851
-0.000296344
-0.00949451
-0.000293991
-0.00946145
-0.000292873
-0.00943297
-0.000301907
-0.00955931
-0.000297799
-0.00953262
-0.000294493
-0.00949782
-0.000292583
-0.00946336
-0.00943361
-0.000299157
-0.00956431
-0.000295483
-0.0095363
-0.000292578
-0.00950073
-0.000291106
-0.00946483
-0.0094338
-0.000296349
-0.00956893
-0.000293114
-0.00953953
-0.000290597
-0.00950324
-0.000289561
-0.00946587
-0.00943352
-0.00029349
-0.00957317
-0.000290689
-0.00954233
-0.000288555
-0.00950538
-0.000287947
-0.00946648
-0.00943281
-0.000290502
-0.000288248
-0.000286418
-0.000286251
-0.000386138
-0.00987751
-0.000424814
-0.00986309
-0.000464651
-0.0098408
-0.000505219
-0.00982239
-0.00980872
-0.000384097
-0.00983898
-0.000423123
-0.00982407
-0.000463191
-0.00980074
-0.000504061
-0.00978152
-0.00976684
-0.000381996
-0.00980018
-0.000421332
-0.00978473
-0.000461633
-0.00976044
-0.000502778
-0.00974037
-0.00972469
-0.000379837
-0.00976113
-0.000419472
-0.0097451
-0.000460009
-0.0097199
-0.000501424
-0.00969896
-0.00968228
-0.000377617
-0.00972182
-0.00041754
-0.00970517
-0.000458316
-0.00967912
-0.000499994
-0.00965728
-0.00963961
-0.000375334
-0.00968225
-0.000415538
-0.00966497
-0.000456553
-0.00963811
-0.000498488
-0.00961534
-0.00054141
-0.00959669
-0.00958353
-0.000372989
-0.00964242
-0.000413468
-0.00962449
-0.000454718
-0.00959686
-0.000496905
-0.00957316
-0.000540076
-0.00955352
-0.00953926
-0.00037058
-0.00960233
-0.000411329
-0.00958374
-0.000452811
-0.00955537
-0.000495243
-0.00953073
-0.000538657
-0.0095101
-0.00949473
-0.000368108
-0.00956197
-0.000409123
-0.00954273
-0.000450831
-0.00951367
-0.000493499
-0.00948806
-0.000537149
-0.00946645
-0.00944994
-0.000365573
-0.000406848
-0.000448778
-0.000491671
-0.000535552
0.00936183
-0.00267592
0.00964255
-0.00294192
-0.00387467
0.00932663
-0.00299764
0.00959498
-0.00321027
-0.00428368
0.00927636
-0.00331927
0.00953523
-0.00346913
-0.00471133
0.00921879
-0.00364163
0.00946795
-0.0037183
-0.00514498
0.00915446
0.00939484
)
;

boundaryField
{
    inlet
    {
        type            calculated;
        value           nonuniform 0();
    }
    outlet
    {
        type            calculated;
        value           nonuniform 0();
    }
    polygon
    {
        type            calculated;
        value           nonuniform 0();
    }
    top
    {
        type            symmetryPlane;
        value           uniform 0;
    }
    bottom
    {
        type            symmetryPlane;
        value           uniform 0;
    }
    outside
    {
        type            calculated;
        value           nonuniform List<scalar> 
33
(
0.000247284
0.000244884
0.000242444
0.000239966
0.000237452
0.000234902
0.000232314
0.000229688
0.000227043
0.000222645
0.000322085
0.000319242
0.000316335
0.000313373
0.000310355
0.000307281
0.000304152
0.000300971
0.000297736
0.000294537
0.000347843
0.00034556
0.000343202
0.000340784
0.000338305
0.000335763
0.000333158
0.000330489
0.000327756
0.000324955
0.00235809
0.0026612
0.00345448
)
;
    }
    procBoundary1to0
    {
        type            processor;
        value           nonuniform List<scalar> 5(-0.009044 -0.00900492 -0.00895474 -0.00889643 -0.00883264);
    }
    procBoundary1to2
    {
        type            processor;
        value           nonuniform List<scalar> 5(0.00991581 0.00990177 0.00988064 0.00986296 0.00985034);
    }
    procBoundary1to9
    {
        type            processor;
        value           nonuniform List<scalar> 
35
(
-9.94266e-06
-1.00561e-05
-1.0133e-05
-1.01737e-05
-1.01749e-05
-1.01275e-05
-1.00251e-05
-9.89337e-06
-9.80671e-06
-9.94437e-06
-0.000294043
-0.000293969
-0.000293756
-0.000293475
-0.000293116
-0.00940884
-0.000291936
-0.000290924
-0.000289833
-0.000288665
-0.000287404
-0.000546836
-0.00054595
-0.000544927
-0.000543834
-0.000542662
0.00962753
-0.000585407
-0.000584345
-0.000583189
-0.000581934
-0.00058058
-0.00396346
-0.00395867
-0.00560457
)
;
    }
}


// ************************************************************************* //
