/*--------------------------------*- C++ -*----------------------------------*\
  =========                 |
  \\      /  F ield         | OpenFOAM: The Open Source CFD Toolbox
   \\    /   O peration     | Website:  https://openfoam.org
    \\  /    A nd           | Version:  7
     \\/     M anipulation  |
\*---------------------------------------------------------------------------*/
FoamFile
{
    version     2.0;
    format      ascii;
    class       volVectorField;
    location    "16";
    object      U;
}
// * * * * * * * * * * * * * * * * * * * * * * * * * * * * * * * * * * * * * //

dimensions      [0 1 -1 0 0 0 0];

internalField   nonuniform List<vector> 
4000
(
(1.26971 0.23748 1.32247e-17)
(1.26333 0.257991 5.0791e-18)
(1.25403 0.266308 8.38209e-19)
(1.24633 0.281503 -6.05618e-18)
(1.23748 0.293563 2.28071e-18)
(1.23005 0.308253 3.7573e-18)
(1.22181 0.322078 2.16647e-17)
(1.21424 0.337768 7.48682e-18)
(1.20633 0.35438 1.45886e-17)
(1.19903 0.3722 2.84237e-17)
(1.19108 0.393243 1.58595e-17)
(1.18459 0.414758 1.99129e-17)
(1.17607 0.444594 -3.07622e-18)
(1.17267 0.473572 1.44674e-17)
(1.16435 0.516529 1.28811e-17)
(1.1677 0.544126 1.65485e-17)
(1.12488 0.5531 5.99106e-18)
(1.03882 0.469398 1.26085e-17)
(0.695259 0.241761 -8.16097e-18)
(0.382477 0.00259687 2.58927e-18)
(1.278 0.243657 9.92167e-18)
(1.2712 0.264139 4.22949e-18)
(1.26206 0.272825 3.1242e-18)
(1.25441 0.288301 1.17879e-17)
(1.24581 0.300666 2.25986e-18)
(1.23844 0.315685 7.05631e-18)
(1.23043 0.330071 1.85664e-17)
(1.22317 0.346376 6.65945e-18)
(1.21582 0.363697 1.72308e-17)
(1.20939 0.382666 2.34503e-17)
(1.20304 0.40482 2.33862e-17)
(1.19835 0.428916 1.14692e-17)
(1.19425 0.460408 1.37945e-19)
(1.1946 0.491172 1.74648e-17)
(1.18279 0.523236 1.92117e-17)
(1.14269 0.521236 1.00355e-17)
(1.00426 0.474621 3.25851e-18)
(0.728816 0.336108 2.73286e-18)
(0.320055 0.222012 -1.71974e-17)
(-0.0920327 0.0962184 -2.54749e-18)
(1.28576 0.249658 7.95039e-18)
(1.27843 0.270229 2.49799e-18)
(1.26936 0.279169 8.37166e-19)
(1.26161 0.294923 8.16738e-18)
(1.25323 0.307618 2.05408e-18)
(1.246 0.323041 6.79417e-18)
(1.23853 0.337968 9.69159e-18)
(1.23202 0.35481 6.59189e-18)
(1.22575 0.37259 1.63284e-17)
(1.22056 0.392233 2.10545e-17)
(1.21606 0.415154 2.97566e-17)
(1.21388 0.440258 2.2517e-18)
(1.21161 0.468855 6.22973e-18)
(1.20313 0.488752 1.73339e-17)
(1.15731 0.488842 1.76669e-17)
(1.0376 0.433142 1.83232e-18)
(0.788808 0.319265 -2.83329e-18)
(0.439887 0.155743 -1.15997e-17)
(0.0573715 0.0138697 -9.41456e-18)
(-0.0058848 -0.0258201 -7.00936e-18)
(1.29323 0.255499 5.15603e-18)
(1.2855 0.276226 3.83047e-18)
(1.27654 0.285327 7.55864e-18)
(1.26873 0.301301 7.71987e-18)
(1.26053 0.314179 2.20793e-18)
(1.2534 0.329783 6.76031e-18)
(1.24615 0.344869 2.20629e-17)
(1.2399 0.361866 6.68794e-18)
(1.23417 0.379954 1.92446e-17)
(1.22998 0.400357 2.284e-17)
(1.22742 0.423521 1.88264e-17)
(1.22645 0.446924 4.18141e-18)
(1.21774 0.466667 1.08377e-17)
(1.18155 0.466052 1.35785e-17)
(1.0757 0.429659 9.03886e-18)
(0.864773 0.334954 -2.83355e-18)
(0.538713 0.209013 -5.41808e-18)
(0.179721 0.0787766 -9.60575e-18)
(-0.0393367 0.0804372 -1.92592e-17)
(-0.0911666 0.0625603 -6.21074e-18)
(1.30055 0.261153 6.73012e-18)
(1.29254 0.28205 8.27583e-19)
(1.28372 0.291249 -8.96806e-18)
(1.27595 0.307451 2.51864e-18)
(1.26802 0.320537 1.31514e-18)
(1.26122 0.336468 1.36235e-17)
(1.25469 0.351966 1.62365e-17)
(1.24957 0.369446 6.2864e-18)
(1.2455 0.387933 1.28542e-17)
(1.24313 0.408071 6.81376e-18)
(1.24102 0.428741 1.2888e-17)
(1.2342 0.445553 -1.67221e-18)
(1.20471 0.449803 3.34607e-18)
(1.12187 0.42277 1.04365e-17)
(0.943015 0.352443 1.92991e-18)
(0.656126 0.234697 -4.80903e-18)
(0.307806 0.116108 -4.74462e-18)
(0.0407529 0.0539751 -4.31539e-18)
(-0.0958514 0.053075 -5.48149e-18)
(-0.0305474 0.022165 -1.23843e-17)
(1.30773 0.266637 -2.29932e-18)
(1.2995 0.287716 1.15081e-18)
(1.29082 0.296978 4.6977e-18)
(1.28309 0.313364 1.25737e-17)
(1.27535 0.326491 9.24002e-18)
(1.26869 0.342404 -2.23148e-18)
(1.26231 0.357636 1.26926e-17)
(1.25715 0.374597 3.05124e-18)
(1.25269 0.392233 1.56627e-17)
(1.24954 0.410981 6.86618e-18)
(1.24391 0.427986 7.10984e-18)
(1.224 0.43536 6.86125e-18)
(1.16218 0.420269 8.6663e-18)
(1.022 0.367012 6.04041e-18)
(0.774017 0.273745 8.94635e-19)
(0.446747 0.157019 9.17635e-19)
(0.141242 0.0862491 2.30608e-18)
(-0.0516035 0.067411 -2.23123e-18)
(-0.0954465 0.0865166 1.44023e-19)
(-0.0510726 0.0475144 -1.90782e-18)
(1.31474 0.271934 -2.23694e-18)
(1.30633 0.293166 9.00319e-19)
(1.29777 0.302425 3.66555e-18)
(1.29011 0.318979 1.1535e-17)
(1.2826 0.332186 7.309e-18)
(1.27629 0.348316 8.12275e-18)
(1.27069 0.363888 1.05646e-17)
(1.26694 0.381428 1.1477e-17)
(1.26442 0.399099 9.42723e-19)
(1.26131 0.415403 -6.49971e-19)
(1.24786 0.424399 1.35917e-17)
(1.20363 0.416042 3.37059e-18)
(1.09558 0.378762 3.58901e-18)
(0.892926 0.304243 3.2227e-18)
(0.593966 0.2023 -1.28578e-18)
(0.272842 0.108492 1.96428e-18)
(0.0327688 0.0775123 -9.3275e-19)
(-0.0803383 0.0831366 -6.20539e-18)
(-0.101827 0.08667 4.82254e-18)
(-0.0328051 0.0357326 4.34891e-19)
(1.3216 0.277088 1.62918e-19)
(1.31302 0.298505 1.82875e-18)
(1.30455 0.307793 6.26481e-18)
(1.29697 0.324511 6.08464e-18)
(1.2896 0.337653 5.65334e-18)
(1.28344 0.353577 8.32808e-18)
(1.27779 0.368381 1.0088e-17)
(1.27309 0.384112 4.16233e-18)
(1.26738 0.398151 5.66632e-19)
(1.25574 0.408333 3.99332e-18)
(1.22401 0.407686 9.32137e-18)
(1.14724 0.385469 2.0793e-18)
(0.992089 0.331101 2.0805e-18)
(0.739176 0.243646 1.23293e-18)
(0.421809 0.147765 -5.42101e-20)
(0.142093 0.0881742 3.57442e-18)
(-0.0290464 0.0877292 -9.24999e-20)
(-0.105486 0.0954074 -2.4032e-18)
(-0.0964825 0.0953324 -1.69304e-19)
(-0.0410829 0.0415733 -1.47304e-19)
(1.32825 0.282049 -4.41794e-18)
(1.31957 0.303583 1.18865e-18)
(1.31119 0.312747 -1.71952e-18)
(1.30372 0.329539 1.30912e-17)
(1.29645 0.342617 6.05988e-18)
(1.29053 0.358567 4.25217e-18)
(1.28532 0.373541 2.99505e-18)
(1.28128 0.389573 1.00453e-17)
(1.27528 0.403177 1.12629e-18)
(1.25859 0.409652 -9.11512e-19)
(1.20993 0.397991 7.66531e-18)
(1.09752 0.356193 -1.1905e-18)
(0.892105 0.281064 2.36054e-18)
(0.59862 0.187094 2.3116e-18)
(0.287852 0.111031 1.68351e-18)
(0.0580395 0.0817388 7.57019e-18)
(-0.0686494 0.0884452 3.8247e-18)
(-0.111299 0.0937061 -4.21751e-18)
(-0.0974548 0.0894835 -1.98896e-18)
(-0.0380337 0.0372194 -4.91923e-19)
(1.33479 0.286893 -3.43107e-18)
(1.32599 0.30864 1.06741e-18)
(1.31755 0.317898 5.14428e-18)
(1.3102 0.334913 8.48703e-18)
(1.30291 0.347891 -5.52382e-19)
(1.29705 0.363511 8.05311e-18)
(1.29123 0.377138 1.81076e-18)
(1.28442 0.389647 5.47775e-18)
(1.26941 0.395343 -5.92216e-18)
(1.23131 0.387743 6.59224e-19)
(1.14424 0.357161 3.75759e-18)
(0.980785 0.298823 -1.94649e-18)
(0.73039 0.219899 4.21565e-19)
(0.4283 0.141014 2.03633e-18)
(0.15839 0.0912172 1.05643e-18)
(-0.0132541 0.0768982 2.84759e-18)
(-0.0954634 0.0817114 -2.81928e-19)
(-0.114612 0.0829794 -2.11753e-18)
(-0.089365 0.0798801 -2.80979e-18)
(-0.0352173 0.0349299 -8.55768e-19)
(1.18626 0.176902 4.14318e-17)
(1.17487 0.202332 1.14178e-17)
(1.16307 0.211096 -1.40678e-17)
(1.14781 0.230068 -3.68551e-17)
(1.13393 0.24355 -2.12501e-17)
(1.11616 0.260591 6.8165e-17)
(1.09888 0.276144 1.75827e-17)
(1.07776 0.293313 6.30652e-17)
(1.05489 0.31046 -6.91063e-19)
(1.02744 0.328276 6.8528e-18)
(0.995965 0.346288 3.34109e-17)
(0.957818 0.363999 -4.30485e-17)
(0.913324 0.381391 -8.50498e-17)
(0.858728 0.397002 -8.88421e-18)
(0.798458 0.410559 6.45744e-17)
(0.722619 0.418093 1.57014e-16)
(0.647746 0.425808 2.01817e-16)
(0.543211 0.411309 1.21261e-16)
(0.427713 0.395678 1.30563e-17)
(0.190512 0.194373 2.55881e-17)
(1.1944 0.182943 3.61374e-17)
(1.18351 0.20823 9.23482e-18)
(1.17196 0.217092 -7.71323e-18)
(1.1575 0.23602 -3.37261e-17)
(1.14422 0.249663 -1.85592e-17)
(1.12757 0.266995 2.6286e-17)
(1.11141 0.282796 1.9094e-17)
(1.09186 0.300644 1.62258e-17)
(1.07091 0.318615 3.1757e-17)
(1.04588 0.33771 4.67798e-17)
(1.01741 0.357568 -1.03248e-17)
(0.982769 0.377591 -2.88188e-17)
(0.942576 0.39829 -5.31734e-18)
(0.893181 0.417119 -1.12908e-18)
(0.838895 0.437039 -8.39754e-18)
(0.770944 0.448276 1.18558e-16)
(0.701859 0.468249 1.39245e-16)
(0.612882 0.45577 1.31551e-17)
(0.490768 0.447921 1.02873e-16)
(0.243208 0.217955 2.58544e-17)
(1.20249 0.189019 2.09741e-17)
(1.19227 0.214038 5.94758e-18)
(1.18092 0.222934 -1.98284e-17)
(1.16741 0.241718 -1.83321e-17)
(1.15468 0.255444 -9.73658e-18)
(1.13923 0.272923 1.62787e-17)
(1.12414 0.288867 3.74535e-18)
(1.10612 0.307182 2.13372e-17)
(1.08685 0.325805 3.1541e-17)
(1.06387 0.34594 2.74321e-17)
(1.03777 0.367452 -4.16936e-18)
(1.00572 0.389639 -3.4263e-17)
(0.968392 0.413817 -3.55089e-17)
(0.921259 0.436394 -2.06999e-17)
(0.868831 0.46259 -8.79711e-18)
(0.801682 0.479263 7.08646e-17)
(0.731298 0.507201 6.81967e-17)
(0.639044 0.498643 4.4039e-17)
(0.499095 0.481581 6.58608e-17)
(0.226849 0.221873 3.02841e-18)
(1.21059 0.195085 3.57818e-17)
(1.20102 0.219733 3.76073e-18)
(1.18986 0.228615 1.67194e-17)
(1.17722 0.247148 -3.80456e-17)
(1.16502 0.260882 -1.73737e-17)
(1.15067 0.278358 2.24081e-17)
(1.1366 0.294325 3.32105e-17)
(1.12005 0.312882 -5.96372e-18)
(1.10248 0.331924 1.36317e-17)
(1.08168 0.352719 5.24889e-17)
(1.05822 0.375487 1.02721e-18)
(1.02952 0.399118 1.19417e-17)
(0.996158 0.426257 3.50695e-17)
(0.95408 0.451299 3.43646e-17)
(0.9063 0.48402 1.57023e-19)
(0.847417 0.504525 1.11905e-16)
(0.778564 0.545499 1.07724e-16)
(0.698948 0.539568 -2.54425e-17)
(0.538436 0.516264 3.2797e-17)
(0.242733 0.232251 1.00102e-17)
(1.21878 0.201177 2.94615e-17)
(1.20981 0.225377 1.02461e-17)
(1.19889 0.234232 -1.73185e-17)
(1.18706 0.252435 -2.88574e-17)
(1.17541 0.266124 9.7236e-18)
(1.16216 0.283482 -7.24789e-18)
(1.14914 0.299372 2.0537e-17)
(1.13413 0.317979 -1.1937e-17)
(1.11833 0.337231 3.81305e-17)
(1.09988 0.358361 4.21113e-17)
(1.07926 0.382002 5.44752e-18)
(1.05406 0.406601 1.13151e-17)
(1.02467 0.436125 -1.66895e-17)
(0.98746 0.463155 2.41782e-17)
(0.943725 0.500191 5.76325e-18)
(0.890252 0.52392 8.30535e-17)
(0.823062 0.565471 7.217e-17)
(0.7361 0.562626 -1.26518e-18)
(0.567941 0.524075 1.71711e-17)
(0.23297 0.227208 2.59793e-18)
(1.2271 0.207207 2.03089e-17)
(1.21871 0.230842 -1.35265e-17)
(1.20807 0.239596 5.98709e-18)
(1.19706 0.257331 -2.29742e-17)
(1.18601 0.270841 5.97459e-18)
(1.17388 0.287883 -3.86016e-18)
(1.16195 0.303497 2.35632e-17)
(1.14851 0.321841 2.17534e-17)
(1.13453 0.340958 3.0031e-17)
(1.11853 0.361916 3.26823e-17)
(1.10075 0.385945 5.81253e-18)
(1.07966 0.410733 7.41222e-18)
(1.05403 0.442092 5.76391e-19)
(1.02341 0.470434 1.64185e-17)
(0.98305 0.513099 4.89696e-18)
(0.941017 0.542583 6.27775e-17)
(0.873491 0.603237 5.03219e-17)
(0.812951 0.610698 6.62998e-18)
(0.612699 0.581473 1.28277e-17)
(0.274196 0.251024 1.52899e-18)
(1.23551 0.21331 1.81851e-17)
(1.22764 0.236359 -6.55978e-18)
(1.21727 0.245045 4.76424e-18)
(1.20701 0.262314 -1.36338e-17)
(1.1965 0.275648 4.85734e-18)
(1.18543 0.292351 -2.75283e-18)
(1.17448 0.307691 -3.04455e-18)
(1.16252 0.32572 1.69933e-17)
(1.1502 0.344635 2.44588e-17)
(1.1366 0.365322 2.91979e-17)
(1.12157 0.389375 1.14071e-17)
(1.10427 0.414316 9.30777e-18)
(1.08276 0.446601 -2.45472e-17)
(1.05783 0.475922 1.22159e-17)
(1.02335 0.518969 1.00844e-17)
(0.986282 0.547725 4.75774e-17)
(0.927194 0.590569 3.38175e-17)
(0.836898 0.590741 1.52373e-17)
(0.648756 0.527956 6.8098e-18)
(0.233354 0.221229 7.28719e-18)
(1.24396 0.219203 5.12365e-18)
(1.23664 0.241489 -1.24734e-17)
(1.2266 0.249917 -1.32948e-19)
(1.21713 0.266461 -1.85514e-17)
(1.20718 0.279345 2.67433e-18)
(1.19723 0.295364 -2.83929e-18)
(1.18726 0.310066 -1.03903e-17)
(1.17684 0.327253 1.55394e-17)
(1.16625 0.345322 1.90589e-17)
(1.15517 0.364881 1.60143e-17)
(1.14281 0.388118 -1.37497e-18)
(1.12965 0.4117 -2.65161e-18)
(1.11245 0.443976 -2.31527e-17)
(1.09452 0.472895 -3.86328e-18)
(1.06459 0.521126 -5.49663e-18)
(1.03929 0.558947 3.9209e-17)
(0.985077 0.640944 3.00393e-17)
(0.949642 0.676438 9.03999e-18)
(0.746329 0.687464 6.48845e-18)
(0.370824 0.306679 -7.63729e-18)
(1.25248 0.225376 2.14127e-17)
(1.24553 0.247088 1.01465e-17)
(1.23569 0.255517 5.1087e-18)
(1.22683 0.27164 9.03305e-18)
(1.21727 0.284343 3.36324e-18)
(1.20824 0.300003 -4.50085e-19)
(1.19898 0.314456 1.0514e-17)
(1.18976 0.331235 7.53647e-18)
(1.18038 0.348934 1.38998e-17)
(1.17086 0.368107 3.39299e-17)
(1.16041 0.391024 2.53122e-17)
(1.14997 0.414268 2.36935e-17)
(1.1364 0.446312 -1.27978e-17)
(1.1239 0.475361 2.55224e-17)
(1.10174 0.519922 2.46373e-17)
(1.08274 0.5477 2.24055e-17)
(1.03409 0.579069 2.36146e-18)
(0.951578 0.56134 3.04739e-17)
(0.727215 0.46075 1.45287e-17)
(0.24649 0.173025 6.82183e-19)
(1.26095 0.230922 1.67644e-17)
(1.25463 0.251591 7.11594e-18)
(1.24518 0.259379 -6.66576e-18)
(1.23714 0.274272 -7.60027e-19)
(1.22814 0.286 2.02059e-18)
(1.22026 0.300357 -1.04407e-18)
(1.2119 0.313577 1.55431e-17)
(1.20409 0.328629 2.30555e-17)
(1.19604 0.344637 1.14179e-17)
(1.18873 0.361358 3.64972e-17)
(1.18044 0.381784 2.46299e-17)
(1.17448 0.401077 2.07628e-17)
(1.16433 0.429673 -5.63579e-18)
(1.15899 0.454314 2.71131e-18)
(1.13791 0.502 1.68547e-17)
(1.12855 0.547777 3.52572e-17)
(1.09155 0.647154 5.42568e-18)
(1.1016 0.728788 2.50267e-17)
(0.968597 0.805277 -7.72254e-18)
(0.646006 0.38208 4.59119e-19)
(1.26095 -0.230922 2.26525e-17)
(1.25463 -0.251591 1.57835e-17)
(1.24518 -0.259379 4.3332e-18)
(1.23714 -0.274272 1.0308e-17)
(1.22814 -0.286 2.05251e-18)
(1.22026 -0.300357 -6.44891e-18)
(1.2119 -0.313577 8.0393e-18)
(1.20409 -0.328629 -2.58123e-18)
(1.19604 -0.344637 -1.34038e-17)
(1.18873 -0.361358 -2.19071e-17)
(1.18044 -0.381784 1.19592e-18)
(1.17448 -0.401077 8.74675e-18)
(1.16433 -0.429673 -1.1953e-17)
(1.15899 -0.454314 -4.5637e-18)
(1.13791 -0.502 -3.83242e-18)
(1.12855 -0.547777 -4.78807e-17)
(1.09155 -0.647154 -3.3827e-17)
(1.1016 -0.728788 -2.29102e-17)
(0.968597 -0.805277 4.63413e-18)
(0.646006 -0.38208 -3.32137e-18)
(1.25248 -0.225376 1.24391e-17)
(1.24553 -0.247088 1.20647e-17)
(1.23569 -0.255517 8.15585e-18)
(1.22683 -0.27164 1.72257e-17)
(1.21727 -0.284343 6.23533e-19)
(1.20824 -0.300003 -5.23198e-18)
(1.19898 -0.314456 7.14093e-18)
(1.18976 -0.331235 2.2983e-18)
(1.18038 -0.348934 -1.88711e-17)
(1.17086 -0.368107 -2.72336e-17)
(1.16041 -0.391024 1.07889e-17)
(1.14997 -0.414268 2.37628e-18)
(1.1364 -0.446312 -3.6646e-17)
(1.1239 -0.475361 -2.49601e-17)
(1.10174 -0.519922 -1.47231e-17)
(1.08274 -0.5477 -5.45472e-17)
(1.03409 -0.579069 -2.11947e-17)
(0.951578 -0.56134 -1.85622e-17)
(0.727215 -0.46075 -1.4715e-17)
(0.24649 -0.173025 -1.18507e-17)
(1.24396 -0.219203 2.14184e-17)
(1.23664 -0.241489 1.79235e-17)
(1.2266 -0.249917 6.70913e-18)
(1.21713 -0.266461 2.07889e-17)
(1.20718 -0.279345 -2.7323e-17)
(1.19723 -0.295364 -9.16878e-18)
(1.18726 -0.310066 1.11616e-17)
(1.17684 -0.327253 1.75835e-18)
(1.16625 -0.345322 -2.50621e-17)
(1.15517 -0.364881 -3.53181e-17)
(1.14281 -0.388118 1.5143e-17)
(1.12965 -0.4117 6.86545e-18)
(1.11245 -0.443976 -4.33749e-17)
(1.09452 -0.472895 -1.82298e-17)
(1.06459 -0.521126 -1.19688e-17)
(1.03929 -0.558947 -3.7631e-17)
(0.985077 -0.640944 6.78061e-18)
(0.949642 -0.676438 -2.68733e-17)
(0.746329 -0.687464 -1.18428e-17)
(0.370824 -0.306679 1.00605e-17)
(1.23551 -0.21331 5.5061e-19)
(1.22764 -0.236359 2.12988e-17)
(1.21727 -0.245045 6.46706e-18)
(1.20701 -0.262314 4.61971e-18)
(1.1965 -0.275648 -2.74641e-17)
(1.18543 -0.292351 -9.40939e-18)
(1.17448 -0.307691 -1.51589e-17)
(1.16252 -0.32572 4.96035e-18)
(1.1502 -0.344635 6.3549e-19)
(1.1366 -0.365322 -4.71371e-17)
(1.12157 -0.389375 2.73821e-17)
(1.10427 -0.414316 3.17241e-18)
(1.08276 -0.446601 -2.37378e-17)
(1.05783 -0.475922 1.65302e-17)
(1.02335 -0.518969 -1.30899e-17)
(0.986282 -0.547725 -6.43273e-17)
(0.927194 -0.590569 -1.00147e-18)
(0.836898 -0.590741 -3.08846e-17)
(0.648756 -0.527956 -1.80001e-17)
(0.233354 -0.221229 -2.21368e-18)
(1.2271 -0.207207 8.44667e-18)
(1.21871 -0.230842 2.85229e-17)
(1.20807 -0.239596 7.60812e-18)
(1.19706 -0.257331 -1.0688e-17)
(1.18601 -0.270841 -3.96644e-17)
(1.17388 -0.287883 -9.31817e-18)
(1.16195 -0.303497 -7.94808e-18)
(1.14851 -0.321841 -2.34374e-17)
(1.13453 -0.340958 -1.1766e-17)
(1.11853 -0.361916 -2.83598e-17)
(1.10075 -0.385945 6.89863e-18)
(1.07966 -0.410733 3.56564e-18)
(1.05403 -0.442092 -4.82684e-17)
(1.02341 -0.470434 1.20933e-17)
(0.98305 -0.513099 -2.1919e-17)
(0.941017 -0.542583 -7.79281e-17)
(0.873491 -0.603237 1.24705e-17)
(0.812951 -0.610698 -4.13293e-17)
(0.612699 -0.581473 -2.6375e-17)
(0.274196 -0.251024 -7.80418e-19)
(1.21878 -0.201177 4.05082e-18)
(1.20981 -0.225377 3.64531e-17)
(1.19889 -0.234232 1.05501e-17)
(1.18706 -0.252435 -4.84982e-18)
(1.17541 -0.266124 -1.81651e-17)
(1.16216 -0.283482 -4.15723e-17)
(1.14914 -0.299372 -1.30476e-17)
(1.13413 -0.317979 -1.80335e-17)
(1.11833 -0.337231 -4.94343e-18)
(1.09988 -0.358361 -1.25398e-17)
(1.07926 -0.382002 -1.7049e-17)
(1.05406 -0.406601 4.8447e-17)
(1.02467 -0.436125 -6.22701e-17)
(0.98746 -0.463155 3.24565e-17)
(0.943725 -0.500191 -3.05148e-17)
(0.890252 -0.52392 -5.08833e-17)
(0.823062 -0.565471 3.21281e-17)
(0.7361 -0.562626 -5.66013e-17)
(0.567941 -0.524075 -4.08258e-17)
(0.23297 -0.227208 2.83036e-18)
(1.21059 -0.195085 3.86172e-18)
(1.20102 -0.219733 1.9516e-17)
(1.18986 -0.228615 1.19085e-17)
(1.17722 -0.247148 -7.86882e-18)
(1.16502 -0.260882 -1.5538e-18)
(1.15067 -0.278358 -7.40367e-18)
(1.1366 -0.294325 2.36327e-17)
(1.12005 -0.312882 -2.54581e-17)
(1.10248 -0.331924 -9.10611e-18)
(1.08168 -0.352719 1.5731e-17)
(1.05822 -0.375487 -1.32222e-17)
(1.02952 -0.399118 5.44686e-17)
(0.996158 -0.426257 -4.87609e-17)
(0.95408 -0.451299 -4.55239e-18)
(0.9063 -0.48402 1.50328e-17)
(0.847417 -0.504525 -1.23261e-17)
(0.778564 -0.545499 5.04147e-17)
(0.698948 -0.539568 1.63368e-17)
(0.538436 -0.516264 -6.13873e-17)
(0.242733 -0.232251 1.25746e-17)
(1.20249 -0.189019 4.08205e-18)
(1.19227 -0.214038 3.5848e-17)
(1.18092 -0.222934 1.55186e-17)
(1.16741 -0.241718 -9.25814e-18)
(1.15468 -0.255444 -1.03253e-17)
(1.13923 -0.272923 -2.85535e-17)
(1.12414 -0.288867 -1.96398e-17)
(1.10612 -0.307182 4.45589e-18)
(1.08685 -0.325805 -9.3193e-18)
(1.06387 -0.34594 -3.46935e-17)
(1.03777 -0.367452 -2.42426e-17)
(1.00572 -0.389639 3.10138e-17)
(0.968392 -0.413817 -3.69844e-17)
(0.921259 -0.436394 1.83239e-17)
(0.868831 -0.46259 -6.92214e-17)
(0.801682 -0.479263 -3.40291e-17)
(0.731298 -0.507201 6.40473e-17)
(0.639044 -0.498643 8.59255e-18)
(0.499095 -0.481581 1.90227e-17)
(0.226849 -0.221873 5.40452e-17)
(1.1944 -0.182943 1.73511e-18)
(1.18351 -0.20823 4.11108e-17)
(1.17196 -0.217092 1.85795e-17)
(1.1575 -0.23602 -1.11948e-17)
(1.14422 -0.249663 -9.39334e-18)
(1.12757 -0.266995 -2.82848e-17)
(1.11141 -0.282796 -4.60885e-18)
(1.09186 -0.300644 -3.29919e-18)
(1.07091 -0.318615 -1.62115e-17)
(1.04588 -0.33771 -2.61488e-17)
(1.01741 -0.357568 -2.5695e-17)
(0.982769 -0.377591 6.04942e-17)
(0.942576 -0.39829 -6.66273e-17)
(0.893181 -0.417119 2.45618e-17)
(0.838895 -0.437039 -6.68682e-17)
(0.770944 -0.448276 -2.94026e-17)
(0.701859 -0.468249 9.1708e-17)
(0.612882 -0.45577 1.26113e-17)
(0.490768 -0.447921 1.45006e-17)
(0.243208 -0.217955 1.09476e-16)
(1.18626 -0.176902 2.65134e-17)
(1.17487 -0.202332 8.32026e-17)
(1.16307 -0.211096 -6.50634e-18)
(1.14781 -0.230068 1.93977e-17)
(1.13393 -0.24355 -1.19323e-17)
(1.11616 -0.260591 -3.96346e-17)
(1.09888 -0.276144 -1.14606e-17)
(1.07776 -0.293313 -3.89993e-17)
(1.05489 -0.31046 -6.53991e-17)
(1.02744 -0.328276 7.02491e-18)
(0.995965 -0.346288 1.89345e-17)
(0.957818 -0.363999 8.0858e-17)
(0.913324 -0.381391 -3.6709e-17)
(0.858728 -0.397002 -2.50056e-17)
(0.798458 -0.410559 -1.13742e-16)
(0.722619 -0.418093 -2.91842e-17)
(0.647746 -0.425808 1.35573e-16)
(0.543211 -0.411309 1.27816e-17)
(0.427713 -0.395678 5.62764e-19)
(0.190512 -0.194373 1.61192e-17)
(1.33479 -0.286893 9.72865e-19)
(1.32599 -0.30864 -5.53409e-18)
(1.31755 -0.317898 1.02381e-19)
(1.3102 -0.334913 2.63161e-18)
(1.30291 -0.347891 2.36178e-18)
(1.29705 -0.363511 3.39973e-19)
(1.29123 -0.377138 2.70751e-19)
(1.28442 -0.389647 1.15146e-18)
(1.26941 -0.395343 -3.61006e-18)
(1.23131 -0.387743 2.52749e-18)
(1.14424 -0.357161 -2.31509e-18)
(0.980785 -0.298823 -4.76345e-18)
(0.73039 -0.219899 -1.3105e-18)
(0.4283 -0.141014 1.54982e-18)
(0.15839 -0.0912172 -8.26699e-18)
(-0.0132541 -0.0768982 -9.3252e-18)
(-0.0954634 -0.0817114 -1.68914e-18)
(-0.114612 -0.0829794 -4.9867e-18)
(-0.089365 -0.0798801 -2.43074e-18)
(-0.0352173 -0.0349299 -5.75418e-19)
(1.32825 -0.282049 1.806e-18)
(1.31957 -0.303583 -1.33801e-18)
(1.31119 -0.312747 -4.70461e-19)
(1.30372 -0.329539 2.63448e-18)
(1.29645 -0.342617 -4.03149e-18)
(1.29053 -0.358567 7.46715e-19)
(1.28532 -0.373541 -7.55332e-18)
(1.28128 -0.389573 2.86141e-18)
(1.27528 -0.403177 -4.7124e-18)
(1.25859 -0.409652 -1.67701e-18)
(1.20993 -0.397991 -6.30377e-19)
(1.09752 -0.356193 -5.88031e-18)
(0.892105 -0.281064 -3.21774e-19)
(0.59862 -0.187094 -3.60002e-18)
(0.287852 -0.111031 9.51521e-19)
(0.0580395 -0.0817388 -3.60165e-18)
(-0.0686494 -0.0884452 -8.11182e-19)
(-0.111299 -0.0937061 -4.16568e-18)
(-0.0974548 -0.0894835 -5.21305e-18)
(-0.0380337 -0.0372194 -6.55653e-19)
(1.3216 -0.277088 1.96563e-18)
(1.31302 -0.298505 -4.20355e-18)
(1.30455 -0.307793 -6.96815e-19)
(1.29697 -0.324511 4.34037e-18)
(1.2896 -0.337653 -2.17917e-18)
(1.28344 -0.353577 2.75194e-18)
(1.27779 -0.368381 2.20114e-18)
(1.27309 -0.384112 -5.32584e-18)
(1.26738 -0.398151 -4.9256e-18)
(1.25574 -0.408333 5.71843e-18)
(1.22401 -0.407686 2.52008e-19)
(1.14724 -0.385469 -4.65107e-18)
(0.992089 -0.331101 -1.1582e-18)
(0.739176 -0.243646 -5.59613e-18)
(0.421809 -0.147765 -2.01059e-18)
(0.142093 -0.0881742 -1.00976e-18)
(-0.0290464 -0.0877292 5.79354e-19)
(-0.105486 -0.0954074 -2.83971e-18)
(-0.0964825 -0.0953324 -2.8271e-18)
(-0.0410829 -0.0415733 4.37858e-19)
(1.31474 -0.271934 3.47945e-18)
(1.30633 -0.293166 -4.11978e-18)
(1.29777 -0.302425 -2.10519e-18)
(1.29011 -0.318979 5.83722e-18)
(1.2826 -0.332186 -3.9695e-18)
(1.27629 -0.348316 1.98743e-18)
(1.27069 -0.363888 7.1996e-19)
(1.26694 -0.381428 -2.01617e-18)
(1.26442 -0.399099 -1.05869e-17)
(1.26131 -0.415403 3.86278e-18)
(1.24786 -0.424399 3.33173e-18)
(1.20363 -0.416042 -6.44176e-18)
(1.09558 -0.378762 5.1174e-19)
(0.892926 -0.304243 -7.74349e-18)
(0.593966 -0.2023 -3.09266e-18)
(0.272842 -0.108492 -3.90228e-19)
(0.0327688 -0.0775123 1.42461e-18)
(-0.0803383 -0.0831366 -2.28131e-18)
(-0.101827 -0.08667 -9.64246e-19)
(-0.0328051 -0.0357326 3.83539e-18)
(1.30773 -0.266637 -3.63403e-18)
(1.2995 -0.287716 -1.59928e-17)
(1.29082 -0.296978 6.97629e-18)
(1.28309 -0.313364 -2.881e-18)
(1.27535 -0.326491 -4.43482e-18)
(1.26869 -0.342404 2.85069e-18)
(1.26231 -0.357636 3.22388e-18)
(1.25715 -0.374597 1.06906e-17)
(1.25269 -0.392233 -2.34226e-18)
(1.24954 -0.410981 -7.71618e-18)
(1.24391 -0.427986 6.5767e-18)
(1.224 -0.43536 -7.00002e-18)
(1.16218 -0.420269 -1.3998e-18)
(1.022 -0.367012 -9.01735e-18)
(0.774017 -0.273745 -6.02407e-18)
(0.446747 -0.157019 -8.67809e-19)
(0.141242 -0.0862491 2.11196e-18)
(-0.0516035 -0.067411 -3.15001e-18)
(-0.0954465 -0.0865166 -2.74709e-18)
(-0.0510726 -0.0475144 5.76564e-19)
(1.30055 -0.261153 1.44647e-18)
(1.29254 -0.28205 -6.73707e-18)
(1.28372 -0.291249 5.64119e-18)
(1.27595 -0.307451 2.13013e-18)
(1.26802 -0.320537 -6.59778e-18)
(1.26122 -0.336468 2.07143e-18)
(1.25469 -0.351966 7.35219e-20)
(1.24957 -0.369446 9.80502e-18)
(1.2455 -0.387933 -2.12715e-18)
(1.24313 -0.408071 -9.04789e-18)
(1.24102 -0.428741 9.6017e-18)
(1.2342 -0.445553 -6.79678e-18)
(1.20471 -0.449803 -4.71656e-18)
(1.12187 -0.42277 -9.92279e-18)
(0.943015 -0.352443 -9.02113e-18)
(0.656126 -0.234697 -3.32022e-18)
(0.307806 -0.116108 -9.18807e-18)
(0.0407529 -0.0539751 -7.11593e-18)
(-0.0958514 -0.053075 -1.24543e-17)
(-0.0305474 -0.022165 -1.23177e-18)
(1.29323 -0.255499 1.14915e-18)
(1.2855 -0.276226 -1.59485e-17)
(1.27654 -0.285327 8.10481e-18)
(1.26873 -0.301301 3.39922e-18)
(1.26053 -0.314179 -8.26063e-18)
(1.2534 -0.329783 2.14156e-18)
(1.24615 -0.344869 -1.65324e-18)
(1.2399 -0.361866 -3.25841e-19)
(1.23417 -0.379954 2.07931e-18)
(1.22998 -0.400357 -1.96057e-18)
(1.22742 -0.423521 8.63818e-19)
(1.22645 -0.446924 -1.73984e-17)
(1.21774 -0.466667 -2.68157e-18)
(1.18155 -0.466052 -1.12528e-17)
(1.0757 -0.429659 -1.39555e-17)
(0.864773 -0.334954 -5.02911e-18)
(0.538713 -0.209013 -4.24936e-18)
(0.179721 -0.0787766 -8.54982e-18)
(-0.0393367 -0.0804372 -3.95286e-18)
(-0.0911666 -0.0625603 1.00088e-19)
(1.28576 -0.249658 5.1948e-18)
(1.27843 -0.270229 -4.94336e-18)
(1.26936 -0.279169 9.09414e-18)
(1.26161 -0.294923 7.4554e-18)
(1.25323 -0.307618 -1.14238e-17)
(1.246 -0.323041 2.2203e-18)
(1.23853 -0.337968 -5.6777e-19)
(1.23202 -0.35481 2.41787e-18)
(1.22575 -0.37259 2.17474e-18)
(1.22056 -0.392233 -5.33318e-18)
(1.21606 -0.415154 -2.9501e-18)
(1.21388 -0.440258 -2.05969e-17)
(1.21161 -0.468855 -5.00441e-18)
(1.20313 -0.488752 -9.10042e-18)
(1.15731 -0.488842 -2.01906e-17)
(1.0376 -0.433142 -9.70073e-18)
(0.788808 -0.319265 -4.92287e-18)
(0.439887 -0.155743 -1.27336e-17)
(0.0573715 -0.0138697 1.15184e-18)
(-0.0058848 0.0258201 5.56665e-18)
(1.278 -0.243657 6.76675e-18)
(1.2712 -0.264139 2.07638e-18)
(1.26206 -0.272825 1.16182e-17)
(1.25441 -0.288301 1.24725e-17)
(1.24581 -0.300666 4.87953e-18)
(1.23844 -0.315685 1.97506e-18)
(1.23043 -0.330071 -2.05189e-18)
(1.22317 -0.346376 8.74001e-20)
(1.21582 -0.363697 -1.53201e-17)
(1.20939 -0.382666 -2.34135e-18)
(1.20304 -0.40482 6.45673e-18)
(1.19835 -0.428916 -7.89231e-18)
(1.19425 -0.460408 -9.72944e-18)
(1.1946 -0.491172 -3.49571e-18)
(1.18279 -0.523236 -2.58442e-17)
(1.14269 -0.521236 -1.75603e-17)
(1.00426 -0.474621 -3.38253e-18)
(0.728816 -0.336108 -7.57283e-19)
(0.320055 -0.222012 7.03263e-18)
(-0.0920327 -0.0962184 1.03398e-17)
(1.26971 -0.23748 8.87419e-18)
(1.26333 -0.257991 -3.46366e-18)
(1.25403 -0.266308 1.34038e-17)
(1.24633 -0.281503 1.51801e-17)
(1.23748 -0.293563 -5.8748e-19)
(1.23005 -0.308253 4.9216e-18)
(1.22181 -0.322078 -1.92464e-18)
(1.21424 -0.337768 7.23947e-18)
(1.20633 -0.35438 -1.32273e-17)
(1.19903 -0.3722 -1.26854e-17)
(1.19108 -0.393243 9.39769e-18)
(1.18459 -0.414758 -1.16474e-17)
(1.17607 -0.444594 -1.24108e-17)
(1.17267 -0.473572 -1.54668e-17)
(1.16435 -0.516529 -2.58692e-17)
(1.1677 -0.544126 -4.53765e-17)
(1.12488 -0.5531 -1.75286e-17)
(1.03882 -0.469398 -1.00474e-17)
(0.695259 -0.241761 6.66758e-18)
(0.382477 -0.00259687 4.10412e-17)
(1.16006 -0.157651 -7.2623e-18)
(1.1479 -0.183051 2.38199e-17)
(1.13522 -0.191405 8.8431e-18)
(1.11966 -0.210233 3.59474e-18)
(1.1043 -0.222913 -2.33183e-17)
(1.0862 -0.238629 -6.98241e-17)
(1.06745 -0.252875 -4.44935e-18)
(1.04583 -0.267049 -1.8683e-17)
(1.02204 -0.280543 -7.38081e-17)
(0.99463 -0.292779 -1.08895e-17)
(0.963492 -0.30339 -2.09779e-17)
(0.927309 -0.311475 -2.37941e-17)
(0.885737 -0.315472 2.79666e-17)
(0.836748 -0.31432 2.6149e-17)
(0.78096 -0.306336 4.03729e-17)
(0.717499 -0.290544 -1.15622e-17)
(0.649246 -0.264034 -4.22429e-17)
(0.571917 -0.226941 1.18824e-18)
(0.506137 -0.169414 4.44106e-18)
(0.388368 -0.0836786 2.37865e-17)
(1.12481 -0.121558 -5.70947e-19)
(1.11492 -0.14111 -5.52745e-18)
(1.1038 -0.146728 9.21149e-18)
(1.09082 -0.15992 6.13224e-17)
(1.07683 -0.168289 -6.06277e-18)
(1.06173 -0.178167 -1.66326e-17)
(1.04521 -0.186749 -1.90322e-17)
(1.02759 -0.194912 -1.94356e-17)
(1.0085 -0.202334 -2.2397e-17)
(0.988232 -0.208799 -1.02285e-17)
(0.966584 -0.213808 -2.80974e-18)
(0.943685 -0.216882 -4.61164e-19)
(0.919394 -0.217385 -1.1529e-17)
(0.893917 -0.214175 -1.35604e-19)
(0.86682 -0.205996 1.06218e-17)
(0.838256 -0.19112 -9.39463e-19)
(0.808742 -0.169322 4.01687e-18)
(0.779718 -0.134687 -4.32777e-18)
(0.754727 -0.0950964 4.02508e-18)
(0.744078 -0.0359981 8.16045e-18)
(1.09405 -0.0987514 -3.04911e-18)
(1.08512 -0.115586 -3.24992e-18)
(1.07516 -0.120309 -1.26181e-17)
(1.0633 -0.131199 -2.83102e-17)
(1.05069 -0.137359 -2.90787e-17)
(1.0368 -0.144213 -9.93176e-17)
(1.02182 -0.149299 -4.56008e-17)
(1.0054 -0.153172 -6.1011e-17)
(0.987514 -0.155493 -1.32539e-16)
(0.967941 -0.156041 -4.10011e-17)
(0.94674 -0.154629 -2.88801e-17)
(0.923989 -0.151 -1.02101e-17)
(0.900063 -0.144903 -1.83823e-17)
(0.875472 -0.136171 1.48688e-17)
(0.851165 -0.124506 7.9643e-17)
(0.828028 -0.109861 -2.42995e-17)
(0.806981 -0.091333 -1.49074e-17)
(0.788221 -0.069769 -2.35009e-17)
(0.77369 -0.0433678 1.30323e-17)
(0.759728 -0.0148061 1.29736e-16)
(1.07107 -0.0711635 -1.0945e-17)
(1.06413 -0.0838138 -5.89773e-18)
(1.05653 -0.0871938 -9.83412e-18)
(1.04743 -0.0951628 -1.03469e-17)
(1.03789 -0.0997016 -1.17809e-17)
(1.02782 -0.104815 -2.46801e-17)
(1.01738 -0.108698 -9.97109e-17)
(1.00673 -0.111754 -9.6696e-17)
(0.995969 -0.113764 -1.10918e-16)
(0.985229 -0.114541 -1.10036e-16)
(0.974546 -0.113862 -8.63834e-17)
(0.963948 -0.11148 -1.49234e-17)
(0.95338 -0.107134 -8.72982e-17)
(0.942815 -0.100541 -1.85989e-17)
(0.932234 -0.0915358 -1.03001e-16)
(0.921917 -0.0799191 -9.65325e-17)
(0.912337 -0.065975 -1.63457e-17)
(0.904618 -0.0493875 -1.00058e-16)
(0.899389 -0.031211 -1.93845e-17)
(0.898261 -0.0108636 -1.00398e-16)
(1.05231 -0.0570875 -2.94123e-17)
(1.04658 -0.0667715 -1.6291e-17)
(1.04017 -0.0690761 -3.81462e-17)
(1.0324 -0.0747154 -4.72209e-17)
(1.02412 -0.0773854 -4.56468e-17)
(1.01508 -0.0801486 -8.75444e-17)
(1.00535 -0.0816696 6.48749e-18)
(0.994894 -0.0822656 4.13154e-17)
(0.983756 -0.0818349 -5.81086e-17)
(0.972002 -0.0803331 1.3578e-17)
(0.95981 -0.0777412 5.81457e-17)
(0.947438 -0.0740441 3.19996e-17)
(0.935245 -0.0692324 6.69828e-17)
(0.92364 -0.0633109 5.21415e-17)
(0.913042 -0.0562457 1.7648e-16)
(0.903728 -0.0480777 8.3887e-17)
(0.895876 -0.0387219 3.55635e-17)
(0.889369 -0.0284457 6.84575e-17)
(0.884411 -0.0172354 4.78964e-17)
(0.880969 -0.00571214 1.79959e-16)
(1.03885 -0.0396451 -8.27903e-17)
(1.03469 -0.0471559 -2.16402e-17)
(1.03025 -0.0491429 -9.77009e-17)
(1.02493 -0.0537477 -1.2209e-16)
(1.0195 -0.0562025 -8.90298e-17)
(1.0139 -0.058803 -6.14471e-18)
(1.0083 -0.0605482 -6.93384e-17)
(1.0028 -0.0616526 9.64537e-17)
(0.997482 -0.0619974 6.3469e-18)