/*--------------------------------*- C++ -*----------------------------------*\
  =========                 |
  \\      /  F ield         | OpenFOAM: The Open Source CFD Toolbox
   \\    /   O peration     | Website:  https://openfoam.org
    \\  /    A nd           | Version:  7
     \\/     M anipulation  |
\*---------------------------------------------------------------------------*/
FoamFile
{
    version     2.0;
    format      ascii;
    class       surfaceScalarField;
    location    "66";
    object      phi;
}
// * * * * * * * * * * * * * * * * * * * * * * * * * * * * * * * * * * * * * //

dimensions      [0 3 -1 0 0 0 0];

internalField   nonuniform List<scalar> 
15760
(
0.00102874
7.6369e-07
-1.07622e-06
0.00102952
2.7896e-06
-3.57012e-06
0.0010307
4.94412e-06
-6.12714e-06
0.00103213
6.36029e-06
-7.78461e-06
0.00103359
6.50728e-06
-7.96502e-06
0.00103488
5.20837e-06
-6.50609e-06
0.00103585
2.45391e-06
-3.42421e-06
0.00103636
-1.67638e-06
1.17173e-06
0.00103628
-7.04252e-06
7.12207e-06
0.00103552
-1.34488e-05
1.42041e-05
0.00103402
-2.07073e-05
2.22085e-05
0.00103172
-2.86304e-05
3.09291e-05
0.00102859
-3.704e-05
4.01708e-05
0.00102461
-4.57706e-05
4.97531e-05
0.00101977
-5.46676e-05
5.95082e-05
0.00101408
-6.35892e-05
6.92826e-05
0.00100755
-7.2405e-05
7.89352e-05
0.00100021
-8.09949e-05
8.83355e-05
0.000992091
-8.9248e-05
9.73637e-05
0.000983244
-9.70628e-05
0.000105909
0.00097372
-0.000104346
0.000113871
0.000963577
-0.000111014
0.000121157
0.000952882
-0.000116991
0.000127686
0.000941708
-0.000122215
0.000133389
0.000930132
-0.000126632
0.000138208
0.000918234
-0.000130202
0.0001421
0.000906096
-0.0001329
0.000145038
0.000893801
-0.000134712
0.000147008
0.000881429
-0.000135642
0.000148014
0.000869059
-0.000135706
0.000148076
0.000856767
-0.000134937
0.000147229
0.00084462
-0.000133377
0.000145524
0.000832684
-0.000131085
0.000143021
0.000821013
-0.000128125
0.000139795
0.000809658
-0.000124571
0.000135926
0.000798661
-0.000120501
0.000131498
0.000788055
-0.000115995
0.000126601
0.000777869
-0.000111133
0.000121319
0.000768123
-0.000105991
0.000115738
0.000758831
-0.000100642
0.000109934
0.000750003
-9.51507e-05
0.000103979
0.000741644
-8.95756e-05
9.79348e-05
0.000733752
-8.396e-05
9.18516e-05
0.000726323
-7.83421e-05
8.57712e-05
0.000719349
-7.27522e-05
7.97265e-05
0.000712817
-6.72157e-05
7.37471e-05
0.000706713
-6.17542e-05
6.78588e-05
0.000701015
-5.63888e-05
6.20868e-05
0.000695698
-5.11426e-05
5.64593e-05
0.000690732
-4.60432e-05
5.10088e-05
0.000686083
-4.11238e-05
4.57736e-05
0.000681709
-3.64225e-05
4.07966e-05
0.000677566
-3.19814e-05
3.61239e-05
0.000673608
-2.78438e-05
3.18018e-05
0.000669786
-2.4051e-05
2.78736e-05
0.000666049
-2.06391e-05
2.43758e-05
0.000662349
-1.76358e-05
2.13356e-05
0.000658639
-1.50592e-05
1.87689e-05
0.000654876
-1.29161e-05
1.668e-05
0.000651016
-1.12029e-05
1.50623e-05
0.000647023
-9.90742e-06
1.39002e-05
0.000642863
-9.01293e-06
1.31735e-05
0.000638503
-8.49731e-06
1.28571e-05
0.000633916
-8.33689e-06
1.29235e-05
0.000629075
-8.49917e-06
1.33404e-05
0.000623953
-8.96435e-06
1.40868e-05
0.000618523
-9.71526e-06
1.51451e-05
0.000612759
-1.07394e-05
1.65037e-05
0.000606631
-1.2031e-05
1.81583e-05
0.000600113
-1.35985e-05
2.01173e-05
0.00059317
-1.54465e-05
2.2389e-05
0.000585771
-1.75986e-05
2.49982e-05
0.000577877
-2.00782e-05
2.79714e-05
0.000569451
-2.29177e-05
3.13444e-05
0.000560447
-2.61571e-05
3.51608e-05
0.000550818
-2.98465e-05
3.94752e-05
0.000540513
-3.40465e-05
4.43522e-05
0.000529472
-3.88296e-05
4.98699e-05
0.000517634
-4.42811e-05
5.6119e-05
0.000504929
-5.05038e-05
6.32088e-05
0.00049128
-5.76211e-05
7.12699e-05
0.000476603
-6.57826e-05
8.04598e-05
0.000460804
-7.51702e-05
9.09691e-05
0.000443781
-8.60086e-05
0.000103032
0.000425421
-9.8576e-05
0.000116936
0.000405603
-0.000113225
0.000133043
0.000384198
-0.000130393
0.000151798
0.000361068
-0.000150689
0.000173819
0.00033609
-0.000174814
0.000199792
0.000309157
-0.000203807
0.00023074
0.00028022
-0.00023888
0.000267817
0.000249314
-0.000281996
0.000312903
0.000216799
-0.000335028
0.000367543
0.000182912
-0.000401754
0.000435642
0.000150041
-0.000485266
0.000518137
0.000117912
-0.000585677
0.000617806
9.50688e-05
-0.000718133
0.000740976
7.35956e-05
-0.000812366
0.000833839
5.05101e-05
-0.000956941
0.000980027
-0.000558964
0.000609475
0.00108012
5.40918e-07
0.00108073
2.17436e-06
0.00108171
3.96778e-06
0.00108291
5.15788e-06
0.00108415
5.26937e-06
0.00108523
4.12234e-06
0.001086
1.68843e-06
0.0010863
-1.97678e-06
0.00108601
-6.75229e-06
0.00108503
-1.24691e-05
0.00108328
-1.89608e-05
0.00108071
-2.606e-05
0.00107728
-3.36059e-05
0.00107296
-4.14495e-05
0.00106774
-4.94505e-05
0.00106163
-5.748e-05
0.00105465
-6.54195e-05
0.00104681
-7.31595e-05
0.00103816
-8.05996e-05
0.00102875
-8.76473e-05
0.00101862
-9.42184e-05
0.00100784
-0.000100237
0.000996485
-0.000105635
0.000984625
-0.000110355
0.000972342
-0.000114349
0.00095972
-0.000117581
0.000946847
-0.000120026
0.000933808
-0.000121673
0.00092069
-0.000122524
0.000907576
-0.000122593
0.000894546
-0.000121907
0.000881675
-0.000120506
0.000869029
-0.000118439
0.000856672
-0.000115767
0.000844655
-0.000112554
0.000833026
-0.000108872
0.000821823
-0.000104791
0.000811075
-0.000100385
0.000800806
-9.57228e-05
0.000791034
-9.08696e-05
0.000781769
-8.58858e-05
0.000773018
-8.08242e-05
0.00076478
-7.57227e-05
0.000757054
-7.06159e-05
0.000749833
-6.55307e-05
0.000743106
-6.04891e-05
0.000736861
-5.55092e-05
0.00073108
-5.06079e-05
0.000725742
-4.58043e-05
0.00072082
-4.11211e-05
0.000716282
-3.65865e-05
0.000712094
-3.22339e-05
0.000708213
-2.81009e-05
0.000704597
-2.42271e-05
0.000701197
-2.06511e-05
0.000697965
-1.74074e-05
0.000694853
-1.45238e-05
0.000691813
-1.20189e-05
0.000688798
-9.9016e-06
0.000685766
-8.17088e-06
0.000682676
-6.81698e-06
0.000679489
-5.82675e-06
0.000676176
-5.18354e-06
0.000672703
-4.86414e-06
0.000669041
-4.83721e-06
0.000665162
-5.0851e-06
0.000661038
-5.59186e-06
0.000656644
-6.3446e-06
0.000651949
-7.33683e-06
0.000646926
-8.57529e-06
0.000641542
-1.00619e-05
0.000635763
-1.18199e-05
0.000629554
-1.38691e-05
0.000622874
-1.62383e-05
0.00061568
-1.89631e-05
0.000607923
-2.20893e-05
0.000599549
-2.5672e-05
0.000590497
-2.97777e-05
0.000580701
-3.44849e-05
0.000570085
-3.98884e-05
0.000558567
-4.61025e-05
0.00054605
-5.32658e-05
0.000532428
-6.15482e-05
0.000517579
-7.11602e-05
0.000501367
-8.23637e-05
0.000483636
-9.54939e-05
0.00046421
-0.000110968
0.000442888
-0.000129368
0.000419456
-0.000151382
0.000393678
-0.000178029
0.000365327
-0.000210529
0.00033416
-0.000250829
0.000300159
-0.000301027
0.000263024
-0.00036462
0.000224013
-0.000446255
0.000182336
-0.000544
0.000142428
-0.000678226
9.97808e-05
-0.000769718
4.10331e-05
-0.000898193
-0.000517931
0.00112624
3.82065e-07
0.00112673
1.68852e-06
0.00112753
3.16023e-06
0.00112855
4.14349e-06
0.0011296
4.22174e-06
0.0011305
3.22124e-06
0.00113108
1.10254e-06
0.00113121
-2.09906e-06
0.00113073
-6.27966e-06
0.00112956
-1.12963e-05
0.0011276
-1.70044e-05
0.0011248
-2.3257e-05
0.00112111
-2.9912e-05
0.00111649
-3.68376e-05
0.00111095
-4.39089e-05
0.00110448
-5.1011e-05
0.0010971
-5.80379e-05
0.00108884
-6.4892e-05
0.00107972
-7.14837e-05
0.0010698
-7.77306e-05
0.00105914
-8.35575e-05
0.0010478
-8.88968e-05
0.00103586
-9.36884e-05
0.00102338
-9.78808e-05
0.00101046
-0.000101431
0.000997192
-0.000104308
0.000983654
-0.000106488
0.000969942
-0.000107961
0.000956146
-0.000108728
0.000942353
-0.000108801
0.00092865
-0.000108203
0.000915113
-0.000106969
0.000901815
-0.000105142
0.000888823
-0.000102775
0.000876194
-9.99253e-05
0.000863978
-9.66553e-05
0.000852215
-9.3029e-05
0.00084094
-8.91105e-05
0.000830179
-8.49616e-05
0.00081995
-8.06408e-05
0.000810267
-7.6202e-05
0.000801135
-7.16929e-05
0.000792559
-6.71463e-05
0.000784535
-6.25922e-05
0.000777059
-5.80548e-05
0.000770123
-5.35529e-05
0.000763715
-4.91013e-05
0.000757821
-4.47137e-05
0.000752422
-4.04051e-05
0.000747495
-3.6194e-05
0.000743012
-3.2104e-05
0.000738942
-2.81637e-05
0.000735247
-2.44058e-05
0.000731886
-2.08659e-05
0.000728814
-1.75791e-05
0.000725984
-1.45775e-05
0.000723348
-1.18876e-05
0.000720857
-9.52828e-06
0.000718465
-7.50938e-06
0.000716126
-5.83163e-06
0.000713796
-4.48763e-06
0.000711438
-3.46867e-06
0.00070901
-2.75538e-06
0.000706486
-2.34018e-06
0.000703834
-2.18498e-06
0.000701023
-2.27411e-06
0.000698024
-2.59343e-06
0.00069481
-3.1298e-06
0.000691346
-3.87358e-06
0.00068761
-4.83916e-06
0.00068357
-6.02121e-06
0.000679189
-7.43884e-06
0.000674432
-9.11263e-06
0.00066926
-1.10665e-05
0.000663628
-1.33313e-05
0.000657487
-1.59478e-05
0.00065078
-1.89653e-05
0.000643446
-2.24436e-05
0.000635414
-2.64531e-05
0.000626605
-3.10793e-05
0.000616928
-3.64254e-05
0.00060628
-4.26172e-05
0.00059454
-4.9809e-05
0.000581573
-5.81929e-05
0.000567218
-6.80088e-05
0.00055129
-7.95656e-05
0.000533572
-9.32492e-05
0.000513804
-0.0001096
0.000491691
-0.000129269
0.000466878
-0.000153216
0.00043897
-0.000182622
0.00040747
-0.000219329
0.000371979
-0.000265536
0.00033169
-0.000324331
0.000286841
-0.000401406
0.000236048
-0.000493207
0.000180665
-0.000622842
0.000120101
-0.000709155
4.05617e-05
-0.000818654
-0.00047737
0.00116696
2.68774e-07
0.00116735
1.30174e-06
0.00116802
2.48919e-06
0.00116888
3.28594e-06
0.00116976
3.33588e-06
0.0011705
2.47902e-06
0.00117094
6.71296e-07
0.0011709
-2.06833e-06
0.00117028
-5.65137e-06
0.00116894
-9.95979e-06
0.00116681
-1.48708e-05
0.00116381
-2.02582e-05
0.00115989
-2.59992e-05
0.00115504
-3.19802e-05
0.00114922
-3.80926e-05
0.00114245
-4.42361e-05
0.00113473
-5.03183e-05
0.00112609
-5.62542e-05
0.00111657
-6.19655e-05
0.00110622
-6.73806e-05
0.0010951
-7.2434e-05
0.00108327
-7.70668e-05
0.0010708
-8.12267e-05
0.00105779
-8.48689e-05
0.00104432
-8.79564e-05
0.00103047
-9.04607e-05
0.00101635
-9.23624e-05
0.00100204
-9.36518e-05
0.000987636
-9.43287e-05
0.000973239
-9.44034e-05
0.000958932
-9.38957e-05
0.000944798
-9.28347e-05
0.000930914
-9.1258e-05
0.000917349
-8.92101e-05
0.000904165
-8.67413e-05
0.000891415
-8.39051e-05
0.000879143
-8.07572e-05
0.000867386
-7.73533e-05
0.000856171
-7.37471e-05
0.00084552
-6.99897e-05
0.000835446
-6.61283e-05
0.000825959
-6.22054e-05
0.00081706
-5.82481e-05
0.000808751
-5.42824e-05
0.000801025
-5.03295e-05
0.000793878
-4.64051e-05
0.000787298
-4.25214e-05
0.000781273
-3.86891e-05
0.000775788
-3.49197e-05
0.000770822
-3.12282e-05
0.000766351
-2.76335e-05
0.000762347
-2.41597e-05
0.000758777
-2.08349e-05
0.0007556
-1.76896e-05
0.000752776
-1.47551e-05
0.000750259
-1.20603e-05
0.000748001
-9.62979e-06
0.000745954
-7.4814e-06
0.00074407
-5.62534e-06
0.000742302
-4.06361e-06
0.000740605
-2.7903e-06
0.000738932
-1.79536e-06
0.00073726
-1.08421e-06
0.000735539
-6.19057e-07
0.000733739
-3.84234e-07
0.000731828
-3.63761e-07
0.00072978
-5.44977e-07
0.000727563
-9.1348e-07
0.000725157
-1.46726e-06
0.000722521
-2.2026e-06
0.00071962
-3.12038e-06
0.000716431
-4.2498e-06
0.000712913
-5.59518e-06
0.000709028
-7.18077e-06
0.000704729
-9.03242e-06
0.000699966
-1.11854e-05
0.000694684
-1.36829e-05
0.000688817
-1.65768e-05
0.000682293
-1.99291e-05
0.000675028
-2.38146e-05
0.000666927
-2.83239e-05
0.000657877
-3.35678e-05
0.000647751
-3.96824e-05
0.000636396
-4.68379e-05
0.000623634
-5.5247e-05
0.000609254
-6.51854e-05
0.000593003
-7.69985e-05
0.000574573
-9.117e-05
0.000553597
-0.000108293
0.000529617
-0.000129236
0.000502092
-0.000155097
0.000470302
-0.000187539
0.000433503
-0.000228737
0.000390443
-0.000281271
0.000340451
-0.000351414
0.000281668
-0.000434423
0.00021311
-0.000554284
0.000137527
-0.000633572
4.40883e-05
-0.000725215
-0.000433281
0.00120214
1.87608e-07
0.00120245
9.89871e-07
0.00120301
1.92663e-06
0.00120374
2.55661e-06
0.00120449
2.58463e-06
0.0012051
1.87029e-06
0.0012054
3.70246e-07
0.00120524
-1.90905e-06
0.00120448
-4.89314e-06
0.00120301
-8.48763e-06
0.00120073
-1.25911e-05
0.00119757
-1.70984e-05
0.00119348
-2.19067e-05
0.00118842
-2.6921e-05
0.00118238
-3.20495e-05
0.00117535
-3.72077e-05
0.00116735
-4.23175e-05
0.0011584
-4.73069e-05
0.00114854
-5.21099e-05
0.00113783
-5.66657e-05
0.00112631
-6.09193e-05
0.00111407
-6.48208e-05
0.00110117
-6.8326e-05
0.0010877
-7.13973e-05
0.00107374
-7.40031e-05
0.0010594
-7.61195e-05
0.00104477
-7.77297e-05
0.00102994
-7.88253e-05
0.00101502
-7.94058e-05
0.0010001
-7.94792e-05
0.000985261
-7.90619e-05
0.000970605
-7.8178e-05
0.000956205
-7.68586e-05
0.000942136
-7.5141e-05
0.000928462
-7.30672e-05
0.000915239
-7.06821e-05
0.000902515
-6.80327e-05
0.000890327
-6.51657e-05
0.000878707
-6.21266e-05
0.000867675
-5.89586e-05
0.000857249
-5.57019e-05
0.000847437
-5.23932e-05
0.000838243
-4.90544e-05
0.000829668
-4.57068e-05
0.000821707
-4.23688e-05
0.000814355
-3.90533e-05
0.000807604
-3.57702e-05
0.000801442
-3.25274e-05
0.000795856
-2.93339e-05
0.000790829
-2.62011e-05
0.00078634
-2.31442e-05
0.000782363
-2.01824e-05
0.000778867
-1.73391e-05
0.000775817
-1.46401e-05
0.000773174
-1.2112e-05
0.000770894
-9.77984e-06
0.000768929
-7.6654e-06
0.000767233
-5.78498e-06
0.000765756
-4.14843e-06
0.00076445
-2.7578e-06
0.000763266
-1.60651e-06
0.000762173
-7.01835e-07
0.000761092
-2.84542e-09
0.000760039
4.33759e-07
0.000758954
7.01019e-07
0.000757802
7.87447e-07
0.000756554
7.03626e-07
0.000755178
4.6216e-07
0.000753627
8.40117e-08
0.000751903
-4.79202e-07
0.000749974
-1.19066e-06
0.000747779
-2.05536e-06
0.000745299
-3.1153e-06
0.000742492
-4.37374e-06
0.000739312
-5.85243e-06
0.000735709
-7.58157e-06
0.000731623
-9.59777e-06
0.000726992
-1.19449e-05
0.000721738
-1.46754e-05
0.000715776
-1.78525e-05
0.000709005
-2.15531e-05
0.000701308
-2.58713e-05
0.000692549
-3.09229e-05
0.000682564
-3.68531e-05
0.000671161
-4.38435e-05
0.000658106
-5.21307e-05
0.000643119
-6.20116e-05
0.000625851
-7.39021e-05
0.000605877
-8.83183e-05
0.000582655
-0.000106014
0.00055552
-0.000127962
0.000523571
-0.00015559
0.00048577
-0.000190936
0.000440519
-0.00023602
0.000386306
-0.000297201
0.000321006
-0.000369123
0.000241729
-0.000475008
0.000153687
-0.000545529
4.99748e-05
-0.000621503
-0.000383307
0.00123164
1.28809e-07
0.0012319
7.33731e-07
0.00123238
1.44841e-06
0.00123301
1.92948e-06
0.00123365
1.94235e-06
0.00123415
1.3705e-06
0.00123434
1.75467e-07
0.00123408
-1.64506e-06
0.00123322
-4.02986e-06
0.00123163
-6.90664e-06
0.00122924
-1.0195e-05
0.00122595
-1.38108e-05
0.00122172
-1.76716e-05
0.0012165
-2.17013e-05
0.00121027
-2.58259e-05
0.00120304
-2.99769e-05
0.00119481
-3.4091e-05
0.00118562
-3.81102e-05
0.00117549
-4.1981e-05
0.00116448
-4.56542e-05
0.00115264
-4.90852e-05
0.00114006
-5.22337e-05
0.00112679
-5.50642e-05
0.00111294
-5.75459e-05
0.00109859
-5.96536e-05
0.00108384
-6.13675e-05
0.00106879
-6.26741e-05
0.00105353
-6.35662e-05
0.00103816
-6.40432e-05
0.0010228
-6.41114e-05
0.00100752
-6.37834e-05
0.000992419
-6.30785e-05
0.000977582
-6.20214e-05
0.000963083
-6.06421e-05
0.00094899
-5.8974e-05
0.000935361
-5.70536e-05
0.000922247
-5.49184e-05
0.000909687
-5.26063e-05
0.000897715
-5.01541e-05
0.000886353
-4.75966e-05
0.000875618
-4.49668e-05
0.00086552
-4.22951e-05
0.000856064
-3.95982e-05
0.00084725
-3.68929e-05
0.000839075
-3.41944e-05
0.000831535
-3.15133e-05
0.000824622
-2.8857e-05
0.000818326
-2.62315e-05
0.000812636
-2.36433e-05
0.000807536
-2.11009e-05
0.000803007
-1.86159e-05
0.000799028
-1.62033e-05
0.000795571
-1.38815e-05
0.000792602
-1.16713e-05
0.000790084
-9.59428e-06
0.000787976
-7.67133e-06
0.000786231
-5.92056e-06
0.000784802
-4.35593e-06
0.000783639
-2.98613e-06
0.000782695
-1.81316e-06
0.000781923
-8.34882e-07
0.000781256
-3.50695e-08
0.000780715
5.38869e-07
0.000780188
9.60066e-07
0.000779669
1.2207e-06
0.00077912
1.33608e-06
0.00077851
1.31407e-06
0.000777807
1.16476e-06
0.000777003
8.88113e-07
0.000776033
4.90765e-07
0.000774849
-7.23313e-09
0.000773484
-6.90421e-07
0.000771855
-1.48609e-06
0.000769932
-2.45019e-06
0.000767669
-3.58976e-06
0.000765016
-4.92863e-06
0.000761915
-6.49668e-06
0.000758299
-8.32933e-06
0.000754093
-1.04688e-05
0.000749207
-1.29663e-05
0.000743538
-1.5884e-05
0.000736964
-1.9298e-05
0.000729344
-2.33022e-05
0.000720505
-2.80146e-05
0.000710244
-3.35829e-05
0.000698313
-4.01996e-05
0.000684409
-4.81074e-05
0.000668153
-5.76457e-05
0.000649075
-6.92402e-05
0.000626569
-8.35081e-05
0.000599874
-0.000101267
0.000567952
-0.000123668
0.000529523
-0.000152507
0.000482743
-0.00018924
0.000425366
-0.000239823
0.000355134
-0.000298891
0.000267576
-0.00038745
0.000169407
-0.000447361
5.73255e-05
-0.000509421
-0.000325981
0.00125538
8.52797e-08
0.0012556
5.18069e-07
0.00125601
1.03379e-06
0.00125656
1.38099e-06
0.00125712
1.38495e-06
0.00125753
9.55883e-07
0.00125765
6.39158e-08
0.0012573
-1.29972e-06
0.00125636
-3.0856e-06
0.00125469
-5.24263e-06
0.00125221
-7.71081e-06
0.00124882
-1.04272e-05
0.00124448
-1.33295e-05
0.00123914
-1.63613e-05
0.00123278
-1.94663e-05
0.0012254
-2.25928e-05
0.001217
-2.56931e-05
0.00120761
-2.87231e-05
0.00119727
-3.16423e-05
0.00118603
-3.44138e-05
0.00117395
-3.70035e-05
0.0011611
-3.93813e-05
0.00114756
-4.152e-05
0.00113341
-4.33965e-05
0.00111874
-4.49916e-05
0.00110367
-4.62903e-05
0.00108828
-4.72823e-05
0.00107267
-4.7962e-05
0.00105696
-4.83288e-05
0.00104123
-4.83871e-05
0.0010256
-4.81463e-05
0.00101014
-4.76207e-05
0.000994945
-4.68288e-05
0.000980096
-4.57929e-05
0.00096566
-4.45382e-05
0.000951699
-4.30922e-05
0.000938264
-4.14832e-05
0.000925397
-3.97396e-05
0.000913132
-3.78893e-05
0.000901494
-3.59587e-05
0.0008905
-3.39729e-05
0.000880161
-3.19558e-05
0.000870482
-2.99191e-05
0.000861464
-2.78748e-05
0.000853104
-2.58351e-05
0.000845399
-2.3808e-05
0.000838341
-2.17989e-05
0.000831921
-1.98121e-05
0.00082613
-1.7852e-05
0.000820954
-1.59246e-05
0.000816376
-1.40381e-05
0.000812376
-1.22037e-05
0.00080893
-1.04349e-05
0.000806006
-8.74736e-06
0.000803569
-7.15753e-06
0.000801579
-5.68139e-06
0.000799992
-4.33307e-06
0.000798759
-3.12368e-06
0.000797834
-2.06053e-06
0.000797165
-1.1441e-06
0.000796694
-3.64584e-07
0.000796405
2.53986e-07
0.000796215
7.28679e-07
0.00079611
1.06501e-06
0.000796041
1.29025e-06
0.000795971
1.40574e-06
0.000795869
1.4168e-06
0.000795702
1.33173e-06
0.000795434
1.15562e-06
0.000795047
8.78248e-07
0.000794532
5.07487e-07
0.000793775
6.62405e-08
0.000792818
-5.29195e-07
0.000791594
-1.22564e-06
0.000790058
-2.05376e-06
0.000788159
-3.03007e-06
0.00078584
-4.17749e-06
0.000783033
-5.52285e-06
0.000779663
-7.09789e-06
0.000775637
-8.94115e-06
0.000770853
-1.10995e-05
0.000765185
-1.36302e-05
0.000758487
-1.66044e-05
0.000750584
-2.0111e-05
0.000741262
-2.42617e-05
0.000730265
-2.92023e-05
0.000717274
-3.51168e-05
0.000701891
-4.22621e-05
0.000683615
-5.09639e-05
0.000661795
-6.16886e-05
0.000635602
-7.50734e-05
0.000603905
-9.19711e-05
0.000565239
-0.000113841
0.000517613
-0.000141615
0.000458165
-0.000180376
0.000384607
-0.000225333
0.000291115
-0.000293958
0.000185083
-0.000341328
6.57881e-05
-0.000390127
-0.000260193
0.00127327
5.18104e-08
0.00127346
3.30572e-07
0.00127382
6.64718e-07
0.00127432
8.89722e-07
0.00127481
8.89801e-07
0.00127516
6.04139e-07
0.00127521
1.21675e-08
0.00127481
-8.95313e-07
0.00127381
-2.08377e-06
0.00127209
-3.5205e-06
0.00126954
-5.1658e-06
0.00126609
-6.97766e-06
0.00126168
-8.91444e-06
0.00125625
-1.0939e-05
0.0012498
-1.30136e-05
0.00124231
-1.51034e-05
0.0012338
-1.71764e-05
0.00122428
-1.92032e-05
0.00121379
-2.11566e-05
0.00120239
-2.30118e-05
0.00119013
-2.47461e-05
0.00117709
-2.63391e-05
0.00116334
-2.77728e-05
0.00114898
-2.90316e-05
0.00113409
-3.01025e-05
0.00111877
-3.09756e-05
0.00110313
-3.16437e-05
0.00108727
-3.21031e-05
0.0010713
-3.23533e-05
0.00105531
-3.2397e-05
0.0010394
-3.22404e-05
0.00102368
-3.1893e-05
0.00100821
-3.1367e-05
0.000993098
-3.06773e-05
0.000978401
-2.98406e-05
0.000964184
-2.88753e-05
0.000950501
-2.78002e-05
0.000937396
-2.66345e-05
0.000924903
-2.53967e-05
0.000913049
-2.41045e-05
0.000901851
-2.27751e-05
0.00089132
-2.14252e-05
0.000881463
-2.00615e-05
0.00087228
-1.86916e-05
0.000863769
-1.73245e-05
0.000855927
-1.59657e-05
0.000848746
-1.46185e-05
0.00084222
-1.32857e-05
0.000836338
-1.19701e-05
0.000831089
-1.06755e-05
0.000826458
-9.40706e-06
0.000822426
-8.1721e-06
0.000818971
-6.97959e-06
0.000816064
-5.83993e-06
0.00081367
-4.76417e-06
0.000811752
-3.76315e-06
0.000810266
-2.84655e-06
0.000809164
-2.02201e-06
0.000808398
-1.29459e-06
0.000807918
-6.63796e-07
0.000807682
-1.29102e-07
0.000807635
3.01557e-07
0.000807734
6.29685e-07
0.000807926
8.729e-07
0.000808178
1.03817e-06
0.000808455
1.12897e-06
0.000808722
1.14979e-06
0.000808948
1.10562e-06
0.000809104
9.98998e-07
0.000809153
8.29947e-07
0.000809056
6.04252e-07
0.000808823
2.98628e-07
0.000808357
-6.28306e-08
0.000807654
-5.2302e-07
0.000806661
-1.06037e-06
0.000805328
-1.69665e-06
0.000803596
-2.44627e-06
0.000801401
-3.3271e-06
0.000798663
-4.36033e-06
0.000795294
-5.57161e-06
0.000791186
-6.99213e-06
0.000786216
-8.66018e-06
0.000780235
-1.0623e-05
0.000773064
-1.294e-05
0.000764488
-1.56857e-05
0.000754243
-1.89574e-05
0.000742004
-2.2878e-05
0.000727361
-2.76185e-05
0.000709795
-3.33984e-05
0.000688633
-4.05267e-05
0.000663
-4.94401e-05
0.000631719
-6.06898e-05
0.00059319
-7.53121e-05
0.000545375
-9.37995e-05
0.000484922
-0.000119923
0.000409603
-0.000150014
0.000312427
-0.000196782
0.00020085
-0.000229751
7.51501e-05
-0.000264427
-0.000185043
0.00128523
2.44637e-08
0.0012854
1.60973e-07
0.00128574
3.2521e-07
0.00128619
4.35903e-07
0.00128665
4.35386e-07
0.00128696
2.92796e-07
0.00128697
-4.70555e-10
0.00128653
-4.54491e-07
0.0012855
-1.04707e-06
0.00128374
-1.76426e-06
0.00128116
-2.58604e-06
0.00127767
-3.49132e-06
0.00127322
-4.45912e-06
0.00126775
-5.47151e-06
0.00126125
-6.50923e-06
0.0012537
-7.55489e-06
0.00124511
-8.59247e-06
0.00123552
-9.60721e-06
0.00122495
-1.05855e-05
0.00121345
-1.1515e-05
0.00120109
-1.23842e-05
0.00118793
-1.31831e-05
0.00117406
-1.39024e-05
0.00115956
-1.45345e-05
0.00114453
-1.50728e-05
0.00112907
-1.55122e-05
0.00111328
-1.58492e-05
0.00109726
-1.60819e-05
0.00108111
-1.62098e-05
0.00106495
-1.62344e-05
0.00104887
-1.61587e-05
0.00103296
-1.59872e-05
0.00101732
-1.57262e-05
0.00100203
-1.53829e-05
0.000987152
-1.49658e-05
0.000972761
-1.4484e-05
0.000958907
-1.39469e-05
0.000945637
-1.33641e-05
0.000932985
-1.27448e-05
0.000920978
-1.20979e-05
0.000909636
-1.14321e-05
0.000898968
-1.07573e-05
0.00088898
-1.00737e-05
0.000879675
-9.3869e-06
0.000871052
-8.70134e-06
0.000863106
-8.01976e-06
0.000855832
-7.34389e-06
0.000849221
-6.675e-06
0.000843265
-6.01443e-06
0.000837954
-5.36398e-06
0.000833273
-4.72624e-06
0.000829205
-4.10475e-06
0.00082573
-3.504e-06
0.000822819
-2.92916e-06
0.000820441
-2.38581e-06
0.000818557
-1.87944e-06
0.000817125
-1.415e-06
0.0008161
-9.96453e-07
0.000815432
-6.26729e-07
0.000815074
-3.05424e-07
0.000814967
-2.22817e-08
0.000815081
1.87523e-07
0.000815352
3.58667e-07
0.00081574
4.8471e-07
0.000816206
5.72134e-07
0.000816713
6.2241e-07
0.000817225
6.37366e-07
0.000817711
6.19662e-07
0.000818139
5.70869e-07
0.00081848
4.8898e-07
0.000818706
3.77929e-07
0.000818768
2.367e-07
0.000818648
5.7301e-08
0.000818295
-1.69417e-07
0.000817671
-4.36811e-07
0.000816724
-7.49269e-07
0.000815396
-1.11807e-06
0.00081362
-1.55204e-06
0.000811322
-2.06164e-06
0.00080841
-2.65959e-06
0.000804779
-3.36138e-06
0.000800305
-4.18603e-06
0.000794839
-5.15702e-06
0.000788203
-6.30384e-06
0.00078018
-7.66354e-06
0.000770507
-9.28435e-06
0.000758857
-1.12276e-05
0.000744816
-1.35775e-05
0.000727862
-1.64445e-05
0.000707314
-1.99787e-05
0.000682279
-2.44053e-05
0.000651569
-2.99796e-05
0.000613521
-3.72638e-05
0.000566131
-4.64098e-05
0.000505672
-5.94641e-05
0.000430079
-7.44208e-05
0.00033137
-9.80723e-05
0.000216692
-0.000115074
8.60324e-05
-0.000133767
-9.90104e-05
0.00129123
4.09901e-11
0.00129139
2.94028e-10
0.00129171
6.3505e-10
0.00129215
1.00125e-09
0.00129258
1.34812e-09
0.00129287
1.67202e-09
0.00129287
2.15483e-09
0.00129241
2.32262e-09
0.00129136
2.67214e-09
0.0012896
3.07144e-09
0.00128701
3.54117e-09
0.00128351
4.0998e-09
0.00127905
4.75174e-09
0.00127357
5.48745e-09
0.00126705
6.28604e-09
0.00125949
7.11596e-09
0.00125089
7.93775e-09
0.00124128
8.70806e-09
0.00123068
9.3833e-09
0.00121916
9.9227e-09
0.00120676
1.02925e-08
0.00119357
1.04675e-08
0.00117966
1.04323e-08
0.00116511
1.01818e-08
0.00115003
9.72104e-09
0.00113451
9.06461e-09
0.00111865
8.23378e-09
0.00110256
7.25597e-09
0.00108634
6.16265e-09
0.0010701
4.98738e-09
0.00105394
3.7639e-09
0.00103795
2.52477e-09
0.00102223
1.30058e-09
0.00100684
1.15838e-10
0.000991877
-9.95992e-10
0.000977395
-2.02204e-09
0.000963451
-2.9422e-09
0.000950091
-3.74139e-09
0.000937351
-4.40752e-09
0.000925258
-4.93129e-09
0.000913831
-5.30563e-09
0.000903079
-5.52598e-09
0.000893011
-5.5947e-09
0.00088363
-5.5059e-09
0.000874933
-5.25833e-09
0.000866919
-4.851e-09
0.000859579
-4.28366e-09
0.000852907
-3.55818e-09
0.000846896
-2.68054e-09
0.000841533
-1.66268e-09
0.000836808
-5.22629e-10
0.000832702
7.05286e-10
0.000829196
1.99428e-09
0.000826264
3.30473e-09
0.000823873
4.58863e-09
0.000821988
5.80688e-09
0.000820566
6.91393e-09
0.000819562
7.89128e-09
0.000818927
8.6232e-09
0.000818612
9.49126e-09
0.000818579
1.0121e-08
0.000818757
9.80395e-09
0.000819107
9.03482e-09
0.000819583
8.58493e-09
0.000820147
8.06557e-09
0.000820762
7.32077e-09
0.000821393
6.35301e-09
0.000822007
5.2029e-09
0.000822574
3.88121e-09
0.000823061
2.58685e-09
0.000823437
1.2543e-09
0.000823674
-8.04177e-11
0.000823733
-1.57522e-09
0.000823567
-3.15098e-09
0.000823134
-4.54743e-09
0.000822391
-5.57753e-09
0.000821279
-6.34669e-09
0.000819734
-6.87579e-09
0.000817679
-7.17202e-09
0.000815027
-7.24519e-09
0.000811673
-7.10556e-09
0.000807494
-6.76457e-09
0.000802343
-6.23758e-09
0.000796044
-5.54687e-09
0.000788386
-4.72335e-09
0.000779105
-3.80592e-09
0.00076788
-2.84017e-09
0.000754305
-1.87307e-09
0.000737861
-9.50228e-10
0.000717883
-1.13417e-10
0.000693477
5.99963e-10
0.000663496
1.16775e-09
0.000626231
1.59349e-09
0.000579819
1.84808e-09
0.000520353
1.98474e-09
0.00044593
1.97675e-09
0.000347856
1.8938e-09
0.00023278
1.77407e-09
9.90115e-05
1.54103e-09
1.0716e-09
-0.000672407
0.00956645
-0.00944106
-0.000798029
0.00955168
-0.00942605
-0.000924372
0.00952813
-0.00940179
-0.00105199
0.00950645
-0.00937883
-0.00118127
0.00948828
-0.00935901
-0.00131248
0.00947454
-0.00934332
-0.00144608
0.00946589
-0.00933229
-0.00158253
0.00946286
-0.00932641
-0.00172251
0.00946625
-0.00932627
-0.00186708
0.00947787
-0.00933331
-0.00201812
0.00950113
-0.00935009
-0.0021781
0.00954346
-0.00938347
-0.00235109
0.00961309
-0.0094401
-0.00253896
0.00972093
-0.00953307
-0.00273639
0.009856
-0.00965856
-0.00290418
0.00996998
-0.00980219
-0.00293607
0.00985587
-0.00982397
-0.00257652
0.00906747
-0.00942702
-0.0015084
0.00661514
-0.00768326
0.00216142
-0.00366982
-0.000679918
0.00969132
-0.000805302
0.00967706
-0.000931481
0.00965431
-0.00105901
0.00963398
-0.00118811
0.00961738
-0.00131915
0.00960558
-0.00145249
0.00959923
-0.00158858
0.00959895
-0.00172808
0.00960575
-0.00187204
0.00962184
-0.00202232
0.00965141
-0.00218153
0.00970266
-0.00235255
0.00978411
-0.0025341
0.00990248
-0.00271068
0.0100326
-0.00282273
0.010082
-0.0027326
0.00976573
-0.00220151
0.00853639
-0.0010716
0.00548522
0.00108983
-0.000687147
0.00981574
-0.000812184
0.0098021
-0.000938154
0.00978028
-0.00106548
0.00976131
-0.00119439
0.00974628
-0.00132521
0.0097364
-0.00145828
0.0097323
-0.00159403
0.0097347
-0.00173311
0.00974483
-0.00187663
0.00976535
-0.00202643
0.00980121
-0.00218489
0.00986112
-0.00235338
0.00995261
-0.00252571
0.0100748
-0.00267442
0.0101813
-0.00272038
0.010128
-0.00250816
0.00955351
-0.00183664
0.00786487
-0.000694989
0.00434357
0.000394838
-0.000694057
0.0099397
-0.000818705
0.00992675
-0.000944389
0.00990597
-0.00107144
0.00988836
-0.00120008
0.00987492
-0.00133061
0.00986693
-0.00146334
0.00986503
-0.00159869
0.00987005
-0.00173731
0.00988345
-0.00188031
0.00990836
-0.0020295
0.0099504
-0.00218667
0.0100183
-0.00235105
0.010117
-0.00251028
0.010234
-0.00262405
0.0102951
-0.00259702
0.010101
-0.00226776
0.00922425
-0.00147987
0.00707698
-0.000428956
0.00329266
-3.41184e-05
-0.000700626
0.0100632
-0.000824862
0.010051
-0.0009502
0.0100313
-0.00107692
0.0100151
-0.00120522
0.0100032
-0.00133537
0.00999708
-0.00146766
0.00999732
-0.00160249
0.0100049
-0.0017405
0.0100215
-0.00188284
0.0100507
-0.0020311
0.0100987
-0.00218619
0.0101734
-0.00234431
0.0102751
-0.00248579
0.0103755
-0.00255737
0.0103666
-0.00245255
0.00999613
-0.00201862
0.00879032
-0.0011556
0.00621396
-0.000243672
0.00238073
-0.000277791
-0.000706857
0.0101861
-0.000830664
0.0101748
-0.00095562
0.0101563
-0.00108196
0.0101414
-0.00120986
0.0101311
-0.00133957
0.0101268
-0.00147133
0.0101291
-0.00160552
0.0101391
-0.00174278
0.0101587
-0.00188416
0.0101921
-0.00203089
0.0102454
-0.00218249
0.010325
-0.00233146
0.0104241
-0.00245052
0.0104946
-0.00247482
0.0103909
-0.00229134
0.00981265
-0.0017699
0.00826888
-0.000879853
0.00532392
-0.000126004
0.00162688
-0.000403794
-0.000712725
0.0103085
-0.000836079
0.0102981
-0.000960609
0.0102808
-0.00108652
0.0102673
-0.00121396
0.0102586
-0.00134315
0.010256
-0.00147429
0.0102602
-0.00160774
0.0102725
-0.00174414
0.0102951
-0.00188445
0.0103324
-0.00202946
0.0103904
-0.00217702
0.0104725
-0.00231513
0.0105622
-0.0024082
0.0105876
-0.00238126
0.010364
-0.0021202
0.00955159
-0.00152534
0.00767402
-0.000659674
0.00445825
-6.24482e-05
0.00102966
-0.000466242
-0.00071828
0.0104302
-0.000841188
0.0104211
-0.000965286
0.0104049
-0.00109077
0.0103928
-0.00121774
0.0103855
-0.00134639
0.0103846
-0.00147688
0.0103907
-0.00160956
0.0104052
-0.001745
0.0104305
-0.00188392
0.0104713
-0.00202621
0.0105327
-0.00216729
0.0106136
-0.00229016
0.0106851
-0.00235206
0.0106495
-0.00227249
0.0102844
-0.00194238
0.00922148
-0.0012961
0.00702775
-0.000494717
0.00365687
-3.80642e-05
0.000573005
-0.000504307
-0.000723365
0.0105513
-0.00084582
0.0105435
-0.000969376
0.0105284
-0.00109434
0.0105178
-0.00122072
0.0105119
-0.00134869
0.0105126
-0.0014784
0.0105204
-0.00161015