/*--------------------------------*- C++ -*----------------------------------*\
  =========                 |
  \\      /  F ield         | OpenFOAM: The Open Source CFD Toolbox
   \\    /   O peration     | Website:  https://openfoam.org
    \\  /    A nd           | Version:  7
     \\/     M anipulation  |
\*---------------------------------------------------------------------------*/
FoamFile
{
    version     2.0;
    format      ascii;
    class       volScalarField;
    location    "5";
    object      p;
}
// * * * * * * * * * * * * * * * * * * * * * * * * * * * * * * * * * * * * * //

dimensions      [0 2 -2 0 0 0 0];

internalField   nonuniform List<scalar> 
50
(
-0.00577038
-0.00577543
-0.00577534
-0.00577593
-0.00577445
-0.0180095
-0.0180158
-0.0180095
-0.0180038
-0.0179925
-0.0308354
-0.0308559
-0.0308499
-0.0308433
-0.0308257
-0.0360042
-0.0359438
-0.03582
-0.0356634
-0.0354632
-0.0694928
-0.0695159
-0.0694362
-0.0693248
-0.0691361
-0.0476709
-0.0471903
-0.0462791
-0.0451003
-0.0435564
-0.129022
-0.130875
-0.131499
-0.132289
-0.132583
-0.0951542
-0.0943678
-0.0915386
-0.0876878
-0.0818556
-0.215176
-0.236029
-0.245699
-0.26348
-0.280916
-0.355002
-0.374077
-0.393762
-0.417886
-0.454473
)
;

boundaryField
{
    inlet
    {
        type            zeroGradient;
    }
    outlet
    {
        type            fixedValue;
        value           uniform 0;
    }
    polygon
    {
        type            zeroGradient;
    }
    top
    {
        type            symmetryPlane;
    }
    bottom
    {
        type            symmetryPlane;
    }
    outside
    {
        type            slip;
    }
    procBoundary3to2
    {
        type            processor;
        value           nonuniform List<scalar> 4(-0.32977 -0.33511 -0.347979 -0.365902);
    }
    procBoundary3to6
    {
        type            processor;
        value           uniform -0.404266;
    }
    procBoundary3to7
    {
        type            processor;
        value           nonuniform List<scalar> 10(-0.00577282 -0.0179805 -0.0308043 -0.0352416 -0.068895 -0.0417453 -0.132425 -0.0742657 -0.299435 -0.482211);
    }
}


// ************************************************************************* //
