/*--------------------------------*- C++ -*----------------------------------*\
  =========                 |
  \\      /  F ield         | OpenFOAM: The Open Source CFD Toolbox
   \\    /   O peration     | Website:  https://openfoam.org
    \\  /    A nd           | Version:  7
     \\/     M anipulation  |
\*---------------------------------------------------------------------------*/
FoamFile
{
    version     2.0;
    format      ascii;
    class       volVectorField;
    location    "114";
    object      U;
}
// * * * * * * * * * * * * * * * * * * * * * * * * * * * * * * * * * * * * * //

dimensions      [0 1 -1 0 0 0 0];

internalField   nonuniform List<vector> 
8000
(
(-0.24345 -0.000355897 -6.51806e-20)
(-0.244226 -0.000884181 2.84737e-19)
(-0.24522 -0.00154827 -2.6151e-19)
(-0.246616 -0.00199877 7.53306e-19)
(-0.248112 -0.00219055 -5.86332e-19)
(-0.249598 -0.00214871 -7.57999e-19)
(-0.250993 -0.001906 1.15363e-18)
(-0.252239 -0.00150157 4.05203e-19)
(-0.253299 -0.000973746 2.16421e-19)
(-0.254148 -0.000354728 3.5758e-19)
(-0.254774 0.00032371 -9.86125e-19)
(-0.255171 0.00103499 -8.97684e-19)
(-0.255336 0.00176362 -5.93065e-18)
(-0.255269 0.00249261 -1.67596e-18)
(-0.254977 0.00320766 9.74978e-19)
(-0.254465 0.00389717 1.13031e-18)
(-0.253744 0.00455176 4.14383e-18)
(-0.252822 0.0051639 -8.20467e-19)
(-0.251713 0.00572759 1.33063e-18)
(-0.250428 0.00623813 3.08946e-19)
(-0.248979 0.00669195 1.76545e-18)
(-0.247383 0.00708637 2.86985e-18)
(-0.245652 0.00741956 9.56466e-19)
(-0.243803 0.00769044 -7.19592e-19)
(-0.241851 0.00789867 1.24728e-19)
(-0.239812 0.00804466 1.19527e-18)
(-0.237704 0.00812958 -2.16317e-19)
(-0.235541 0.00815539 2.07483e-18)
(-0.233342 0.00812483 2.38881e-20)
(-0.23112 0.00804137 -2.1159e-20)
(-0.228892 0.00790917 8.99442e-19)
(-0.226671 0.00773294 8.48796e-20)
(-0.224471 0.00751786 4.21814e-18)
(-0.222302 0.00726942 -5.99173e-19)
(-0.220176 0.0069933 -3.05177e-18)
(-0.218101 0.00669524 6.50865e-20)
(-0.216085 0.00638086 1.64085e-19)
(-0.214132 0.00605561 4.65128e-18)
(-0.212249 0.00572461 1.82921e-18)
(-0.210437 0.00539262 5.22666e-18)
(-0.208698 0.00506394 1.39796e-18)
(-0.207033 0.00474238 7.97404e-19)
(-0.20544 0.00443122 5.16613e-18)
(-0.203918 0.00413318 -4.40177e-19)
(-0.202463 0.00385045 2.75026e-19)
(-0.201072 0.00358464 5.8388e-19)
(-0.19974 0.00333683 -4.42943e-18)
(-0.198463 0.00310758 -7.31739e-19)
(-0.197234 0.00289699 4.01407e-19)
(-0.196048 0.0027047 8.13125e-19)
(-0.194898 0.00253001 8.3891e-19)
(-0.193777 0.00237185 -9.68706e-19)
(-0.192679 0.0022289 -1.29604e-18)
(-0.191598 0.00209978 -2.34233e-18)
(-0.190525 0.001983 -1.39775e-18)
(-0.189455 0.00187703 1.15023e-19)
(-0.18838 0.00178047 -1.72217e-18)
(-0.187295 0.0016921 1.79605e-19)
(-0.186192 0.00161091 -1.04955e-18)
(-0.185065 0.00153621 7.85386e-19)
(-0.183907 0.00146767 5.83791e-18)
(-0.182712 0.00140536 1.4648e-18)
(-0.181474 0.00134987 6.87064e-18)
(-0.180186 0.00130224 2.52005e-19)
(-0.178841 0.00126406 6.8909e-19)
(-0.177433 0.00123739 3.9421e-18)
(-0.175955 0.00122483 2.03444e-18)
(-0.174398 0.00122953 8.62957e-18)
(-0.172755 0.00125521 2.14803e-18)
(-0.171018 0.00130642 4.99559e-19)
(-0.169179 0.00138705 8.43863e-18)
(-0.167228 0.00150166 4.62454e-18)
(-0.165155 0.00165538 1.12826e-17)
(-0.162951 0.00185397 1.92844e-18)
(-0.160603 0.00210255 2.68987e-18)
(-0.158099 0.00240713 -3.14024e-18)
(-0.155428 0.0027743 -2.82748e-18)
(-0.152575 0.00321014 5.33911e-18)
(-0.149526 0.00372204 8.74843e-18)
(-0.146266 0.00431767 1.04076e-18)
(-0.142778 0.0050065 7.80593e-18)
(-0.139045 0.0057994 3.05999e-18)
(-0.135048 0.0067104 1.03955e-17)
(-0.130769 0.00775613 -5.49599e-18)
(-0.126188 0.00895828 7.405e-18)
(-0.121285 0.010345 8.27299e-18)
(-0.116042 0.0119523 1.10972e-17)
(-0.110443 0.0138311 -3.50519e-18)
(-0.104474 0.0160412 7.4239e-18)
(-0.0981466 0.0186718 -7.5948e-18)
(-0.0914642 0.0218269 -2.16479e-18)
(-0.0845324 0.0256753 -1.94835e-18)
(-0.0773509 0.0303742 -6.0857e-19)
(-0.0704676 0.03624 -8.47624e-20)
(-0.0633546 0.0434851 1.30303e-19)
(-0.0589766 0.0520969 3.26959e-18)
(-0.052577 0.0633227 9.37268e-20)
(-0.0559445 0.0710435 -1.67141e-17)
(-0.0469974 0.0838561 -4.32649e-18)
(-0.0369882 0.0507822 -2.43837e-17)
(-0.257578 -0.000248349 -8.86579e-20)
(-0.258135 -0.000661916 4.45062e-20)
(-0.258925 -0.0012106 -1.81772e-19)
(-0.260079 -0.0015962 3.33932e-19)
(-0.261349 -0.00176889 -5.77653e-19)
(-0.262629 -0.00173986 -1.42097e-18)
(-0.263836 -0.00153218 -2.87061e-19)
(-0.264909 -0.00117798 2.15331e-19)
(-0.265805 -0.000710481 4.23284e-20)
(-0.266497 -0.000157203 1.28232e-19)
(-0.266968 0.000448156 -4.04285e-19)
(-0.26721 0.00108812 -1.6264e-18)
(-0.267217 0.00174516 -5.29989e-18)
(-0.266991 0.00240344 -1.79304e-18)
(-0.266536 0.00304969 2.23684e-18)
(-0.265859 0.00367302 1.83389e-18)
(-0.264969 0.0042646 1.95852e-18)
(-0.263877 0.00481731 -3.37361e-19)
(-0.262594 0.00532549 2.95412e-18)
(-0.261133 0.00578475 7.15182e-20)
(-0.259509 0.00619172 3.08785e-19)
(-0.257736 0.00654398 6.12305e-18)
(-0.25583 0.00683987 4.19569e-18)
(-0.253806 0.00707848 -1.61093e-18)
(-0.25168 0.0072596 -3.50153e-20)
(-0.249471 0.0073837 1.63499e-18)
(-0.247195 0.00745198 -1.51568e-18)
(-0.244869 0.00746632 3.72618e-18)
(-0.24251 0.00742933 -1.18195e-18)
(-0.240135 0.00734427 -7.83431e-19)
(-0.237758 0.00721501 1.34233e-18)
(-0.235395 0.00704593 -9.04972e-19)
(-0.23306 0.00684182 1.4536e-18)
(-0.230765 0.00660773 -3.28606e-18)
(-0.22852 0.00634889 -3.57898e-19)
(-0.226336 0.00607055 -1.48232e-19)
(-0.22422 0.00577786 -3.32361e-19)
(-0.222179 0.00547579 2.07481e-18)
(-0.220217 0.00516902 2.19527e-18)
(-0.218339 0.00486187 2.68116e-18)
(-0.216546 0.00455822 8.92174e-19)
(-0.214839 0.00426151 5.26436e-19)
(-0.213218 0.00397469 2.50356e-18)
(-0.211682 0.00370016 -3.18215e-18)
(-0.210227 0.00343984 -4.7585e-19)
(-0.20885 0.00319511 1.07148e-19)
(-0.207548 0.00296687 -2.05996e-18)
(-0.206315 0.00275552 -4.37074e-19)
(-0.205146 0.00256104 6.38826e-20)
(-0.204035 0.002383 6.34488e-19)
(-0.202976 0.00222061 6.10728e-19)
(-0.201963 0.00207279 1.35507e-18)
(-0.200989 0.00193816 -1.75652e-18)
(-0.200046 0.0018154 -5.32709e-19)
(-0.199129 0.00170298 -2.51388e-18)
(-0.198231 0.00159943 -3.54855e-19)
(-0.197344 0.00150335 -4.66893e-18)
(-0.196463 0.00141355 -2.53388e-19)
(-0.19558 0.00132903 -3.03138e-18)
(-0.194689 0.00124912 3.55128e-19)
(-0.193784 0.00117345 1.50716e-18)
(-0.192858 0.00110209 6.29883e-19)
(-0.191904 0.00103556 2.93437e-18)
(-0.190917 0.000974822 -2.29308e-18)
(-0.18989 0.000921355 -2.7686e-19)
(-0.188815 0.000877096 7.16078e-18)
(-0.187687 0.000844466 1.81466e-18)
(-0.186496 0.000826384 3.86864e-18)
(-0.185237 0.000826394 1.35698e-18)
(-0.1839 0.000848755 4.75534e-19)
(-0.182478 0.000897057 3.88864e-18)
(-0.18096 0.000976117 8.22856e-18)
(-0.179338 0.0010907 9.45205e-18)
(-0.177601 0.00124655 1.73895e-18)
(-0.175738 0.00144785 5.5155e-18)
(-0.173735 0.00170006 -7.16883e-18)
(-0.17158 0.00200963 -5.87888e-18)
(-0.169259 0.00238224 1.21186e-17)
(-0.166755 0.00282514 2.07139e-18)
(-0.164053 0.00334522 4.2701e-20)
(-0.161133 0.00395139 -4.57566e-19)
(-0.157976 0.00465374 4.50818e-18)
(-0.154558 0.00546561 3.48402e-18)
(-0.150857 0.00640257 -1.3807e-17)
(-0.146846 0.0074852 -2.25845e-18)
(-0.142497 0.00874052 -3.71546e-18)
(-0.137778 0.0102032 2.76582e-18)
(-0.13266 0.0119227 -1.05146e-17)
(-0.127107 0.0139589 -3.37485e-18)
(-0.1211 0.0164007 -1.77559e-17)
(-0.114597 0.019356 -3.08601e-18)
(-0.107656 0.0229968 -3.76982e-18)
(-0.100166 0.0275084 -1.22182e-18)
(-0.0925994 0.0331871 4.81621e-20)
(-0.0841884 0.040413 -1.31e-19)
(-0.0776045 0.0489571 7.48695e-18)
(-0.0680231 0.060694 2.73859e-19)
(-0.0651606 0.0683643 -1.34738e-17)
(-0.0500531 0.0803583 -4.26382e-18)
(-0.0252742 0.0465589 -1.13685e-17)
(-0.270226 -0.00017243 -8.84037e-21)
(-0.270622 -0.000490917 -1.67156e-19)
(-0.271246 -0.000937649 -1.99059e-19)
(-0.272192 -0.00125972 1.35044e-19)
(-0.273262 -0.00141001 -1.13234e-18)
(-0.274356 -0.00138897 -5.39423e-19)
(-0.275392 -0.00121208 1.10394e-18)
(-0.276306 -0.000905087 2.63913e-19)
(-0.277052 -0.000496055 -1.51328e-19)
(-0.277599 -7.68071e-06 -4.48764e-20)
(-0.277929 0.000525787 -1.69059e-19)
(-0.27803 0.00109467 9.87992e-19)
(-0.277895 0.00167993 -3.16429e-18)
(-0.277525 0.00226711 -1.69226e-18)
(-0.276924 0.00284398 1.83279e-19)
(-0.276098 0.00340048 3.30241e-18)
(-0.275056 0.0039284 6.97741e-19)
(-0.27381 0.0044211 -4.80991e-19)
(-0.27237 0.00487331 6.10731e-19)
(-0.270752 0.00528093 -6.69755e-19)
(-0.268969 0.0056409 -6.02724e-19)
(-0.267037 0.00595101 7.15779e-18)
(-0.264971 0.0062098 2.45866e-18)
(-0.262789 0.00641654 1.94202e-18)
(-0.260506 0.00657114 1.22075e-19)
(-0.258142 0.00667414 3.20014e-18)
(-0.255713 0.00672675 -4.11022e-18)
(-0.253238 0.0067308 1.66009e-18)
(-0.250733 0.00668875 -4.1126e-18)
(-0.248216 0.00660364 -1.84345e-18)
(-0.245703 0.00647906 2.75471e-18)
(-0.24321 0.00631906 -2.60046e-18)
(-0.24075 0.006128 -7.5861e-20)
(-0.238336 0.00591049 -1.74467e-18)
(-0.235981 0.0056713 2.68132e-18)
(-0.233694 0.0054152 -3.50855e-19)
(-0.231483 0.00514684 -8.89215e-19)
(-0.229357 0.00487073 1.12047e-18)
(-0.22732 0.00459108 3.75946e-18)
(-0.225376 0.00431176 1.5657e-18)
(-0.223529 0.00403625 4.72546e-19)
(-0.221778 0.0037676 5.84171e-19)
(-0.220126 0.00350841 1.38367e-18)
(-0.21857 0.00326078 -9.18023e-19)
(-0.217108 0.00302635 -7.96214e-19)
(-0.215737 0.00280627 -1.65979e-19)
(-0.214453 0.00260125 -1.30627e-18)
(-0.213253 0.00241152 -2.56843e-19)
(-0.21213 0.00223693 2.4038e-20)
(-0.211079 0.00207696 1.25442e-18)
(-0.210093 0.00193077 5.76025e-19)
(-0.209168 0.0017972 4.43331e-18)
(-0.208296 0.00167482 -3.6423e-18)
(-0.20747 0.00156235 1.26081e-18)
(-0.206683 0.00145825 -5.60166e-18)
(-0.20593 0.00136102 -5.1796e-19)
(-0.205202 0.00126933 -1.05282e-18)
(-0.204494 0.00118197 8.30735e-20)
(-0.203799 0.00109797 3.31575e-18)
(-0.20311 0.00101666 8.50895e-19)
(-0.202421 0.000937688 -1.63832e-18)
(-0.201726 0.000861079 -2.7403e-19)
(-0.201017 0.00078733 1.37628e-18)
(-0.200289 0.000717376 -6.96831e-18)
(-0.199534 0.000652614 -8.42564e-19)
(-0.198747 0.000594901 3.17905e-18)
(-0.19792 0.000546547 1.64977e-18)
(-0.197046 0.000510283 2.13807e-18)
(-0.196117 0.000489319 9.06184e-19)
(-0.195125 0.000489302 4.44212e-19)
(-0.194062 0.000512272 2.06872e-18)
(-0.192919 0.000561359 2.35145e-18)
(-0.191686 0.000641928 -1.76126e-18)
(-0.190352 0.000758658 6.95307e-19)
(-0.188906 0.000916615 1.21222e-17)
(-0.187335 0.00112125 -1.82625e-18)
(-0.185625 0.00137978 4.23567e-18)
(-0.183762 0.00169574 1.27181e-17)
(-0.181729 0.00207586 -6.03269e-18)
(-0.179507 0.00252654 -9.78754e-19)
(-0.177075 0.00305606 -9.35426e-18)
(-0.174412 0.00367346 9.11891e-18)
(-0.171491 0.00439116 -1.26889e-18)
(-0.168285 0.00522327 -1.36882e-17)
(-0.164759 0.00618873 -1.08197e-17)
(-0.160879 0.00731263 -1.80944e-17)
(-0.156602 0.00862734 -1.95571e-18)
(-0.151883 0.0101793 -5.00155e-18)
(-0.146664 0.0120255 -1.32569e-17)
(-0.140903 0.0142513 -1.92502e-17)
(-0.134508 0.0169625 -2.86391e-18)
(-0.127494 0.0203245 -8.07421e-18)
(-0.119638 0.0245363 -2.17423e-18)
(-0.111329 0.0298704 -5.67624e-20)
(-0.101578 0.0368211 -6.30217e-20)
(-0.0927403 0.0450063 1.54049e-17)
(-0.0800065 0.0566004 1.31873e-18)
(-0.0713325 0.0640165 -2.00156e-17)
(-0.0512262 0.0743764 -4.14324e-18)
(-0.019659 0.043119 -8.8139e-18)
(-0.281359 -0.000118742 5.08541e-20)
(-0.28164 -0.000361992 -5.00081e-19)
(-0.282131 -0.000718176 -3.50623e-19)
(-0.282905 -0.000981112 -1.40694e-20)
(-0.283802 -0.00110707 -6.70649e-19)
(-0.284732 -0.0010902 2.70285e-19)
(-0.285615 -0.000940163 6.71802e-19)
(-0.286385 -0.000677024 2.89599e-19)
(-0.286995 -0.00032382 -5.0187e-19)
(-0.287413 9.90508e-05 -2.7672e-19)
(-0.287618 0.000564069 1.66732e-20)
(-0.287592 0.00106129 -3.55023e-19)
(-0.287331 0.00157396 -3.56306e-18)
(-0.286834 0.00208914 -1.98181e-18)
(-0.286103 0.00259572 -1.18107e-18)
(-0.285145 0.0030845 1.50151e-18)
(-0.28397 0.00354792 -7.46406e-19)
(-0.282587 0.00397988 -9.3717e-19)
(-0.281009 0.0043755 -1.25966e-18)
(-0.279252 0.00473105 -2.00434e-18)
(-0.277328 0.00504371 -1.39381e-18)
(-0.275254 0.00531153 7.10625e-18)
(-0.273047 0.00553327 7.88577e-19)
(-0.270723 0.00570833 -3.41789e-19)
(-0.268301 0.00583674 -2.46345e-20)
(-0.265799 0.00591913 -5.18126e-21)
(-0.263234 0.0059567 -3.45861e-18)
(-0.260625 0.0059512 1.45438e-18)
(-0.257989 0.00590498 -3.40598e-18)
(-0.255345 0.00582085 -3.19181e-18)
(-0.252709 0.00570211 -4.34098e-19)
(-0.250097 0.00555249 1.11852e-19)
(-0.247524 0.00537594 -1.09743e-18)
(-0.245003 0.00517665 -1.16115e-18)
(-0.242546 0.00495892 1.05315e-18)
(-0.240165 0.00472705 -1.35041e-18)
(-0.237867 0.00448522 -2.17039e-18)
(-0.235661 0.00423747 1.27435e-18)
(-0.233553 0.00398753 4.96497e-19)
(-0.231547 0.00373885 7.5474e-19)
(-0.229646 0.00349448 2.38195e-19)
(-0.227853 0.0032571 7.76422e-19)
(-0.226167 0.00302893 1.1037e-18)
(-0.224588 0.00281177 4.95323e-19)
(-0.223114 0.00260697 -1.60344e-18)
(-0.221743 0.00241543 -3.32555e-19)
(-0.22047 0.00223764 -1.35976e-18)
(-0.219292 0.00207367 -3.90411e-20)
(-0.218203 0.00192322 1.76358e-19)
(-0.217198 0.00178564 2.23357e-18)
(-0.216272 0.00166002 7.70791e-19)
(-0.215417 0.00154514 1.27142e-18)
(-0.214628 0.0014395 2.45151e-19)
(-0.213898 0.00134182 4.6069e-18)
(-0.21322 0.00125054 -3.64883e-18)
(-0.212587 0.00116419 1.8283e-19)
(-0.211993 0.00108142 2.05792e-18)
(-0.211431 0.00100106 8.13406e-19)
(-0.210894 0.000922145 1.7801e-18)
(-0.210375 0.000844014 1.10978e-18)
(-0.209869 0.000766316 -6.28892e-18)
(-0.209369 0.00068906 -1.10878e-18)
(-0.208867 0.000612712 4.43169e-19)
(-0.208358 0.000538158 -5.67002e-18)
(-0.207836 0.000466714 -3.01123e-19)
(-0.207293 0.000400119 1.76888e-18)
(-0.206723 0.000340481 2.16042e-18)
(-0.206117 0.000290328 1.57797e-18)
(-0.205469 0.000253155 6.86392e-19)
(-0.20477 0.000230884 3.62227e-19)
(-0.204014 0.000228345 1.05049e-18)
(-0.203191 0.000251269 -2.07062e-18)
(-0.202289 0.000300637 -6.45451e-21)
(-0.201299 0.000387088 8.38084e-19)
(-0.200209 0.000510053 1.22646e-17)
(-0.199005 0.000673975 -5.55272e-19)
(-0.197674 0.000883035 1.5989e-18)
(-0.196201 0.00114382 5.05519e-18)
(-0.194567 0.00146406 -3.64905e-18)
(-0.192753 0.00184775 -1.76979e-18)
(-0.190737 0.00230212 -6.24162e-18)
(-0.188494 0.0028352 3.10958e-18)
(-0.185994 0.00345846 -8.19996e-18)
(-0.183206 0.00418416 -4.3128e-18)
(-0.180092 0.00502918 -5.00979e-18)
(-0.176606 0.00601613 -2.32413e-17)
(-0.172699 0.00717433 -4.66136e-18)
(-0.168311 0.00854598 -2.89818e-18)
(-0.163365 0.0101841 -1.0319e-17)
(-0.157794 0.0121674 -1.07576e-17)
(-0.151466 0.0145964 -1.1084e-18)
(-0.14435 0.017624 -1.70076e-17)
(-0.136126 0.0214532 -2.34948e-18)
(-0.127095 0.0263169 1.77449e-19)
(-0.116076 0.0327756 8.99476e-20)
(-0.105104 0.0403428 1.34095e-17)
(-0.0894682 0.0512968 1.40068e-18)
(-0.0756729 0.0582774 -1.93368e-17)
(-0.051469 0.0669519 -3.6875e-18)
(-0.0168366 0.0396082 -1.35137e-17)
(-0.29095 -8.09681e-05 1.27348e-19)
(-0.29115 -0.000263679 -6.21585e-19)
(-0.291537 -0.000541086 -5.96931e-19)
(-0.292171 -0.00074978 -8.15323e-20)
(-0.292924 -0.000851068 -6.44238e-19)
(-0.293713 -0.000835939 1.47575e-18)
(-0.294463 -0.000709846 6.72215e-19)
(-0.295108 -0.000487919 3.45465e-19)
(-0.295599 -0.00018843 -1.33143e-18)
(-0.295903 0.000169073 -5.28213e-19)
(-0.295997 0.000567306 3.29654e-19)
(-0.295862 0.000993183 -2.30967e-18)
(-0.295491 0.0014331 -1.78171e-18)
(-0.294883 0.00187584 -2.91868e-18)
(-0.294041 0.00231148 -2.69799e-18)
(-0.292969 0.00273179 1.07731e-18)
(-0.291677 0.00312997 -3.13945e-18)
(-0.290177 0.00350047 -1.92947e-18)
(-0.28848 0.00383887 -3.79081e-18)
(-0.286601 0.0041418 -4.41134e-18)
(-0.284556 0.00440676 -2.18114e-18)
(-0.282359 0.00463202 1.2175e-17)
(-0.28003 0.00481655 -1.94572e-18)
(-0.277584 0.00495993 -2.86106e-18)
(-0.27504 0.0050623 -4.63904e-20)
(-0.272417 0.00512436 -3.45934e-18)
(-0.269733 0.0051473 -4.95393e-18)
(-0.267007 0.00513282 2.89324e-18)
(-0.264257 0.00508312 -5.51155e-18)
(-0.261501 0.00500081 -5.88003e-18)
(-0.258757 0.00488892 -3.14501e-18)
(-0.256041 0.00475085 2.85396e-18)
(-0.253368 0.00459014 -2.93062e-18)
(-0.250751 0.00441058 -1.08428e-18)
(-0.248204 0.00421601 3.60392e-19)
(-0.245738 0.00401024 -3.63609e-18)
(-0.243362 0.00379702 -4.57987e-18)
(-0.241084 0.00357986 2.74877e-18)
(-0.238911 0.00336206 -2.59456e-18)
(-0.236848 0.0031466 2.49711e-19)
(-0.234898 0.00293613 -2.76994e-20)
(-0.233063 0.00273289 1.66486e-18)
(-0.231345 0.00253877 1.53095e-18)
(-0.229742 0.00235522 1.88907e-18)
(-0.228254 0.00218328 -3.621e-18)
(-0.226877 0.00202361 -4.19655e-19)
(-0.225609 0.00187645 -2.1092e-18)
(-0.224445 0.00174169 9.36108e-19)
(-0.223382 0.00161887 5.46983e-19)
(-0.222412 0.00150722 4.73743e-18)
(-0.221531 0.00140575 9.09616e-19)
(-0.220733 0.00131314 -9.11343e-19)
(-0.220011 0.0012278 4.02669e-18)
(-0.219358 0.00114848 1.12766e-17)
(-0.218769 0.00107359 -5.19494e-18)
(-0.218235 0.00100164 1.7633e-18)
(-0.217751 0.000931306 6.62401e-18)
(-0.217309 0.000861416 1.35686e-18)
(-0.216902 0.000791036 1.1335e-18)
(-0.216525 0.000719506 1.5892e-18)
(-0.216171 0.000646478 -1.54027e-17)
(-0.215833 0.000571953 -1.26849e-18)
(-0.215504 0.000496389 -6.85772e-20)
(-0.215179 0.000420654 -8.12169e-18)
(-0.21485 0.000346046 1.08907e-18)
(-0.214511 0.000274293 1.79468e-18)
(-0.214155 0.000207519 3.88996e-18)
(-0.213775 0.00014797 1.55132e-18)
(-0.213362 9.77078e-05 6.50302e-19)
(-0.21291 6.7369e-05 7.90796e-19)
(-0.212409 5.16e-05 9.38963e-19)
(-0.211852 5.28654e-05 5.91313e-18)
(-0.211226 8.06708e-05 2.28504e-18)
(-0.210521 0.000130435 1.62794e-18)
(-0.20973 0.000212143 6.03172e-18)
(-0.208835 0.000329305 -2.45518e-18)
(-0.207822 0.000498018 2.13765e-19)
(-0.206674 0.000711391 1.00265e-18)
(-0.205374 0.000973835 -4.85109e-18)
(-0.203902 0.00129235 -3.21988e-18)
(-0.202234 0.00167421 -6.82625e-18)
(-0.200342 0.00212503 6.04431e-19)
(-0.198194 0.00265469 -2.55938e-18)
(-0.195756 0.00327356 3.44689e-18)
(-0.192984 0.00399618 -2.06941e-18)
(-0.189828 0.00484203 -2.44258e-17)
(-0.186227 0.00583656 -6.11909e-18)
(-0.182113 0.00701662 -2.30386e-18)
(-0.177391 0.0084293 -1.40494e-17)
(-0.171972 0.0101444 -8.32714e-18)
(-0.165687 0.0122536 2.22423e-18)
(-0.158468 0.0148919 -1.64213e-17)
(-0.149906 0.0182572 -1.65975e-18)
(-0.140224 0.0225348 6.81058e-19)
(-0.12808 0.028306 1.96193e-17)
(-0.1152 0.0350284 2.047e-17)
(-0.0970176 0.0449394 2.38738e-18)
(-0.0788708 0.0513203 -1.18487e-17)
(-0.0512489 0.0585211 -3.00771e-18)
(-0.0152704 0.0356297 -9.1224e-18)
(-0.298977 -5.43631e-05 9.40863e-20)
(-0.299119 -0.000187958 -6.46311e-19)
(-0.299428 -0.000397322 -7.16582e-20)
(-0.299952 -0.000556897 -9.60054e-20)
(-0.300587 -0.000634298 8.79771e-19)
(-0.30126 -0.00061963 1.65089e-18)
(-0.301897 -0.00051544 7.56045e-19)
(-0.302436 -0.000332762 3.47147e-19)
(-0.302827 -8.49657e-05 2.80479e-19)
(-0.303035 0.000209797 -8.27385e-19)
(-0.303035 0.000540651 8.0603e-19)
(-0.302807 0.000895227 -1.6373e-18)
(-0.302344 0.00126233 -6.70175e-19)
(-0.301643 0.00163233 -3.40553e-19)
(-0.300706 0.00199656 1.77971e-19)
(-0.299539 0.00234785 1.83985e-18)
(-0.29815 0.00268018 -2.42621e-18)
(-0.296551 0.00298862 2.01111e-18)
(-0.294754 0.00326926 -2.53876e-18)
(-0.292774 0.0035191 -2.71157e-18)
(-0.290626 0.00373596 -2.69776e-18)
(-0.288327 0.00391837 1.32059e-17)
(-0.285894 0.00406553 -2.71829e-18)
(-0.283345 0.00417716 -3.64838e-19)
(-0.280698 0.00425356 4.04029e-19)
(-0.277973 0.00429545 -2.94295e-18)
(-0.275189 0.00430405 -2.19018e-18)
(-0.272364 0.00428101 4.5697e-19)
(-0.269517 0.00422836 -5.63736e-18)
(-0.266667 0.00414854 -4.60021e-18)
(-0.26383 0.0040443 5.81122e-19)
(-0.261025 0.00391871 1.26276e-18)
(-0.258266 0.00377493 -6.014e-19)
(-0.255568 0.00361632 -1.01376e-18)
(-0.252943 0.00344628 7.93158e-20)
(-0.250404 0.00326817 -1.50595e-18)
(-0.24796 0.00308521 -2.06028e-18)
(-0.245619 0.00290048 8.02054e-20)
(-0.243389 0.00271679 -8.8121e-19)
(-0.241275 0.00253666 3.02921e-19)
(-0.239281 0.00236231 -3.19317e-19)
(-0.237408 0.00219559 3.62355e-18)
(-0.235659 0.00203797 2.67699e-18)
(-0.234034 0.00189058 4.08508e-18)
(-0.23253 0.00175416 -8.12787e-19)
(-0.231146 0.00162907 -7.82954e-20)
(-0.229878 0.00151533 -4.16934e-18)
(-0.228724 0.00141264 2.70481e-18)
(-0.227678 0.00132037 1.35815e-18)
(-0.226734 0.0012376 1.85072e-18)
(-0.225888 0.00116327 9.68643e-19)
(-0.225134 0.00109596 -4.22903e-18)
(-0.224464 0.00103395 2.51659e-18)
(-0.223873 0.000976051 6.1917e-18)
(-0.223354 0.000920602 -3.56294e-18)
(-0.2229 0.000866116 5.68618e-18)
(-0.222503 0.00081125 5.48207e-18)
(-0.222158 0.00075486 1.8778e-18)
(-0.221858 0.000696013 1.4561e-18)
(-0.221596 0.000634061 2.71323e-18)
(-0.221365 0.000568649 -1.39789e-17)
(-0.221159 0.000499757 9.71656e-19)
(-0.220971 0.00042782 -1.90451e-19)
(-0.220794 0.000353669 -4.76361e-18)
(-0.220623 0.000278545 4.97722e-18)
(-0.22045 0.000204104 3.05981e-18)
(-0.220269 0.000132344 7.82946e-18)
(-0.220072 6.54912e-05 1.7289e-18)
(-0.219848 8.88408e-06 6.58278e-19)
(-0.219594 -3.94471e-05 1.71046e-18)
(-0.219305 -7.40479e-05 1.01361e-18)
(-0.218966 -9.25208e-05 4.03799e-18)
(-0.218569 -8.69872e-05 4.8408e-18)
(-0.218103 -6.12328e-05 3.32964e-18)
(-0.217554 -4.0055e-06 3.78217e-18)
(-0.216906 8.98402e-05 -7.52842e-18)
(-0.216148 0.000206488 -7.56706e-19)
(-0.215269 0.000364311 -2.51282e-18)
(-0.214243 0.000575896 -1.05896e-17)
(-0.213049 0.000835319 -5.8167e-18)
(-0.211665 0.00114654 -1.13916e-17)
(-0.210059 0.00151622 -8.23815e-19)
(-0.208199 0.00195438 6.17435e-19)
(-0.206047 0.00246791 -4.64671e-18)
(-0.203555 0.00306815 -1.91229e-18)
(-0.200669 0.00377099 -2.36348e-17)
(-0.197319 0.0045975 -6.66684e-18)
(-0.193429 0.00557829 -2.03417e-18)
(-0.188889 0.00675309 -7.06481e-18)
(-0.183593 0.00818057 -8.56325e-18)
(-0.177341 0.00994042 8.99377e-18)
(-0.170033 0.0121451 -7.08664e-18)
(-0.161186 0.014977 1.25646e-19)
(-0.150954 0.0185735 1.78154e-18)
(-0.137866 0.0234959 3.03756e-17)
(-0.123365 0.0291911 1.80995e-17)
(-0.103042 0.0377351 2.08774e-18)
(-0.0813123 0.0433348 -1.3969e-17)
(-0.0507956 0.0492789 -2.7143e-18)
(-0.0142444 0.0310589 -1.1676e-17)
(-0.305421 -3.54208e-05 1.02326e-19)
(-0.305525 -0.000128656 -5.48899e-19)
(-0.305776 -0.00027902 5.48015e-19)
(-0.306217 -0.000394339 -8.13153e-20)
(-0.30676 -0.000449204 1.33424e-18)
(-0.30734 -0.000434416 5.15554e-19)
(-0.307887 -0.000350602 1.01863e-18)
(-0.30834 -0.000205259 3.86167e-19)
(-0.308649 -7.31772e-06 2.01648e-18)
(-0.308779 0.0002251 -1.7244e-18)
(-0.308702 0.00048906 2.10887e-18)
(-0.308399 0.00077265 -2.27301e-18)
(-0.307861 0.00106695 3.38835e-19)
(-0.307086 0.001364 2.24578e-18)
(-0.306073 0.00165647 3.33542e-18)
(-0.304829 0.00193828 3.69352e-18)
(-0.303362 0.00220428 1.9099e-18)
(-0.301684 0.00245018 1.76026e-18)
(-0.299806 0.00267259 2.22538e-18)
(-0.297745 0.00286892 -2.51138e-18)
(-0.295515 0.00303732 -3.62305e-18)
(-0.293133 0.00317661 1.10274e-17)
(-0.290617 0.00328619 -2.09598e-18)
(-0.287985 0.00336598 2.585e-18)
(-0.285255 0.00341636 9.80894e-19)
(-0.282448 0.00343816 -4.52219e-18)
(-0.279582 0.00343259 -3.71006e-19)
(-0.276677 0.00340123 -1.25761e-18)
(-0.273752 0.003346 -3.40921e-18)
(-0.270824 0.00326913 -5.193e-18)
(-0.267913 0.00317309 -1.18339e-18)
(-0.265035 0.00306067 4.6789e-19)
(-0.262206 0.00293463 9.00431e-19)
(-0.25944 0.0027979 -1.51244e-18)
(-0.256752 0.00265344 -8.34813e-21)
(-0.254152 0.00250413 -5.38258e-19)
(-0.251652 0.00235274 -9.01946e-19)
(-0.249259 0.00220185 -2.0452e-18)
(-0.246981 0.0020538 2.13181e-19)
(-0.244824 0.00191066 7.77715e-19)
(-0.242792 0.00177421 -6.61359e-19)
(-0.240887 0.00164588 8.94824e-19)
(-0.239111 0.00152679 4.80287e-18)
(-0.237465 0.0014177 1.0154e-18)
(-0.235946 0.00131901 3.37321e-19)
(-0.234554 0.00123082 3.07264e-19)
(-0.233285 0.00115291 -8.92179e-18)
(-0.232135 0.00108473 -6.69272e-19)
(-0.2311 0.00102549 2.52278e-18)
(-0.230176 0.000974111 -1.09908e-19)
(-0.229355 0.000929486 1.29442e-18)
(-0.228634 0.000890028 -1.06553e-17)
(-0.228004 0.000853932 3.62648e-18)
(-0.227461 0.00082003 4.80367e-18)
(-0.226996 0.000786607 -5.60566e-18)
(-0.226603 0.000752166 5.09543e-18)
(-0.226275 0.000715353 7.1222e-18)
(-0.226006 0.000675045 2.49023e-18)
(-0.225789 0.000630316 2.11565e-18)
(-0.225616 0.000580538 4.65118e-18)
(-0.225482 0.000525354 -1.24347e-17)
(-0.225379 0.000464735 -3.86817e-18)
(-0.225301 0.000399114 -9.32935e-19)
(-0.225242 0.000329318 -4.48454e-18)
(-0.225195 0.000256577 1.46832e-18)
(-0.225152 0.000182586 6.15213e-18)
(-0.225108 0.000109502 4.23352e-18)
(-0.225054 3.98056e-05 1.32775e-18)
(-0.224984 -2.64129e-05 6.39544e-19)
(-0.22489 -9.29826e-05 3.96493e-18)
(-0.224762 -0.000146984 9.37757e-19)
(-0.224592 -0.000183682 5.03674e-18)
(-0.22437 -0.000202068 1.01005e-17)
(-0.224085 -0.000192783 6.53329e-18)
(-0.223725 -0.000157133 3.40707e-18)
(-0.223282 -9.12579e-05 -3.33737e-18)
(-0.222735 -4.64507e-06 -6.6905e-19)
(-0.222059 0.000121044 -7.85815e-18)
(-0.221244 0.000272787 -6.04465e-18)
(-0.220272 0.000467362 -1.0211e-17)
(-0.219111 0.000712565 -2.30461e-17)
(-0.217732 0.00100605 -1.79396e-19)
(-0.216098 0.00135202 4.63898e-18)
(-0.214172 0.00175795 3.00074e-18)
(-0.211902 0.00223338 -2.17519e-18)
(-0.209229 0.00279022 -2.00354e-17)
(-0.206079 0.00344443 -6.66445e-18)
(-0.202368 0.0042196 -1.70529e-18)
(-0.197973 0.00514703 -5.35179e-18)
(-0.192778 0.0062727 -1.36983e-17)
(-0.186554 0.00766157 2.04726e-18)
(-0.179179 0.00940082 -5.18062e-18)
(-0.17011 0.011648 3.52834e-18)
(-0.159444 0.0144947 3.17723e-18)
(-0.145611 0.0184402 1.97728e-17)
(-0.129812 0.0229709 2.28295e-17)
(-0.107775 0.0298887 1.20146e-18)
(-0.0832037 0.034522 -6.20815e-18)
(-0.0502468 0.0393304 -1.41346e-18)
(-0.0134505 0.0257851 -4.61737e-18)
(-0.310269 -2.1614e-05 1.65861e-19)
(-0.310348 -8.08917e-05 -2.26333e-19)
(-0.310559 -0.000179384 6.70062e-19)
(-0.31094 -0.000254622 -1.81503e-19)
(-0.311416 -0.000288534 9.00133e-19)
(-0.311927 -0.000273765 -4.6975e-19)
(-0.312405 -0.00020997 1.88753e-18)
(-0.312792 -0.000100738 6.11585e-19)
(-0.313039 4.608e-05 1.38224e-18)
(-0.31311 0.000219902 -3.24793e-19)
(-0.312974 0.000417937 8.93272e-19)
(-0.312615 0.00063096 -5.64804e-19)
(-0.31202 0.000852605 2.28128e-18)
(-0.311188 0.00107666 1.37777e-18)
(-0.310119 0.00129715 3.12232e-18)
(-0.308817 0.00150916 1.85794e-18)
(-0.307292 0.00170843 9.05533e-19)
(-0.305554 0.00189137 2.54555e-18)
(-0.303616 0.00205513 1.75784e-18)
(-0.301494 0.00219756 -4.77412e-18)
(-0.299202 0.00231716 -5.50141e-18)
(-0.296758 0.00241304 4.44242e-18)
(-0.294179 0.00248481 9.569e-19)
(-0.291485 0.00253259 1.19932e-18)
(-0.288693 0.00255687 1.27479e-18)
(-0.285824 0.00255856 -2.81342e-18)
(-0.282897 0.00253886 -4.44007e-18)
(-0.279931 0.00249932 -4.0844e-18)
(-0.276946 0.00244171 -3.38393e-18)
(-0.27396 0.00236807 -1.64399e-18)
(-0.270991 0.00228059 -2.49369e-18)
(-0.268058 0.00218185 1.07951e-19)
(-0.265175 0.00207412 -4.12276e-18)
(-0.262358 0.00195996 -3.27288e-18)
(-0.25962 0.00184188 2.78096e-19)
(-0.256974 0.00172228 -9.89771e-20)
(-0.25443 0.00160345 -4.07156e-19)
(-0.251996 0.00148748 -5.37971e-18)
(-0.249681 0.00137624 -5.28671e-18)
(-0.24749 0.00127133 1.61257e-18)
(-0.245428 0.00117406 -1.52353e-18)
(-0.243497 0.00108548 -1.04454e-18)
(-0.2417 0.0010063 2.4761e-18)
(-0.240036 0.000936936 -2.40832e-18)
(-0.238505 0.000877495 1.44494e-18)
(-0.237105 0.000827788 6.14542e-19)
(-0.235833 0.000787336 -3.97968e-18)
(-0.234685 0.000755389 -2.48397e-18)
(-0.233658 0.000730961 -3.0816e-18)
(-0.232746 0.000712908 -2.46304e-18)
(-0.231943 0.000699941 2.25218e-18)
(-0.231245 0.000690308 -7.25417e-18)
(-0.230645 0.000682058 1.21624e-18)
(-0.230135 0.000674082 -3.57235e-18)
(-0.22971 0.0006646 -3.02525e-18)
(-0.229362 0.000652095 -1.28387e-20)
(-0.229085 0.000635179 3.02822e-18)
(-0.228872 0.000612739 3.36645e-18)
(-0.228715 0.000583833 4.45282e-18)
(-0.228609 0.000547847 -1.3935e-18)
(-0.228546 0.000504398 -9.88155e-18)
(-0.22852 0.000453422 -8.81414e-18)
(-0.228524 0.000395319 -1.58327e-18)
(-0.228551 0.000330863 -7.38139e-18)
(-0.228595 0.000261205 -1.59759e-19)
(-0.228649 0.000187948 1.26161e-18)
(-0.228706 0.000113087 2.07903e-18)
(-0.22876 3.83701e-05 7.37627e-19)
(-0.228802 -3.62145e-05 1.26593e-18)
(-0.228823 -0.000106385 9.17567e-18)
(-0.228818 -0.000168164 1.8169e-19)
(-0.228775 -0.000219524 9.96979e-18)
(-0.228684 -0.000256036 7.15271e-18)
(-0.228535 -0.000275191 1.23938e-17)
(-0.228316 -0.000273581 4.27585e-18)
(-0.228013 -0.000248585 -2.42741e-18)
(-0.227612 -0.000185836 -8.16049e-19)
(-0.227099 -9.66228e-05 -1.97986e-18)
(-0.226449 1.29304e-05 -4.32697e-18)
(-0.225635 0.000156523 -4.02166e-18)
(-0.224638 0.000327716 -1.36467e-17)
(-0.223427 0.000535029 5.495e-18)
(-0.221964 0.000793819 1.19198e-17)
(-0.220206 0.00109919 1.14383e-17)
(-0.218102 0.00145496 -4.34609e-18)
(-0.215589 0.00186909 -3.06501e-17)
(-0.212589 0.00235263 -7.09598e-18)
(-0.209012 0.00292198 -2.12736e-18)
(-0.204729 0.0035994 -6.84834e-18)
(-0.199613 0.00441736 -7.23442e-18)
(-0.193415 0.00542401 -7.55904e-20)
(-0.185997 0.00667996 -7.47594e-18)
(-0.17677 0.00831004 1.00506e-17)
(-0.165792 0.0103631 6.41059e-18)
(-0.151416 0.0132362 2.28812e-17)
(-0.134656 0.0165091 1.97222e-17)
(-0.111335 0.0215972 -2.21403e-18)
(-0.0846409 0.0250883 -3.12804e-18)
(-0.0497052 0.0287494 -3.66194e-19)
(-0.0127872 0.0197257 -2.2985e-18)
(-0.313512 -1.0892e-05 1.75102e-19)
(-0.313575 -4.01645e-05 -4.52577e-20)
(-0.313761 -9.1644e-05 3.05875e-19)
(-0.314102 -0.000129595 -5.01545e-19)
(-0.314534 -0.000143322 1.11071e-18)
(-0.314998 -0.000127802 3.45375e-19)
(-0.31543 -8.19614e-05 1.53349e-18)
(-0.315772 -9.23863e-06 8.07155e-19)
(-0.315977 8.53505e-05 1.50755e-18)
(-0.316007 0.000201648 5.81278e-19)
(-0.315833 0.000333952 3.07619e-19)
(-0.315435 0.000476462 7.13801e-19)
(-0.314803 0.000625332 1.16064e-18)
(-0.313933 0.000776141 1.08421e-18)
(-0.312825 0.000924351 -3.74284e-19)
(-0.311485 0.00106615 5.93803e-19)
(-0.309921 0.00119827 2.0262e-19)
(-0.308144 0.00131783 4.85964e-18)
(-0.306166 0.00142255 1.49486e-18)
(-0.304003 0.00151073 -4.94055e-18)
(-0.30167 0.00158124 -3.37648e-18)
(-0.299185 0.00163346 2.40597e-18)
(-0.296565 0.00166725 3.52694e-18)
(-0.293829 0.00168287 5.60512e-19)
(-0.290996 0.00168098 1.97055e-18)