/*--------------------------------*- C++ -*----------------------------------*\
  =========                 |
  \\      /  F ield         | OpenFOAM: The Open Source CFD Toolbox
   \\    /   O peration     | Website:  https://openfoam.org
    \\  /    A nd           | Version:  7
     \\/     M anipulation  |
\*---------------------------------------------------------------------------*/
FoamFile
{
    version     2.0;
    format      ascii;
    class       volScalarField;
    location    "74";
    object      p;
}
// * * * * * * * * * * * * * * * * * * * * * * * * * * * * * * * * * * * * * //

dimensions      [0 2 -2 0 0 0 0];

internalField   nonuniform List<scalar> 
8000
(
-0.000569951
-0.00193985
-0.00332679
-0.00484399
-0.00641268
-0.00799815
-0.00957406
-0.0111156
-0.0126029
-0.0140202
-0.0153549
-0.0165974
-0.0177381
-0.0187765
-0.0197085
-0.0205333
-0.021252
-0.021867
-0.0223822
-0.0228023
-0.0231332
-0.0233816
-0.0235546
-0.0236603
-0.0237069
-0.0237031
-0.0236576
-0.0235793
-0.0234769
-0.023359
-0.0232335
-0.0231081
-0.0229899
-0.0228854
-0.0228003
-0.0227398
-0.0227084
-0.0227097
-0.0227472
-0.0228234
-0.0229402
-0.0230991
-0.0233013
-0.0235472
-0.0238372
-0.0241714
-0.0245494
-0.0249708
-0.025435
-0.0259413
-0.0264889
-0.0270769
-0.0277045
-0.0283708
-0.029075
-0.0298162
-0.0305938
-0.031407
-0.0322552
-0.0331377
-0.034054
-0.0350036
-0.0359859
-0.0370006
-0.038047
-0.039125
-0.0402342
-0.0413741
-0.0425442
-0.0437441
-0.0449732
-0.0462309
-0.0475162
-0.048828
-0.050165
-0.0515254
-0.0529071
-0.0543073
-0.0557228
-0.0571495
-0.0585825
-0.0600159
-0.0614424
-0.0628534
-0.0642386
-0.0655856
-0.0668798
-0.068104
-0.0692382
-0.0702576
-0.0711414
-0.0718489
-0.0723906
-0.0726422
-0.0729019
-0.0724012
-0.0736039
-0.0715327
-0.0790551
-0.0754391
-0.000601075
-0.00196577
-0.00335497
-0.00485907
-0.00641063
-0.0079795
-0.00953997
-0.0110679
-0.0125437
-0.0139514
-0.0152783
-0.0165143
-0.0176529
-0.0186904
-0.0196222
-0.0204479
-0.0211684
-0.0217861
-0.0223047
-0.0227288
-0.0230643
-0.0233177
-0.0234961
-0.0236075
-0.0236599
-0.0236621
-0.0236227
-0.0235505
-0.023454
-0.0233416
-0.0232214
-0.023101
-0.0229872
-0.0228866
-0.022805
-0.0227474
-0.0227183
-0.0227216
-0.0227603
-0.0228372
-0.022954
-0.0231124
-0.0233135
-0.0235579
-0.023846
-0.0241777
-0.0245529
-0.0249711
-0.0254319
-0.0259344
-0.0264779
-0.0270618
-0.027685
-0.0283467
-0.0290463
-0.0297828
-0.0305556
-0.031364
-0.0322073
-0.033085
-0.0339964
-0.0349411
-0.0359186
-0.0369285
-0.0379708
-0.0390449
-0.0401501
-0.041286
-0.0424525
-0.0436491
-0.044875
-0.0461293
-0.0474112
-0.0487197
-0.0500534
-0.0514105
-0.0527889
-0.054186
-0.0555983
-0.0570219
-0.0584519
-0.0598824
-0.061306
-0.0627142
-0.0640964
-0.0654401
-0.0667304
-0.0679495
-0.069077
-0.0700859
-0.0709553
-0.071637
-0.0721455
-0.0723379
-0.0725358
-0.0719136
-0.072845
-0.0706358
-0.0763846
-0.0738452
-0.000624975
-0.00198648
-0.00337944
-0.00487134
-0.00640769
-0.00796139
-0.00950759
-0.0110229
-0.0124882
-0.0138874
-0.015208
-0.0164408
-0.017575
-0.01861
-0.019541
-0.0203671
-0.0210892
-0.0217093
-0.0222312
-0.0226593
-0.0229992
-0.0232575
-0.0234412
-0.0235581
-0.0236164
-0.0236243
-0.0235907
-0.0235241
-0.023433
-0.0233258
-0.0232104
-0.0230942
-0.0229844
-0.0228872
-0.0228084
-0.0227531
-0.0227258
-0.0227302
-0.0227696
-0.0228465
-0.0229629
-0.0231205
-0.0233203
-0.0235631
-0.0238492
-0.0241787
-0.0245514
-0.024967
-0.0254248
-0.0259244
-0.0264649
-0.0270456
-0.0276657
-0.0283243
-0.0290207
-0.0297542
-0.0305239
-0.0313292
-0.0321695
-0.0330443
-0.0339529
-0.0348949
-0.0358698
-0.0368775
-0.0379159
-0.0389858
-0.0400873
-0.0412199
-0.0423822
-0.0435732
-0.0447937
-0.0460431
-0.0473199
-0.0486231
-0.0499515
-0.0513031
-0.052676
-0.0540673
-0.0554739
-0.0568916
-0.0583156
-0.0597399
-0.0611572
-0.062559
-0.0639346
-0.0652715
-0.0665547
-0.0677659
-0.0688848
-0.0698828
-0.0707395
-0.0714009
-0.0718861
-0.0720274
-0.0721616
-0.0714271
-0.0720854
-0.0697918
-0.0740399
-0.0721324
-0.000642956
-0.00200479
-0.0034009
-0.00488247
-0.00640548
-0.00794543
-0.00947856
-0.0109823
-0.0124377
-0.0138289
-0.015143
-0.0163691
-0.0175027
-0.018536
-0.0194664
-0.020293
-0.0210165
-0.021639
-0.0221638
-0.0225955
-0.0229395
-0.0232023
-0.0233909
-0.0235129
-0.0235764
-0.0235896
-0.0235613
-0.0234998
-0.0234137
-0.0233112
-0.0232001
-0.0230879
-0.0229816
-0.0228875
-0.0228113
-0.0227581
-0.0227324
-0.0227378
-0.0227778
-0.0228547
-0.0229709
-0.0231277
-0.0233264
-0.0235677
-0.0238519
-0.0241793
-0.0245497
-0.0249626
-0.0254177
-0.0259143
-0.0264516
-0.027029
-0.0276456
-0.0283007
-0.0289935
-0.0297231
-0.0304889
-0.0312903
-0.0321264
-0.0329968
-0.0339008
-0.0348378
-0.0358073
-0.0368081
-0.0378438
-0.0389112
-0.0400082
-0.0411347
-0.0422925
-0.0434826
-0.0447011
-0.0459461
-0.0472192
-0.0485189
-0.0498434
-0.051191
-0.0525595
-0.0539464
-0.0553483
-0.0567612
-0.0581802
-0.0595993
-0.0610113
-0.0624074
-0.063777
-0.0651072
-0.0663832
-0.0675858
-0.0686947
-0.0696795
-0.0705204
-0.0711573
-0.0716138
-0.0717017
-0.0717626
-0.0709213
-0.0713025
-0.0689698
-0.0720022
-0.0703305
-0.000656335
-0.0020201
-0.00341871
-0.00489158
-0.00640294
-0.00793064
-0.00945201
-0.0109452
-0.0123916
-0.0137755
-0.0150839
-0.0163065
-0.0174372
-0.0184687
-0.0193986
-0.0202258
-0.0209507
-0.0215753
-0.0221029
-0.0225379
-0.0228858
-0.0231527
-0.0233458
-0.0234724
-0.0235406
-0.0235587
-0.0235351
-0.0234783
-0.0233967
-0.0232984
-0.0231912
-0.0230826
-0.0229794
-0.022888
-0.0228141
-0.0227627
-0.0227382
-0.0227445
-0.0227848
-0.0228617
-0.0229773
-0.0231332
-0.0233306
-0.0235703
-0.0238526
-0.0241777
-0.0245455
-0.0249558
-0.0254079
-0.0259013
-0.0264354
-0.0270094
-0.0276226
-0.0282742
-0.0289633
-0.0296894
-0.0304517
-0.0312496
-0.0320824
-0.0329499
-0.0338515
-0.0347866
-0.0357546
-0.0367585
-0.0377869
-0.0388474
-0.0399418
-0.0410694
-0.0422248
-0.0434036
-0.0446134
-0.0458561
-0.0471237
-0.0484173
-0.0497362
-0.0510784
-0.0524418
-0.0538235
-0.0552203
-0.0566282
-0.0580421
-0.0594561
-0.060863
-0.0622539
-0.0636182
-0.064943
-0.0662129
-0.0674086
-0.0685095
-0.0694835
-0.0703107
-0.0709254
-0.071354
-0.071392
-0.0713825
-0.0704486
-0.070567
-0.0682011
-0.0702539
-0.0685822
-0.000666118
-0.00203226
-0.00343276
-0.00489832
-0.00639973
-0.00791682
-0.00942791
-0.0109119
-0.0123504
-0.0137278
-0.0150312
-0.0162502
-0.0173787
-0.0184088
-0.0193384
-0.0201662
-0.0208924
-0.021519
-0.0220492
-0.0224872
-0.0228385
-0.0231093
-0.0233063
-0.0234371
-0.0235097
-0.0235321
-0.0235127
-0.0234601
-0.0233824
-0.0232878
-0.023184
-0.0230785
-0.022978
-0.0228888
-0.0228167
-0.0227666
-0.0227431
-0.0227499
-0.0227903
-0.0228668
-0.0229817
-0.0231365
-0.0233324
-0.0235703
-0.0238506
-0.0241734
-0.0245386
-0.0249461
-0.0253953
-0.0258856
-0.0264165
-0.0269872
-0.0275969
-0.0282449
-0.0289304
-0.0296526
-0.0304109
-0.0312045
-0.0320328
-0.032895
-0.0337902
-0.0347183
-0.0356804
-0.0366687
-0.0376971
-0.0387567
-0.0398449
-0.0409619
-0.0421123
-0.0432994
-0.0445125
-0.0457435
-0.0470092
-0.0483014
-0.0496178
-0.0509568
-0.0523166
-0.0536946
-0.0550874
-0.0564912
-0.0579011
-0.0593109
-0.0607137
-0.0621004
-0.0634605
-0.064781
-0.0660465
-0.0672371
-0.0683324
-0.0692986
-0.0701163
-0.0707143
-0.0711214
-0.0711201
-0.0710509
-0.0700443
-0.0699296
-0.0675321
-0.0688024
-0.0669335
-0.000673035
-0.00204137
-0.00344305
-0.00490257
-0.0063957
-0.00790386
-0.00940627
-0.0108824
-0.0123143
-0.0136863
-0.0149857
-0.0162021
-0.0173281
-0.0183571
-0.0192864
-0.0201147
-0.0208422
-0.0214707
-0.0220032
-0.022444
-0.0227984
-0.0230725
-0.0232732
-0.0234077
-0.023484
-0.0235101
-0.0234945
-0.0234454
-0.0233711
-0.0232796
-0.0231787
-0.0230756
-0.0229773
-0.0228899
-0.0228191
-0.0227701
-0.0227471
-0.0227541
-0.0227942
-0.0228701
-0.022984
-0.0231374
-0.0233317
-0.0235677
-0.0238457
-0.0241661
-0.0245288
-0.0249334
-0.0253797
-0.025867
-0.0263947
-0.0269622
-0.0275686
-0.0282134
-0.0288957
-0.0296148
-0.0303702
-0.0311611
-0.0319872
-0.0328481
-0.0337438
-0.0346734
-0.0356284
-0.0366224
-0.037645
-0.0386987
-0.0397847
-0.0409022
-0.0420481
-0.0432203
-0.0444246
-0.0456691
-0.0469242
-0.0482071
-0.049516
-0.0508486
-0.0522024
-0.0535747
-0.0549622
-0.0563608
-0.0577656
-0.0591708
-0.060569
-0.0619515
-0.0633077
-0.0646245
-0.0658868
-0.0670742
-0.0681664
-0.0691285
-0.0699418
-0.0705304
-0.0709262
-0.0708992
-0.0707865
-0.0697294
-0.0694247
-0.0669951
-0.0676551
-0.0654362
-0.000677604
-0.00204748
-0.00344964
-0.00490428
-0.00639077
-0.00789173
-0.00938709
-0.0108568
-0.0122831
-0.0136503
-0.0149457
-0.0161595
-0.017285
-0.0183135
-0.0192431
-0.0200721
-0.0208008
-0.021431
-0.0219656
-0.0224089
-0.022766
-0.023043
-0.0232467
-0.0233844
-0.0234639
-0.0234933
-0.0234809
-0.0234347
-0.0233632
-0.0232742
-0.0231755
-0.0230744
-0.0229777
-0.0228915
-0.0228216
-0.0227731
-0.0227502
-0.0227569
-0.0227965
-0.0228715
-0.0229841
-0.0231361
-0.0233286
-0.0235625
-0.0238382
-0.0241561
-0.024516
-0.0249177
-0.0253608
-0.0258448
-0.026369
-0.0269327
-0.0275353
-0.0281759
-0.0288538
-0.0295682
-0.0303185
-0.0311039
-0.0319237
-0.0327768
-0.0336624
-0.0345807
-0.0355395
-0.0365263
-0.0375455
-0.0385959
-0.0396764
-0.0407868
-0.0419279
-0.0430997
-0.0442975
-0.0455174
-0.0467797
-0.0480644
-0.0493732
-0.0507046
-0.0520566
-0.0534268
-0.054812
-0.0562085
-0.0576113
-0.0590146
-0.0604114
-0.0617928
-0.0631485
-0.0644654
-0.0657285
-0.0669173
-0.0680118
-0.0689761
-0.0697926
-0.0703815
-0.070778
-0.0707412
-0.0706078
-0.0695247
-0.0690853
-0.0666255
-0.0668276
-0.0641715
-0.000680259
-0.0020508
-0.00345271
-0.00490356
-0.0063851
-0.00788078
-0.00937108
-0.0108364
-0.012259
-0.0136236
-0.0149177
-0.0161304
-0.0172533
-0.0182807
-0.0192099
-0.0200392
-0.0207688
-0.0214003
-0.0219366
-0.022382
-0.0227414
-0.0230209
-0.0232272
-0.0233676
-0.0234497
-0.0234817
-0.0234718
-0.0234281
-0.0233587
-0.0232717
-0.0231747
-0.0230749
-0.0229791
-0.0228936
-0.022824
-0.0227754
-0.0227521
-0.0227581
-0.0227967
-0.0228705
-0.0229817
-0.023132
-0.0233227
-0.0235546
-0.0238282
-0.0241438
-0.0245014
-0.0249008
-0.0253416
-0.0258232
-0.0263451
-0.0269066
-0.027507
-0.0281456
-0.0288217
-0.0295346
-0.0302837
-0.0310683
-0.031888
-0.0327426
-0.0336321
-0.0345519
-0.0355021
-0.0364858
-0.0375014
-0.0385483
-0.0396266
-0.0407358
-0.0418749
-0.0430433
-0.0442423
-0.0454723
-0.0467245
-0.0480002
-0.0493008
-0.0506253
-0.0519712
-0.0533358
-0.0547157
-0.0561072
-0.0575053
-0.0589043
-0.0602971
-0.0616752
-0.0630282
-0.0643431
-0.0656052
-0.066794
-0.0678903
-0.0688574
-0.0696793
-0.0702732
-0.0706775
-0.070648
-0.0705325
-0.0694519
-0.0689554
-0.0664677
-0.0663804
-0.0632262
-0.00068083
-0.0020504
-0.00345084
-0.00489838
-0.00637591
-0.00786732
-0.00935342
-0.0108148
-0.0122337
-0.013595
-0.0148858
-0.0160972
-0.0172215
-0.01825
-0.0191805
-0.0200115
-0.0207429
-0.0213765
-0.021915
-0.0223627
-0.0227245
-0.0230063
-0.0232149
-0.0233574
-0.0234415
-0.0234751
-0.0234666
-0.0234242
-0.0233561
-0.0232701
-0.0231739
-0.0230747
-0.0229792
-0.0228938
-0.0228241
-0.0227751
-0.0227514
-0.0227566
-0.0227938
-0.0228657
-0.0229748
-0.0231225
-0.0233103
-0.0235389
-0.0238091
-0.0241209
-0.0244745
-0.0248695
-0.0253057
-0.0257826
-0.0262994
-0.0268557
-0.0274506
-0.0280834
-0.0287535
-0.02946
-0.0302024
-0.0309798
-0.0317915
-0.0326369
-0.0335153
-0.0344303
-0.0353781
-0.0363568
-0.037367
-0.0384083
-0.0394802
-0.0405822
-0.0417142
-0.0428755
-0.0440647
-0.0452811
-0.0465263
-0.0478022
-0.0491013
-0.050423
-0.0517658
-0.0531274
-0.0545045
-0.0558936
-0.0572899
-0.0586879
-0.0600808
-0.06146
-0.0628157
-0.0641352
-0.0654041
-0.0666022
-0.0677112
-0.068694
-0.0695371
-0.0701539
-0.0705901
-0.0705771
-0.0704811
-0.0694069
-0.0689002
-0.0663559
-0.0660815
-0.0623678
0.0794373
0.0851417
0.0872207
0.0895864
0.0905473
0.0906572
0.08957
0.0872442
0.0834385
0.0779384
0.070316
0.0602098
0.0467912
0.0294496
0.00625893
-0.024144
-0.0676603
-0.1249
-0.210355
-0.312711
0.0737197
0.079194
0.0811268
0.0832536
0.0839967
0.083875
0.0825574
0.0799956
0.075956
0.0702224
0.0623922
0.0520328
0.0384163
0.0207381
-0.00299367
-0.0346493
-0.0804285
-0.139475
-0.205194
-0.253562
0.0682449
0.0735395
0.0753189
0.0772105
0.0776881
0.0772674
0.0756035
0.0726421
0.068136
0.0618492
0.0533667
0.0422064
0.0275754
0.00851203
-0.0170295
-0.0505433
-0.0963883
-0.15061
-0.194481
-0.245583
0.0629608
0.0680652
0.0696828
0.0713453
0.0715574
0.0708301
0.0688055
0.0654246
0.0604283
0.0535633
0.0444045
0.0324385
0.0168348
-0.00339215
-0.0301377
-0.0643781
-0.107826
-0.155791
-0.185429
-0.227796
0.0578378
0.0627282
0.0641742
0.0656128
0.065576
0.0645654
0.0622166
0.058469
0.0530594
0.0457276
0.0360526
0.0235117
0.0072924
-0.0135016
-0.0404661
-0.0742253
-0.113741
-0.152966
-0.176543
-0.20669
0.0528763
0.0575362
0.0588033
0.0600221
0.0597507
0.0584802
0.0558438
0.0517816
0.04603
0.0383295
0.0282695
0.0153322
-0.00125299
-0.0222192
-0.0486919
-0.0810424
-0.116169
-0.144826
-0.16728
-0.182361
0.0480864
0.0525032
0.0535888
0.0545916
0.054096
0.0525829
0.0496849
0.045344
0.0393003
0.0313013
0.0209594
0.00779132
-0.0089004
-0.0296585
-0.0550426
-0.0851734
-0.11632
-0.135108
-0.157379
-0.160762
0.0434755
0.047634
0.0485397
0.0493303
0.0486203
0.0468787
0.0437406
0.0391504
0.0328552
0.0246129
0.0140591
0.000749151
-0.0159375
-0.0363471
-0.0603544
-0.0875129
-0.114408
-0.126514
-0.146581
-0.142212
0.0390499
0.0429212
0.0436577
0.0442373
0.0433264
0.0413709
0.0380153
0.0332056
0.0267013
0.0182803
0.00762471
-0.00561775
-0.0219002
-0.0413349
-0.063249
-0.0868311
-0.10982
-0.119683
-0.135159
-0.126876
0.0348186
0.0383539
0.0389474
0.0393091
0.038211
0.0360504
0.0324939
0.0274859
0.0208034
0.0122432
0.00151864
-0.011684
-0.0277475
-0.0466728
-0.0672964
-0.0881949
-0.107892
-0.117983
-0.130483
-0.112995
0.14564
0.15456
0.158903
0.164235
0.168491
0.172339
0.175503
0.177932
0.179454
0.179916
0.179057
0.176688
0.172311
0.165762
0.155816
0.142678
0.123779
0.102777
0.0752479
0.0623155
0.137579
0.146383
0.150058
0.154912
0.158398
0.161352
0.163426
0.164569
0.164571
0.163245
0.160267
0.15542
0.148158
0.138346
0.124601
0.107426
0.0838397
0.0594767
0.0292752
0.0330671
0.130195
0.138724
0.142032
0.146533
0.149561
0.152018
0.153512
0.154022
0.15333
0.151265
0.147501
0.141835
0.133602
0.122719
0.107547
0.0889735
0.0631032
0.0375516
0.00327891
0.0110428
0.12347
0.13163
0.134771
0.138996
0.141719
0.143855
0.14497
0.145062
0.143897
0.141302
0.136913
0.130514
0.121303
0.109238
0.0923492
0.071942
0.043016
0.0154288
-0.0234191
-0.0142963
0.116979
0.124761
0.12776
0.131716
0.134144
0.135954
0.136674
0.136309
0.134597
0.131349
0.126151
0.118777
0.108305
0.0947491
0.0757951
0.0531946
0.0208415
-0.00903163
-0.0511977
-0.0401529
0.110511
0.11793
0.120758
0.124429
0.126547
0.128003
0.1283
0.127444
0.125153
0.121227
0.115209
0.106882
0.0952281
0.0803246
0.0595349
0.0350519
-0.000258883
-0.032088
-0.0770506
-0.0650823
0.104069
0.111137
0.113784
0.117166
0.118983
0.120092
0.11999
0.118685
0.115881
0.111376
0.104686
0.0956124
0.0830548
0.0671154
0.0448759
0.0187221
-0.0193756
-0.0541779
-0.102389
-0.0900234
0.0977148
0.104438
0.106915
0.110021
0.111566
0.112363
0.111917
0.110236
0.10702
0.102066
0.0948705
0.0852455
0.0720306
0.0552784
0.0319719
0.00445328
-0.0354557
-0.0725866
-0.123976
-0.114855
0.091488
0.0978708
0.100195
0.103042
0.10435
0.104871
0.104138
0.10215
0.0986134
0.093321
0.0857644
0.0757569
0.0621381
0.0447734
0.0207901
-0.00841441
-0.0504344
-0.093836
-0.149546
-0.150288
0.0853933
0.0914366
0.0936332
0.0962361
0.0973482
0.0976338
0.0966758
0.0944556
0.0906974
0.0851857
0.0774201
0.0672002
0.0533449
0.0355351
0.0115272
-0.018111
-0.0588647
-0.101706
-0.156277
-0.143869
0.394366
0.393592
0.394899
0.393864
0.395906
0.394621
0.397958
0.396391
0.401989
0.400215
0.409948
0.408239
0.42595
0.424997
0.45935
0.460763
0.533839
0.543406
0.70805
0.769345
0.394363
0.393593
0.394896
0.393873
0.395903
0.394643
0.397964
0.396445
0.402023
0.400347
0.410057
0.408559
0.42625
0.425771
0.460123
0.462683
0.535855
0.547805
0.71363
0.762117
0.394361
0.393591
0.39489
0.393873
0.395896
0.39465
0.397958
0.396467
0.402023
0.400406
0.410079
0.408705
0.426328
0.426125
0.460322
0.463505
0.536253
0.548931
0.71392
0.749658
0.394357
0.393587
0.394882
0.393876
0.395885
0.394657
0.397944
0.396489
0.402011
0.400466
0.410083
0.408858
0.426382
0.426501
0.460476
0.464337
0.536446
0.549483
0.713005
0.730725
0.394352
0.39358
0.394871
0.393874
0.395868
0.394659
0.39792
0.396501
0.40198
0.400503
0.410047
0.408958
0.426341
0.426742
0.460386
0.464775
0.535871
0.548565
0.709353
0.705599
0.394347
0.393571
0.394858
0.393872
0.395847
0.394657
0.397888
0.396504
0.401931
0.400521
0.409975
0.409018
0.426225
0.426885
0.46011
0.464919
0.534683
0.546449
0.703257
0.674309
0.39434
0.39356
0.394842
0.393867
0.395821
0.394651
0.397847
0.396497
0.401865
0.40052
0.409866
0.409034
0.426029
0.426919
0.45963
0.464736
0.53283
0.543129
0.694516
0.636623
0.394333
0.393546
0.394824
0.393861
0.395791
0.394641
0.397797
0.396482
0.40178
0.400499
0.40972
0.409003
0.425749
0.426837
0.458944
0.464221
0.530312
0.538663
0.682862
0.592123
0.394326
0.393528
0.394804
0.393851
0.395758
0.394625
0.397742
0.396455
0.401684
0.400454
0.409545
0.408921
0.425396
0.426629
0.458053
0.463345
0.527128
0.533065
0.668191
0.54041
0.394316
0.393511
0.394777
0.393839
0.395713
0.394606
0.397665
0.396428
0.401556
0.40041
0.409329
0.408841
0.424991
0.426422
0.457086
0.462427
0.523608
0.527077
0.651306
0.480343
0.394316
0.393511
0.394777
0.393839
0.395713
0.394606
0.397665
0.396428
0.401556
0.40041
0.409329
0.408841
0.424991
0.426422
0.457086
0.462427
0.523607
0.527077
0.651306
0.480343
0.394326
0.393528
0.394804
0.393851
0.395758
0.394624
0.397742
0.396455
0.401684
0.400454
0.409545
0.408921
0.425396
0.426629
0.458053
0.463345
0.527128
0.533065
0.668191
0.54041
0.394333
0.393546
0.394824
0.393861
0.395791
0.394641
0.397797
0.396482
0.40178
0.400499
0.40972
0.409003
0.425749
0.426837
0.458944
0.464221
0.530312
0.538663
0.682862
0.592123
0.39434
0.39356
0.394842
0.393867
0.395821
0.394651
0.397847
0.396497
0.401865
0.40052
0.409866
0.409034
0.426029
0.426919
0.45963
0.464736
0.53283
0.543129
0.694516
0.636623
0.394347
0.393571
0.394858
0.393872
0.395847
0.394657
0.397888
0.396504
0.401931
0.400521
0.409975
0.409018
0.426225
0.426885
0.46011
0.464919
0.534683
0.546449
0.703257
0.674309
0.394352
0.39358
0.394871
0.393874
0.395868
0.394659
0.39792
0.396501
0.40198
0.400503
0.410047
0.408958
0.426341
0.426742
0.460386
0.464775
0.535871
0.548565
0.709353
0.705599
0.394357
0.393587
0.394882
0.393876
0.395885
0.394657
0.397944
0.396489
0.402011
0.400466
0.410083
0.408858
0.426382
0.426501
0.460476
0.464337
0.536446
0.549483
0.713005
0.730725
0.394361
0.393591
0.39489
0.393873
0.395896
0.39465
0.397958
0.396467
0.402023
0.400406
0.410079
0.408705
0.426328
0.426125
0.460322
0.463505
0.536253
0.548931
0.71392
0.749658
0.394363
0.393593
0.394896
0.393873
0.395903
0.394643
0.397964
0.396445
0.402023
0.400347
0.410057
0.408559
0.42625
0.425771
0.460123
0.462683
0.535855
0.547805
0.71363
0.762117
0.394366
0.393592
0.394899
0.393864
0.395906
0.394621
0.397958
0.396391
0.401989
0.400215
0.409948
0.408239
0.42595
0.424997
0.45935
0.460763
0.533839
0.543406
0.70805
0.769345
0.0853931
0.0914364
0.093633
0.096236
0.0973481
0.0976337
0.0966757
0.0944555
0.0906973
0.0851856
0.07742
0.0672002
0.0533448
0.0355351
0.0115272
-0.018111
-0.0588647
-0.101706
-0.156277
-0.143869
0.0914878
0.0978706
0.100195
0.103042
0.10435
0.104871
0.104138
0.10215
0.0986133
0.093321
0.0857643
0.0757568
0.0621381
0.0447734
0.0207901
-0.00841438
-0.0504343
-0.0938359
-0.149546
-0.150287
0.0977146
0.104438
0.106915
0.110021
0.111566
0.112363
0.111917
0.110236
0.10702
0.102066
0.0948705
0.0852454
0.0720306
0.0552783
0.0319719
0.00445331
-0.0354556
-0.0725866
-0.123976
-0.114855
0.104069
0.111137
0.113784
0.117166
0.118983
0.120092
0.11999
0.118685
0.115881
0.111375
0.104686
0.0956124
0.0830547
0.0671154
0.0448759
0.0187221
-0.0193756
-0.0541779
-0.102389
-0.0900234
0.110511
0.11793
0.120758
0.124429
0.126547
0.128003
0.1283
0.127444
0.125153
0.121227
0.115209
0.106882
0.0952281
0.0803246
0.0595349
0.0350519
-0.000258853
-0.0320879
-0.0770505
-0.0650823
0.116979
0.124761
0.12776
0.131716
0.134144
0.135954
0.136674
0.136308
0.134597
0.131349
0.126151
0.118777
0.108305
0.094749
0.0757952
0.0531946
0.0208415
-0.0090316
-0.0511977
-0.0401529
0.12347
0.13163
0.134771
0.138996
0.141719
0.143854
0.14497
0.145062
0.143897
0.141302
0.136913
0.130514
0.121303
0.109238
0.0923492
0.071942
0.043016
0.0154288
-0.0234191
-0.0142963
0.130195
0.138724
0.142031
0.146533
0.14956
0.152017
0.153512
0.154022
0.15333
0.151265
0.147501
0.141835
0.133602
0.122719
0.107547
0.0889735
0.0631032
0.0375516
0.00327893
0.0110428
0.137579
0.146383
0.150058
0.154912
0.158398
0.161352
0.163426
0.164569
0.164571
0.163245
0.160267
0.15542
0.148158
0.138346
0.124601
0.107426
0.0838397
0.0594767
0.0292752
0.0330671
0.14564
0.15456
0.158903
0.164235
0.168491
0.172339
0.175503
0.177932
0.179454
0.179916
0.179057
0.176688
0.172311
0.165762
0.155816
0.142678
0.123779
0.102777
0.0752479
0.0623155
0.0348183
0.0383536
0.0389472
0.0393089
0.0382108
0.0360502
0.0324937
0.0274857
0.0208032
0.0122431
0.00151856
-0.0116841
-0.0277475
-0.0466728
-0.0672964
-0.0881948
-0.107892
-0.117983
-0.130482
-0.112994
0.0390497
0.042921
0.0436575
0.0442371
0.0433262
0.0413707
0.0380151
0.0332055
0.0267012
0.0182802
0.00762463
-0.0056178
-0.0219002
-0.0413348
-0.0632489
-0.086831
-0.109819
-0.119683
-0.135159
-0.126876
0.0434752
0.0476338
0.0485395
0.0493301
0.0486201
0.0468785
0.0437404
0.0391503
0.0328551
0.0246128
0.014059
0.000749102
-0.0159376
-0.0363471
-0.0603543
-0.0875128
-0.114407
-0.126514
-0.146581
-0.142212
0.0480862
0.052503
0.0535886
0.0545914
0.0540959
0.0525827
0.0496848
0.0453439
0.0393002
0.0313012
0.0209593
0.00779127
-0.00890042
-0.0296585
-0.0550426
-0.0851733
-0.11632
-0.135108
-0.157379
-0.160762
0.0528761
0.057536
0.0588031
0.0600219
0.0597505
0.0584801
0.0558437
0.0517814
0.0460299
0.0383294
0.0282694
0.0153321
-0.00125301
-0.0222192
-0.0486919
-0.0810424
-0.116169
-0.144826
-0.16728
-0.182361
0.0578376
0.0627281
0.064174
0.0656126
0.0655758
0.0645653
0.0622164
0.0584689
0.0530592
0.0457275
0.0360525
0.0235116
0.00729238
-0.0135016
-0.0404661
-0.0742253
-0.113741
-0.152966
-0.176543
-0.20669
0.0629606
0.068065
0.0696827
0.0713451
0.0715572
0.07083
0.0688053
0.0654244
0.0604282
0.0535632
0.0444045
0.0324384
0.0168348
-0.00339215
-0.0301377
-0.064378
-0.107826
-0.155791
-0.185429
-0.227796
0.0682448
0.0735393
0.0753187
0.0772103
0.077688
0.0772673
0.0756034
0.072642
0.0681359
0.0618491
0.0533667
0.0422063
0.0275753
0.00851202
-0.0170295
-0.0505432
-0.0963882
-0.15061
-0.194481
-0.245583
0.0737195
0.0791938
0.0811267
0.0832534
0.0839965
0.0838749
0.0825573
0.0799955
0.0759559
0.0702224
0.0623921
0.0520327
0.0384163
0.0207381
-0.00299365
-0.0346492
-0.0804285
-0.139475
-0.205193
-0.253562
0.0794371
0.0851416
0.0872205
0.0895862
0.0905472
0.0906571
0.0895698
0.0872441
0.0834384
0.0779383
0.070316
0.0602098
0.0467911
0.0294496
0.00625894
-0.0241439
-0.0676603
-0.1249
-0.210355
-0.312711
-0.000680834
-0.00205041
-0.00345086
-0.0048984
-0.00637594
-0.00786737
-0.00935347
-0.0108148
-0.0122338
-0.013595
-0.0148858
-0.0160973
-0.0172216
-0.0182501
-0.0191806
-0.0200116
-0.020743
-0.0213765
-0.0219151
-0.0223627
-0.0227245
-0.0230064
-0.0232149
-0.0233574
-0.0234415
-0.0234752
-0.0234666
-0.0234243
-0.0233561
-0.0232702
-0.0231739
-0.0230747
-0.0229793
-0.0228938
-0.0228241
-0.0227751
-0.0227514
-0.0227566
-0.0227938
-0.0228658
-0.0229748
-0.0231226
-0.0233103
-0.023539
-0.0238092
-0.024121
-0.0244746
-0.0248696
-0.0253058
-0.0257827
-0.0262995
-0.0268558
-0.0274507
-0.0280836
-0.0287537
-0.0294603
-0.0302027
-0.0309802
-0.0317922
-0.0326381
-0.0335168
-0.0344292
-0.0353772
-0.0363563
-0.0373667
-0.0384081
-0.0394801
-0.0405823
-0.0417145
-0.0428762
-0.0440663
-0.0452837
-0.0465291
-0.0478011
-0.0491001
-0.0504222
-0.0517653
-0.0531269
-0.0545042
-0.0558934
-0.0572898
-0.0586878
-0.0600807
-0.06146
-0.0628157
-0.0641352
-0.0654041
-0.0666023
-0.0677112
-0.0686941
-0.0695372
-0.0701539
-0.0705902
-0.0705771
-0.0704811
-0.0694069
-0.0689002
-0.0663559
-0.0660815
-0.0623678
-0.000680272
-0.00205085
-0.00345277
-0.00490365
-0.00638522
-0.00788092
-0.00937125
-0.0108366
-0.0122592
-0.0136239
-0.014918
-0.0161306
-0.0172536
-0.0182809
-0.0192101
-0.0200394
-0.020769
-0.0214005
-0.0219368
-0.0223821
-0.0227416
-0.023021
-0.0232273
-0.0233677
-0.0234498
-0.0234818
-0.0234718
-0.0234281
-0.0233588
-0.0232717
-0.0231747
-0.0230749
-0.0229791
-0.0228936
-0.0228241
-0.0227755
-0.0227522
-0.0227583
-0.0227969
-0.0228707
-0.0229819
-0.0231323
-0.0233229
-0.0235548
-0.0238285
-0.0241441
-0.0245017
-0.0249011
-0.0253418
-0.0258234
-0.0263453
-0.0269068
-0.0275071
-0.0281457
-0.0288217
-0.0295345
-0.0302835
-0.0310679
-0.0318874
-0.0327416
-0.0336306
-0.0345527
-0.0355026
-0.0364859
-0.0375014
-0.0385482
-0.0396263
-0.0407354
-0.0418744
-0.0430424
-0.0442404
-0.0454694
-0.046721
-0.0480007
-0.0493016
-0.0506259
-0.0519717
-0.0533361
-0.054716
-0.0561074
-0.0575055
-0.0589045
-0.0602973
-0.0616754
-0.0630283
-0.0643432
-0.0656053
-0.0667942
-0.0678904
-0.0688575
-0.0696794
-0.0702732
-0.0706776
-0.0706481
-0.0705325
-0.069452
-0.0689554
-0.0664677
-0.0663804
-0.0632262
-0.000677627
-0.00204755
-0.00344975
-0.00490443
-0.00639097
-0.00789196
-0.00938737
-0.0108572
-0.0122835
-0.0136507
-0.0149461
-0.0161599
-0.0172854
-0.018314
-0.0192435
-0.0200725
-0.0208012
-0.0214314
-0.0219659
-0.0224092
-0.0227663
-0.0230433
-0.0232469
-0.0233846
-0.023464
-0.0234934
-0.0234809
-0.0234348
-0.0233632
-0.0232743
-0.0231756
-0.0230745
-0.0229777
-0.0228916
-0.0228218
-0.0227732
-0.0227504
-0.0227572
-0.0227967
-0.0228718
-0.0229844
-0.0231364
-0.023329
-0.0235629
-0.0238387
-0.0241566
-0.0245165
-0.0249182
-0.0253613
-0.0258452
-0.0263694
-0.0269331
-0.0275356
-0.0281761
-0.028854
-0.0295684
-0.0303187
-0.0311041
-0.0319239
-0.0327773
-0.0336628
-0.0345794
-0.0355388
-0.0365258
-0.0375448
-0.0385953
-0.0396759
-0.0407863
-0.0419275
-0.0430997
-0.0442987
-0.0455197
-0.0467814
-0.0480639
-0.0493725
-0.0507041
-0.0520562
-0.0534266
-0.054812
-0.0562085
-0.0576114
-0.0590148
-0.0604116
-0.0617931
-0.0631488
-0.0644657
-0.0657287
-0.0669175
-0.068012
-0.0689763
-0.0697928
-0.0703816
-0.0707781
-0.0707413
-0.0706078
-0.0695247
-0.0690853
-0.0666255
-0.0668276
-0.0641715
-0.000673066
-0.00204146
-0.0034432
-0.00490278
-0.00639598
-0.00790419
-0.00940666
-0.0108829
-0.0123148
-0.0136868
-0.0149863
-0.0162027
-0.0173287
-0.0183577
-0.019287
-0.0201153
-0.0208428
-0.0214712
-0.0220037
-0.0224444
-0.0227988
-0.0230729
-0.0232734
-0.0234079
-0.0234841
-0.0235103
-0.0234946
-0.0234455
-0.0233711
-0.0232796
-0.0231787
-0.0230757
-0.0229774
-0.02289
-0.0228193
-0.0227703
-0.0227474
-0.0227544
-0.0227945
-0.0228705
-0.0229844
-0.0231379
-0.0233323
-0.0235683
-0.0238463
-0.0241667
-0.0245294
-0.0249341
-0.0253803
-0.0258676
-0.0263953
-0.0269627
-0.0275691
-0.0282137
-0.0288959
-0.029615
-0.0303702
-0.031161
-0.0319869
-0.0328475
-0.0337432
-0.034674
-0.0356278
-0.0366216
-0.0376445
-0.0386981
-0.039784
-0.0409014
-0.0420475
-0.0432193
-0.0444222
-0.0456661
-0.0469226
-0.0482068
-0.049516
-0.0508486
-0.0522025
-0.0535748
-0.0549624
-0.056361
-0.0577659
-0.0591711
-0.0605694
-0.0619519
-0.0633081
-0.0646249
-0.0658871
-0.0670745
-0.0681667
-0.0691287
-0.069942
-0.0705306
-0.0709263
-0.0708993
-0.0707866
-0.0697294
-0.0694247
-0.0669951
-0.0676551
-0.0654362
-0.000666158
-0.00203238
-0.00343295
-0.00489859
-0.00640008
-0.00791724
-0.00942841
-0.0109125
-0.0123511
-0.0137285
-0.0150319
-0.016251
-0.0173795
-0.0184096
-0.0193392
-0.0201669
-0.0208931
-0.0215197
-0.0220498
-0.0224878
-0.022839
-0.0231097
-0.0233067
-0.0234374
-0.0235099
-0.0235322
-0.0235128
-0.0234601
-0.0233824
-0.0232878
-0.0231841
-0.0230785
-0.0229781
-0.0228889
-0.0228169
-0.0227669
-0.0227434
-0.0227503
-0.0227907
-0.0228674
-0.0229823
-0.0231372
-0.0233332
-0.0235711
-0.0238514
-0.0241742
-0.0245395
-0.0249469
-0.0253961
-0.0258864
-0.0264172
-0.0269878
-0.0275974
-0.0282453
-0.0289307
-0.0296528
-0.030411
-0.0312045
-0.0320327
-0.0328948
-0.0337899
-0.0347173
-0.0356801
-0.0366686
-0.0376961
-0.0387556
-0.039844
-0.040961
-0.042111
-0.0432984
-0.0445129
-0.0457441
-0.0470092
-0.0483009
-0.0496173
-0.0509565
-0.0523165
-0.0536946
-0.0550876
-0.0564915
-0.0579014
-0.0593113
-0.0607141
-0.0621009
-0.063461
-0.0647815
-0.066047
-0.0672376
-0.0683328
-0.0692989
-0.0701165
-0.0707144
-0.0711215
-0.0711201
-0.0710509
-0.0700443
-0.0699296
-0.0675321
-0.0688023
-0.0669335
-0.000656383
-0.00202024
-0.00341895
-0.00489191
-0.00640336
-0.00793116
-0.00945263
-0.0109459
-0.0123924
-0.0137763
-0.0150848
-0.0163074
-0.0174381
-0.0184697
-0.0193996
-0.0202268
-0.0209516
-0.0215762
-0.0221037
-0.0225386
-0.0228864
-0.0231532
-0.0233462
-0.0234727
-0.0235409
-0.0235589
-0.0235353
-0.0234784
-0.0233967
-0.0232984
-0.0231913
-0.0230827
-0.0229796
-0.0228882
-0.0228143
-0.022763
-0.0227386
-0.022745
-0.0227854
-0.0228624
-0.022978
-0.023134
-0.0233315
-0.0235712
-0.0238536
-0.0241787
-0.0245465
-0.0249567
-0.0254088
-0.0259022
-0.0264363
-0.0270102
-0.0276233
-0.0282747
-0.0289637
-0.0296897
-0.0304518
-0.0312495
-0.0320822
-0.0329494
-0.0338509
-0.0347861
-0.0357535
-0.0367569
-0.0377861
-0.0388465
-0.0399407
-0.0410682
-0.042224
-0.0434026
-0.0446119
-0.0458547
-0.0471227
-0.0484167
-0.0497358
-0.0510782
-0.0524417
-0.0538236
-0.0552205
-0.0566285
-0.0580425
-0.0594567
-0.0608636
-0.0622545
-0.0636189
-0.0649436
-0.0662135
-0.0674092
-0.06851
-0.0694838
-0.070311
-0.0709256
-0.0713541
-0.071392
-0.0713825
-0.0704486
-0.070567
-0.0682011
-0.0702538
-0.0685822
-0.000643012
-0.00200496
-0.00340117
-0.00488286
-0.00640598
-0.00794604
-0.00947929
-0.0109831
-0.0124386
-0.0138299
-0.015144
-0.01637
-0.0175039
-0.0185372
-0.0194675
-0.0202941
-0.0210176
-0.02164
-0.0221647
-0.0225963
-0.0229402
-0.0232029
-0.0233914
-0.0235133
-0.0235767
-0.0235899
-0.0235614
-0.0234999
-0.0234138
-0.0233112
-0.0232002