/*--------------------------------*- C++ -*----------------------------------*\
  =========                 |
  \\      /  F ield         | OpenFOAM: The Open Source CFD Toolbox
   \\    /   O peration     | Website:  https://openfoam.org
    \\  /    A nd           | Version:  7
     \\/     M anipulation  |
\*---------------------------------------------------------------------------*/
FoamFile
{
    version     2.0;
    format      ascii;
    class       surfaceScalarField;
    location    "74";
    object      phi;
}
// * * * * * * * * * * * * * * * * * * * * * * * * * * * * * * * * * * * * * //

dimensions      [0 3 -1 0 0 0 0];

internalField   nonuniform List<scalar> 
15760
(
0.00088843
3.08426e-06
-4.38e-06
0.000891107
8.88068e-06
-1.1558e-05
0.000895164
1.64063e-05
-2.04627e-05
0.000900065
2.24357e-05
-2.73377e-05
0.000905328
2.62034e-05
-3.14663e-05
0.000910606
2.77194e-05
-3.29969e-05
0.000915644
2.71415e-05
-3.21793e-05
0.000920252
2.47372e-05
-2.93451e-05
0.000924288
2.0808e-05
-2.48442e-05
0.000927647
1.56408e-05
-1.9e-05
0.00093025
9.50398e-06
-1.21068e-05
0.000932035
2.64072e-06
-4.42584e-06
0.000932984
-4.81314e-06
3.86463e-06
0.000933065
-1.26264e-05
1.25449e-05
0.000932273
-2.06348e-05
2.14265e-05
0.000930612
-2.87097e-05
3.03713e-05
0.000928094
-3.67345e-05
3.92519e-05
0.000924744
-4.46066e-05
4.7957e-05
0.000920591
-5.22357e-05
5.63885e-05
0.000915673
-5.95409e-05
6.44587e-05
0.000910034
-6.64497e-05
7.20887e-05
0.000903724
-7.28966e-05
7.92072e-05
0.000896797
-7.88226e-05
8.57497e-05
0.000889313
-8.41749e-05
9.16585e-05
0.000881337
-8.89076e-05
9.68835e-05
0.000872937
-9.29829e-05
0.000101383
0.000864183
-9.6372e-05
0.000105126
0.000855147
-9.9055e-05
0.000108091
0.000845902
-0.000101021
0.000110266
0.000836519
-0.000102268
0.000111651
0.000827068
-0.000102807
0.000112258
0.000817616
-0.000102655
0.000112106
0.000808227
-0.00010184
0.000111229
0.000798958
-0.000100398
0.000109667
0.000789863
-9.83727e-05
0.000107468
0.000780988
-9.58128e-05
0.000104687
0.000772375
-9.27732e-05
0.000101387
0.000764057
-8.93124e-05
9.76304e-05
0.000756061
-8.549e-05
9.34862e-05
0.000748406
-8.13691e-05
8.90238e-05
0.000741106
-7.70128e-05
8.43131e-05
0.000734166
-7.24842e-05
7.94237e-05
0.000727587
-6.7845e-05
7.44239e-05
0.000721363
-6.31547e-05
6.93788e-05
0.000715482
-5.84691e-05
6.43499e-05
0.000709929
-5.384e-05
5.93936e-05
0.000704682
-4.93144e-05
5.45611e-05
0.000699719
-4.49339e-05
4.98975e-05
0.000695011
-4.07341e-05
4.54413e-05
0.000690532
-3.67449e-05
4.12245e-05
0.000686249
-3.29902e-05
3.72727e-05
0.000682132
-2.94885e-05
3.36056e-05
0.000678148
-2.62535e-05
3.02375e-05
0.000674264
-2.32942e-05
2.71778e-05
0.000670449
-2.06163e-05
2.44322e-05
0.000666668
-1.82221e-05
2.20029e-05
0.00066289
-1.6112e-05
1.98901e-05
0.000659082
-1.42848e-05
1.8092e-05
0.000655215
-1.27381e-05
1.66059e-05
0.000651255
-1.14692e-05
1.54287e-05
0.000647173
-1.04751e-05
1.45571e-05
0.000642938
-9.75448e-06
1.39892e-05
0.000638522
-9.30796e-06
1.37244e-05
0.000633894
-9.13075e-06
1.37586e-05
0.000629027
-9.22527e-06
1.40928e-05
0.00062389
-9.58746e-06
1.47236e-05
0.000618456
-1.02186e-05
1.56528e-05
0.000612694
-1.11218e-05
1.68841e-05
0.000606573
-1.23043e-05
1.8425e-05
0.000600063
-1.37767e-05
2.02869e-05
0.00059313
-1.55492e-05
2.24825e-05
0.000585738
-1.76431e-05
2.50344e-05
0.000577852
-2.00836e-05
2.79697e-05
0.000569432
-2.28986e-05
3.13195e-05
0.000560432
-2.61252e-05
3.51245e-05
0.000550807
-2.98103e-05
3.94356e-05
0.000540503
-3.40113e-05
4.43147e-05
0.000529465
-3.87984e-05
4.98372e-05
0.000517628
-4.42552e-05
5.6092e-05
0.000504924
-5.04832e-05
6.31873e-05
0.000491276
-5.7605e-05
7.1253e-05
0.000476599
-6.57698e-05
8.04463e-05
0.000460801
-7.51596e-05
9.09578e-05
0.000443778
-8.59992e-05
0.000103022
0.000425419
-9.8567e-05
0.000116927
0.000405602
-0.000113216
0.000133034
0.000384197
-0.000130384
0.000151788
0.000361068
-0.00015068
0.000173809
0.00033609
-0.000174804
0.000199782
0.000309157
-0.000203797
0.00023073
0.000280221
-0.000238871
0.000267807
0.000249315
-0.000281988
0.000312894
0.0002168
-0.00033502
0.000367535
0.000182912
-0.000401748
0.000435635
0.000150042
-0.000485261
0.000518131
0.000117912
-0.000585673
0.000617802
9.5069e-05
-0.000718131
0.000740974
7.35957e-05
-0.000812364
0.000833837
5.051e-05
-0.000956941
0.000980026
-0.000558965
0.000609475
0.000938354
2.16667e-06
0.000940443
6.79191e-06
0.000943774
1.30754e-05
0.000947947
1.82621e-05
0.000952531
2.16198e-05
0.000957193
2.30574e-05
0.000961674
2.26599e-05
0.000965774
2.06374e-05
0.000969338
1.72439e-05
0.00097225
1.27287e-05
0.00097442
7.33396e-06
0.000975787
1.27407e-06
0.000976314
-5.34053e-06
0.00097597
-1.22823e-05
0.000974745
-1.94094e-05
0.00097264
-2.66046e-05
0.000969667
-3.3762e-05
0.000965849
-4.07886e-05
0.000961216
-4.76023e-05
0.000955805
-5.41297e-05
0.00094966
-6.03052e-05
0.000942833
-6.60693e-05
0.000935379
-7.13688e-05
0.00092736
-7.6156e-05
0.000918842
-8.03896e-05
0.000909895
-8.40353e-05
0.00090059
-8.70673e-05
0.000891002
-8.94673e-05
0.000881206
-9.12248e-05
0.000871276
-9.23382e-05
0.000861284
-9.28149e-05
0.0008513
-9.2671e-05
0.000841391
-9.19304e-05
0.000831617
-9.06246e-05
0.000822035
-8.87912e-05
0.000812696
-8.64739e-05
0.000803644
-8.37212e-05
0.000794917
-8.05847e-05
0.000786544
-7.71169e-05
0.000778548
-7.3374e-05
0.000770948
-6.94121e-05
0.000763751
-6.52876e-05
0.000756962
-6.10557e-05
0.000750577
-5.67697e-05
0.000744588
-5.24799e-05
0.000738981
-4.8233e-05
0.000733738
-4.40716e-05
0.000728837
-4.00333e-05
0.000724254
-3.61507e-05
0.00071996
-3.24511e-05
0.000715926
-2.89565e-05
0.000712122
-2.56842e-05
0.000708515
-2.26469e-05
0.000705074
-1.98531e-05
0.000701766
-1.73081e-05
0.000698559
-1.50146e-05
0.00069542
-1.29731e-05
0.000692318
-1.11826e-05
0.000689221
-9.64122e-06
0.000686098
-8.34649e-06
0.000682918
-7.29551e-06
0.000679652
-6.48787e-06
0.000676269
-5.92494e-06
0.000672741
-5.60264e-06
0.000669038
-5.5229e-06
0.000665132
-5.68139e-06
0.000660993
-6.07943e-06
0.000656591
-6.71983e-06
0.000651896
-7.60928e-06
0.000646876
-8.75668e-06
0.000641497
-1.01704e-05
0.000635725
-1.18709e-05
0.000629523
-1.38811e-05
0.000622849
-1.62253e-05
0.00061566
-1.89363e-05
0.000607907
-2.20572e-05
0.000599536
-2.564e-05
0.000590487
-2.9749e-05
0.000580692
-3.44609e-05
0.000570078
-3.98692e-05
0.000558561
-4.60875e-05
0.000546045
-5.3254e-05
0.000532424
-6.15385e-05
0.000517576
-7.11516e-05
0.000501365
-8.23555e-05
0.000483634
-9.54855e-05
0.000464209
-0.000110959
0.000442888
-0.000129358
0.000419456
-0.000151373
0.000393679
-0.00017802
0.000365328
-0.00021052
0.000334161
-0.00025082
0.000300159
-0.000301019
0.000263025
-0.000364614
0.000224014
-0.000446249
0.000182336
-0.000543995
0.000142429
-0.000678223
9.9781e-05
-0.000769716
4.10331e-05
-0.000898193
-0.000517932
0.000983113
1.51523e-06
0.00098473
5.17482e-06
0.000987466
1.03401e-05
0.000991008
1.47193e-05
0.000994988
1.76402e-05
0.000999094
1.89515e-05
0.00100307
1.86855e-05
0.0010067
1.70019e-05
0.00100984
1.41101e-05
0.00101234
1.02225e-05
0.00101413
5.5512e-06
0.00101511
2.89178e-07
0.00101526
-5.49261e-06
0.00101454
-1.15597e-05
0.00101293
-1.77998e-05
0.00101043
-2.41069e-05
0.00100706
-3.03871e-05
0.00100283
-3.65571e-05
0.000997769
-4.25437e-05
0.00099192
-4.82816e-05
0.000985327
-5.37121e-05
0.000978041
-5.87827e-05
0.000970118
-6.34458e-05
0.000961621
-6.76592e-05
0.000952618
-7.13863e-05
0.000943179
-7.45963e-05
0.000933378
-7.72668e-05
0.000923292
-7.93811e-05
0.000912997
-8.09295e-05
0.000902569
-8.19102e-05
0.000892083
-8.2329e-05
0.000881611
-8.21994e-05
0.000871223
-8.1542e-05
0.000860982
-8.03838e-05
0.000850948
-7.87573e-05
0.000841175
-7.67006e-05
0.000831709
-7.42557e-05
0.000822592
-7.14679e-05
0.000813858
-6.83824e-05
0.000805532
-6.50483e-05
0.000797635
-6.1515e-05
0.000790179
-5.78319e-05
0.000783171
-5.40476e-05
0.000776611
-5.02091e-05
0.000770491
-4.63608e-05
0.000764802
-4.25441e-05
0.000759528
-3.87969e-05
0.000754647
-3.51527e-05
0.000750137
-3.16408e-05
0.000745972
-2.82855e-05
0.000742122
-2.51069e-05
0.000738559
-2.21206e-05
0.00073525
-1.93381e-05
0.000732164
-1.67673e-05
0.000729269
-1.44134e-05
0.000726533
-1.22788e-05
0.000723924
-1.03642e-05
0.000721411
-8.66888e-06
0.000718961
-7.19133e-06
0.000716544
-5.92935e-06
0.000714128
-4.87993e-06
0.000711684
-4.04352e-06
0.000709182
-3.42333e-06
0.00070659
-3.01089e-06
0.000703883
-2.81572e-06
0.000701031
-2.82959e-06
0.000698005
-3.0526e-06
0.000694771
-3.48613e-06
0.000691299
-4.13783e-06
0.000687562
-5.01878e-06
0.000683523
-6.13158e-06
0.000679146
-7.49394e-06
0.000674395
-9.13016e-06
0.000669229
-1.10594e-05
0.000663603
-1.33101e-05
0.000657466
-1.59206e-05
0.000650763
-1.89375e-05
0.000643433
-2.24182e-05
0.000635404
-2.64317e-05
0.000626597
-3.10622e-05
0.000616921
-3.64121e-05
0.000606274
-4.26068e-05
0.000594536
-4.98004e-05
0.00058157
-5.81853e-05
0.000567216
-6.80014e-05
0.000551288
-7.9558e-05
0.00053357
-9.32411e-05
0.000513803
-0.000109591
0.000491691
-0.00012926
0.000466878
-0.000153207
0.000438971
-0.000182613
0.000407471
-0.00021932
0.00037198
-0.000265528
0.000331691
-0.000324324
0.000286842
-0.000401401
0.000236049
-0.000493202
0.000180665
-0.000622839
0.000120102
-0.000709153
4.05617e-05
-0.000818653
-0.00047737
0.00102255
1.05418e-06
0.00102381
3.91821e-06
0.00102606
8.08899e-06
0.00102907
1.17087e-05
0.00103253
1.41839e-05
0.00103614
1.53363e-05
0.00103966
1.5163e-05
0.00104288
1.37819e-05
0.00104563
1.13613e-05
0.00104778
8.07834e-06
0.00104921
4.11586e-06
0.00104987
-3.67871e-07
0.00104969
-5.31115e-06
0.00104863
-1.05058e-05
0.00104669
-1.58551e-05
0.00104385
-2.12681e-05
0.00104013
-2.66627e-05
0.00103554
-3.19667e-05
0.00103011
-3.7116e-05
0.00102388
-4.20537e-05
0.0010169
-4.67289e-05
0.00100921
-5.10958e-05
0.00100088
-5.5113e-05
0.000991963
-5.87441e-05
0.000982534
-6.1957e-05
0.000972663
-6.47252e-05
0.000962425
-6.70289e-05
0.000951898
-6.8854e-05
0.00094116
-7.01914e-05
0.000930288
-7.10391e-05
0.000919361
-7.14019e-05
0.000908453
-7.12907e-05
0.000897633
-7.07229e-05
0.000886971
-6.97211e-05
0.000876526
-6.8313e-05
0.000866357
-6.6531e-05
0.000856512
-6.44111e-05
0.000847036
-6.19917e-05
0.000837965
-5.93113e-05
0.000829329
-5.64119e-05
0.000821149
-5.33358e-05
0.000813443
-5.01256e-05
0.000806219
-4.68231e-05
0.000799478
-4.34688e-05
0.000793219
-4.01012e-05
0.000787431
-3.6756e-05
0.0007821
-3.34663e-05
0.000777208
-3.02611e-05
0.000772734
-2.71661e-05
0.000768651
-2.42028e-05
0.000764933
-2.13886e-05
0.00076155
-1.87375e-05
0.000758471
-1.62596e-05
0.000755666
-1.39623e-05
0.000753103
-1.185e-05
0.000750749
-9.92506e-06
0.000748573
-8.18833e-06
0.000746544
-6.63934e-06
0.000744629
-5.2767e-06
0.000742798
-4.09847e-06
0.00074102
-3.10155e-06
0.000739264
-2.28735e-06
0.000737498
-1.65744e-06
0.000735701
-1.21438e-06
0.000733836
-9.50573e-07
0.000731874
-8.67509e-07
0.000729786
-9.64755e-07
0.000727545
-1.24465e-06
0.00072512
-1.71294e-06
0.000722473
-2.37204e-06
0.000719571
-3.22971e-06
0.000716384
-4.30677e-06
0.000712871
-5.61692e-06
0.00070899
-7.17916e-06
0.000704697
-9.01706e-06
0.000699941
-1.11638e-05
0.000694663
-1.366e-05
0.000688801
-1.65557e-05
0.00068228
-1.99112e-05
0.000675018
-2.38003e-05
0.000666919
-2.83128e-05
0.000657871
-3.35591e-05
0.000647746
-3.96752e-05
0.000636392
-4.68314e-05
0.000623631
-5.52406e-05
0.000609252
-6.51786e-05
0.000593002
-7.6991e-05
0.000574572
-9.1162e-05
0.000553597
-0.000108284
0.000529617
-0.000129227
0.000502092
-0.000155088
0.000470302
-0.00018753
0.000433504
-0.00022873
0.000390444
-0.000281265
0.000340452
-0.000351409
0.000281668
-0.000434419
0.00021311
-0.000554281
0.000137527
-0.00063357
4.40884e-05
-0.000725214
-0.000433281
0.00105655
7.27446e-07
0.00105754
2.93181e-06
0.00105941
6.22256e-06
0.00106198
9.13593e-06
0.00106499
1.11688e-05
0.00106819
1.21421e-05
0.00107132
1.20325e-05
0.00107418
1.09239e-05
0.00107659
8.94814e-06
0.00107842
6.24891e-06
0.00107956
2.97858e-06
0.00107993
-7.38022e-07
0.00107946
-4.84587e-06
0.00107813
-9.16893e-06
0.0010759
-1.36255e-05
0.00107277
-1.81397e-05
0.00106875
-2.26424e-05
0.00106385
-2.70724e-05
0.00105811
-3.13757e-05
0.00105156
-3.55041e-05
0.00104425
-3.94147e-05
0.00103622
-4.30687e-05
0.00102754
-4.64315e-05
0.00101827
-4.94721e-05
0.00100847
-5.21636e-05
0.000998233
-5.44834e-05
0.000987619
-5.64151e-05
0.000976712
-5.79467e-05
0.000965591
-5.90703e-05
0.000954336
-5.97838e-05
0.000943024
-6.00908e-05
0.000931734
-6.00002e-05
0.000920537
-5.95261e-05
0.000909503
-5.86871e-05
0.000898696
-5.7506e-05
0.000888175
-5.60096e-05
0.000877992
-5.42279e-05
0.000868193
-5.21928e-05
0.000858818
-4.99359e-05
0.000849898
-4.74921e-05
0.000841459
-4.48968e-05
0.000833519
-4.21855e-05
0.000826089
-3.93932e-05
0.000819174
-3.65538e-05
0.000812772
-3.36995e-05
0.000806877
-3.08606e-05
0.000801475
-2.80648e-05
0.000796551
-2.53367e-05
0.000792083
-2.2698e-05
0.000788047
-2.01669e-05
0.000784417
-1.77585e-05
0.000781164
-1.54846e-05
0.000778258
-1.33541e-05
0.000775669
-1.13731e-05
0.000773365
-9.5458e-06
0.000771314
-7.87423e-06
0.000769485
-6.35921e-06
0.000767846
-5.00047e-06
0.000766366
-3.79696e-06
0.000765015
-2.747e-06
0.00076376
-1.8464e-06
0.000762569
-1.09653e-06
0.000761421
-5.09852e-07
0.000760265
-5.80417e-08
0.000759099
2.15585e-07
0.000757883
3.48536e-07
0.000756584
3.33998e-07
0.000755166
1.73667e-07
0.000753597
-1.44154e-07
0.000751864
-6.38766e-07
0.000749925
-1.29081e-06
0.000747729
-2.11081e-06
0.000745252
-3.13995e-06
0.00074245
-4.37729e-06
0.000739276
-5.84312e-06
0.000735678
-7.56613e-06
0.000731599
-9.58063e-06
0.000726972
-1.19288e-05
0.000721723
-1.46617e-05
0.000715764
-1.78415e-05
0.000708996
-2.15446e-05
0.000701301
-2.58647e-05
0.000692543
-3.09174e-05
0.00068256
-3.68479e-05
0.000671157
-4.38382e-05
0.000658104
-5.21248e-05
0.000643117
-6.20049e-05
0.00062585
-7.38946e-05
0.000605876
-8.83103e-05
0.000582655
-0.000106006
0.00055552
-0.000127954
0.000523572
-0.000155582
0.000485771
-0.000190929
0.00044052
-0.000236013
0.000386307
-0.000297196
0.000321006
-0.000369118
0.00024173
-0.000475004
0.000153687
-0.000545527
4.99749e-05
-0.000621502
-0.000383307
0.00108502
4.94025e-07
0.00108581
2.1437e-06
0.00108738
4.6539e-06
0.0010896
6.91271e-06
0.00109226
8.51432e-06
0.0010951
9.29772e-06
0.0010979
9.23067e-06
0.00110046
8.37095e-06
0.00110259
6.81805e-06
0.00110415
4.68415e-06
0.00110504
2.09046e-06
0.00110517
-8.68297e-07
0.00110447
-4.1455e-06
0.0011029
-7.59857e-06
0.00110044
-1.11617e-05
0.00109707
-1.47741e-05
0.00109281
-1.83799e-05
0.00108766
-2.19297e-05
0.00108167
-2.53798e-05
0.00107486
-2.86913e-05
0.00106727
-3.18292e-05
0.00105896
-3.47625e-05
0.00105
-3.74631e-05
0.00104043
-3.99059e-05
0.00103034
-4.20692e-05
0.00101979
-4.39346e-05
0.00100886
-4.5489e-05
0.000997637
-4.67227e-05
0.000986195
-4.76291e-05
0.000974618
-4.82063e-05
0.000962984
-4.84567e-05
0.000951371
-4.83873e-05
0.000939854
-4.80092e-05
0.000928504
-4.73371e-05
0.000917387
-4.6389e-05
0.000906563
-4.51861e-05
0.000896088
-4.37526e-05
0.000886009
-4.21139e-05
0.000876368
-4.02947e-05
0.000867199
-3.83229e-05
0.000858529
-3.6227e-05
0.000850379
-3.40354e-05
0.000842762
-3.17761e-05
0.000835684
-2.94764e-05
0.000829147
-2.71623e-05
0.000823144
-2.4858e-05
0.000817665
-2.25859e-05
0.000812695
-2.03662e-05
0.000808213
-1.82162e-05
0.000804197
-1.61509e-05
0.000800621
-1.41825e-05
0.000797457
-1.23208e-05
0.000794676
-1.0573e-05
0.000792247
-8.94429e-06
0.00079014
-7.43805e-06
0.000788322
-6.05612e-06
0.000786762
-4.79924e-06
0.000785428
-3.66723e-06
0.000784291
-2.6592e-06
0.000783317
-1.77342e-06
0.000782476
-1.00539e-06
0.000781742
-3.62094e-07
0.00078107
1.61633e-07
0.000780466
5.46144e-07
0.000779862
8.19864e-07
0.000779238
9.71892e-07
0.000778568
1.00423e-06
0.000777827
9.14658e-07
0.000776985
6.98266e-07
0.000775988
3.58144e-07
0.000774802
-1.05128e-07
0.000773433
-7.41468e-07
0.000771804
-1.51134e-06
0.000769885
-2.45792e-06
0.000767628
-3.58642e-06
0.000764982
-4.91975e-06
0.000761887
-6.48592e-06
0.000758277
-8.31895e-06
0.000754075
-1.046e-05
0.000749193
-1.29593e-05
0.000743527
-1.58786e-05
0.000736956
-1.92938e-05
0.000729337
-2.32986e-05
0.000720501
-2.80109e-05
0.000710241
-3.35787e-05
0.000698311
-4.01946e-05
0.000684407
-4.81014e-05
0.000668152
-5.76388e-05
0.000649074
-6.92327e-05
0.000626569
-8.35001e-05
0.000599874
-0.000101259
0.000567952
-0.00012366
0.000529523
-0.0001525
0.000482744
-0.000189234
0.000425366
-0.000239818
0.000355134
-0.000298887
0.000267576
-0.000387446
0.000169407
-0.000447358
5.73256e-05
-0.00050942
-0.000325981
0.00110789
3.23983e-07
0.00110853
1.49736e-06
0.00110988
3.30812e-06
0.00111183
4.95834e-06
0.0011142
6.14288e-06
0.00111677
6.73155e-06
0.00111931
6.69262e-06
0.00112162
6.06379e-06
0.00112352
4.91593e-06
0.00112487
3.33146e-06
0.00112556
1.40135e-06
0.0011255
-8.07314e-07
0.00112461
-3.25971e-06
0.00112286
-5.84482e-06
0.00112021
-8.51467e-06
0.00111666
-1.12234e-05
0.00111221
-1.3929e-05
0.00110687
-1.65941e-05
0.00110068
-1.91855e-05
0.00109366
-2.16738e-05
0.00108587
-2.40328e-05
0.00107734
-2.62388e-05
0.00106815
-2.82706e-05
0.00105835
-3.01094e-05
0.00104802
-3.17385e-05
0.00103723
-3.3144e-05
0.00102606
-3.4316e-05
0.00101458
-3.52475e-05
0.00100289
-3.59331e-05
0.000991053
-3.63711e-05
0.000979159
-3.65633e-05
0.000967287
-3.65146e-05
0.000955511
-3.62333e-05
0.000943904
-3.57302e-05
0.000932534
-3.50187e-05
0.000921462
-3.41147e-05
0.000910746
-3.30363e-05
0.000900435
-3.18025e-05
0.000890571
-3.04314e-05
0.000881192
-2.89439e-05
0.000872327
-2.73613e-05
0.000863996
-2.57052e-05
0.000856217
-2.39965e-05
0.000848996
-2.22558e-05
0.000842336
-2.05025e-05
0.000836234
-1.87551e-05
0.000830678
-1.70305e-05
0.000825656
-1.53438e-05
0.000821148
-1.37084e-05
0.000817133
-1.21355e-05
0.000813585
-1.06345e-05
0.000810477
-9.21293e-06
0.00080778
-7.87631e-06
0.000805464
-6.62867e-06
0.000803499
-5.47265e-06
0.000801853
-4.40973e-06
0.000800494
-3.44054e-06
0.000799392
-2.56503e-06
0.000798515
-1.78274e-06
0.000797834
-1.09209e-06
0.000797316
-4.8744e-07
0.000796918
3.57069e-08
0.000796648
4.31591e-07
0.000796437
7.57812e-07
0.000796272
9.84413e-07
0.00079612
1.12391e-06
0.000795949
1.17477e-06
0.000795728
1.13577e-06
0.000795426
1.00104e-06
0.000795019
7.64853e-07
0.000794482
4.31758e-07
0.000793718
2.27403e-08
0.000792763
-5.56175e-07
0.000791542
-1.23771e-06
0.000790013
-2.05653e-06
0.000788121
-3.02807e-06
0.000785809
-4.17362e-06
0.000783008
-5.5188e-06
0.000779643
-7.09453e-06
0.000775622
-8.9387e-06
0.000770841
-1.10977e-05
0.000765176
-1.36289e-05
0.000758481
-1.66029e-05
0.000750579
-2.01089e-05
0.000741259
-2.42587e-05
0.000730262
-2.91982e-05
0.000717272
-3.51116e-05
0.00070189
-4.22559e-05
0.000683614
-5.09568e-05
0.000661795
-6.16811e-05
0.000635602
-7.50657e-05
0.000603905
-9.19636e-05
0.000565239
-0.000113834
0.000517613
-0.000141608
0.000458166
-0.00018037
0.000384607
-0.000225328
0.000291116
-0.000293955
0.000185083
-0.000341326
6.57883e-05
-0.000390125
-0.000260193
0.00112508
1.95399e-07
0.00112563
9.48038e-07
0.00112682
2.12077e-06
0.00112858
3.19934e-06
0.00113074
3.9804e-06
0.0011331
4.37305e-06
0.00113544
4.35264e-06
0.00113756
3.94155e-06
0.00113929
3.18522e-06
0.00114049
2.13794e-06
0.00114103
8.59383e-07
0.00114083
-6.07703e-07
0.00113981
-2.23748e-06
0.00113792
-3.95789e-06
0.00113514
-5.73553e-06
0.00113146
-7.5401e-06
0.00112687
-9.34354e-06
0.0011214
-1.11208e-05
0.00111506
-1.28497e-05
0.0011079
-1.45106e-05
0.00109995
-1.60858e-05
0.00109127
-1.75595e-05
0.00108192
-1.89174e-05
0.00107196
-2.0147e-05
0.00106146
-2.1237e-05
0.00105049
-2.21779e-05
0.00103914
-2.2963e-05
0.00102748
-2.35882e-05
0.0010156
-2.40494e-05
0.00100357
-2.43453e-05
0.000991483
-2.44769e-05
0.000979416
-2.44476e-05
0.000967445
-2.42626e-05
0.000955644
-2.3929e-05
0.000944081
-2.34558e-05
0.00093282
-2.28535e-05
0.000921918
-2.21342e-05
0.000911426
-2.13107e-05
0.000901389
-2.03943e-05
0.000891844
-1.93992e-05
0.000882822
-1.83397e-05
0.000874347
-1.72301e-05
0.000866435
-1.60844e-05
0.000859096
-1.49164e-05
0.000852332
-1.37391e-05
0.000846142
-1.25648e-05
0.000840516
-1.14049e-05
0.000835442
-1.02695e-05
0.000830901
-9.1677e-06
0.000826873
-8.10708e-06
0.000823332
-7.09401e-06
0.000820253
-6.13352e-06
0.000817606
-5.22946e-06
0.000815362
-4.38458e-06
0.00081349
-3.6007e-06
0.000811959
-2.87886e-06
0.000810738
-2.21954e-06
0.000809796
-1.62268e-06
0.000809101
-1.08792e-06
0.000808622
-6.13226e-07
0.00080833
-1.95509e-07
0.000808212
1.54344e-07
0.000808201
4.41866e-07
0.000808294
6.65528e-07
0.000808447
8.30818e-07
0.000808634
9.3681e-07
0.000808826
9.82656e-07
0.000808994
9.6792e-07
0.000809105
8.90261e-07
0.000809121
7.48993e-07
0.000809008
5.44645e-07
0.000808769
2.61378e-07
0.000808301
-8.77351e-08
0.0008076
-5.36967e-07
0.000806612
-1.06878e-06
0.000805286
-1.70174e-06
0.000803562
-2.44969e-06
0.000801373
-3.32988e-06
0.000798642
-4.36295e-06
0.000795277
-5.57414e-06
0.000791174
-6.9944e-06
0.000786207
-8.6619e-06
0.000780228
-1.06239e-05
0.000773059
-1.29397e-05
0.000764484
-1.5684e-05
0.00075424
-1.89543e-05
0.000742002
-2.28735e-05
0.000727359
-2.76129e-05
0.000709794
-3.33919e-05
0.000688633
-4.05196e-05
0.000663
-4.94327e-05
0.000631718
-6.06825e-05
0.00059319
-7.53052e-05
0.000545375
-9.37933e-05
0.000484922
-0.000119918
0.000409604
-0.000150009
0.000312427
-0.000196778
0.00020085
-0.000229749
7.51502e-05
-0.000264425
-0.000185042
0.00113658
9.18445e-08
0.00113706
4.59513e-07
0.00113815
1.03547e-06
0.00113978
1.56825e-06
0.0011418
1.95626e-06
0.00114402
2.15289e-06
0.00114623
2.1448e-06
0.00114823
1.94235e-06
0.00114985
1.56764e-06
0.00115094
1.04748e-06
0.00115139
4.13149e-07
0.00115109
-3.1639e-07
0.00114999
-1.13108e-06
0.00114802
-1.98871e-06
0.00114516
-2.87557e-06
0.0011414
-3.77635e-06
0.00113673
-4.67703e-06
0.00113117
-5.56508e-06
0.00112475
-6.42943e-06
0.0011175
-7.2602e-06
0.00110947
-8.04855e-06
0.00110069
-8.78656e-06
0.00109124
-9.46706e-06
0.00108118
-1.00837e-05
0.00107057
-1.06309e-05
0.0010595
-1.11036e-05
0.00104803
-1.14984e-05
0.00103626
-1.18137e-05
0.00102426
-1.20471e-05
0.00101211
-1.21977e-05
0.000999898
-1.22661e-05
0.000987705
-1.22539e-05
0.000975606
-1.21636e-05
0.000963675
-1.19987e-05
0.000951983
-1.17636e-05
0.000940593
-1.14635e-05
0.000929564
-1.11051e-05
0.000918947
-1.06938e-05
0.000908788
-1.02353e-05
0.000899126
-9.73705e-06
0.000889993
-9.20605e-06
0.000881412
-8.64947e-06
0.000873402
-8.07436e-06
0.000865973
-7.48757e-06
0.00085913
-6.89569e-06
0.00085287
-6.30491e-06
0.000847186
-5.72093e-06
0.000842065
-5.14892e-06
0.000837491
-4.59344e-06
0.000833442
-4.05837e-06
0.000829895
-3.54696e-06
0.000826823
-3.06179e-06
0.000824199
-2.60484e-06
0.000821992
-2.17756e-06
0.000820172
-1.7809e-06
0.000818709
-1.41543e-06
0.00081757
-1.08142e-06
0.000816727
-7.78897e-07
0.000816147
-5.07932e-07
0.000815801
-2.67085e-07
0.000815653
-4.80473e-08
0.000815682
1.24991e-07
0.000815857
2.66885e-07
0.000816139
3.83997e-07
0.000816501
4.6911e-07
0.000816913
5.2453e-07
0.000817345
5.50242e-07
0.000817767
5.45877e-07
0.000818148
5.09669e-07
0.000818456
4.40533e-07
0.000818661
3.40539e-07
0.000818712
2.0975e-07
0.000818586
3.81259e-08
0.000818238
-1.88505e-07
0.00081762
-4.50957e-07
0.00081668
-7.61489e-07
0.000815359
-1.12902e-06
0.000813591
-1.56199e-06
0.000811299
-2.07061e-06
0.000808392
-2.66745e-06
0.000804766
-3.36794e-06
0.000800295
-4.19108e-06
0.000794831
-5.16038e-06
0.000788197
-6.3054e-06
0.000780176
-7.66327e-06
0.000770504
-9.28232e-06
0.000758855
-1.12239e-05
0.000744814
-1.35725e-05
0.000727861
-1.64385e-05
0.000707313
-1.9972e-05
0.000682279
-2.43982e-05
0.000651569
-2.99726e-05
0.000613521
-3.72571e-05
0.000566132
-4.64038e-05
0.000505672
-5.94588e-05
0.000430079
-7.44164e-05
0.00033137
-9.80688e-05
0.000216693
-0.000115071
8.60326e-05
-0.000133765
-9.90098e-05
0.00114233
1.42616e-10
0.00114279
7.97744e-10
0.00114382
1.54688e-09
0.00114539
2.26033e-09
0.00114734
2.90122e-09
0.00114949
3.50442e-09
0.00115163
4.13966e-09
0.00115357
4.88215e-09
0.00115513
5.79338e-09
0.00115617
6.87147e-09
0.00115658
8.17569e-09
0.00115625
1.00536e-08
0.00115511
1.16286e-08
0.00115311
1.32685e-08
0.00115021
1.48886e-08
0.00114642
1.6364e-08
0.00114173
1.75918e-08
0.00113614
1.84878e-08
0.0011297
1.8986e-08
0.00112242
1.90442e-08
0.00111435
1.86438e-08
0.00110554
1.77903e-08
0.00109606
1.65112e-08
0.00108596
1.48541e-08
0.00107532
1.28812e-08
0.0010642
1.06666e-08
0.0010527
8.29113e-09
0.00104088
5.834e-09
0.00102883
3.37498e-09
0.00101663
9.88837e-10
0.00100436
-1.24978e-09
0.000992114
-3.28278e-09
0.000979955
-5.05866e-09
0.000967963
-6.5316e-09
0.000956207
-7.66498e-09
0.000944752
-8.42985e-09
0.000933656
-8.8045e-09
0.000922971
-8.77802e-09
0.000912744
-8.3437e-09
0.000903014
-7.50116e-09
0.000893815
-6.26007e-09
0.00088517
-4.63931e-09
0.000877098
-2.66711e-09
0.000869611
-3.7525e-10
0.000862713
2.16871e-09
0.000856403
4.92656e-09
0.000850674
7.83281e-09
0.000845515
1.08141e-08
0.000840907
1.37914e-08
0.000836832
1.66879e-08
0.000833266
1.94243e-08
0.000830182
2.19228e-08
0.000827553
2.41095e-08
0.00082535
2.59169e-08
0.000823542
2.72832e-08
0.000822098
2.81646e-08
0.000820988
2.85024e-08
0.000820181
2.83207e-08
0.000819646
2.73729e-08
0.000819352
2.62966e-08
0.00081928
2.47055e-08
0.000819384
2.07358e-08
0.000819633
1.72791e-08
0.000820003
1.44424e-08
0.000820461
1.0638e-08
0.000820979
6.72964e-09
0.000821527
2.6485e-09
0.000822074
-1.4723e-09
0.000822589
-5.60276e-09
0.000823039
-9.4035e-09
0.000823393
-1.33207e-08
0.000823618
-1.54779e-08
0.000823676
-1.93047e-08
0.000823509
-2.13118e-08
0.000823082
-2.40468e-08
0.000822345
-2.49827e-08
0.000821241
-2.49784e-08
0.000819703
-2.42039e-08
0.000817656
-2.27318e-08
0.000815009
-2.0676e-08
0.000811659
-1.81622e-08
0.000807483
-1.5313e-08
0.000802335
-1.22448e-08
0.000796039
-9.06915e-09
0.000788381
-5.8985e-09
0.000779102
-2.84154e-09
0.000767878
8.4834e-12
0.000754303
2.48232e-09
0.00073786
4.58639e-09
0.000717882
6.20541e-09
0.000693476
7.32216e-09
0.000663496
7.91059e-09
0.00062623
8.03678e-09
0.000579819
7.7307e-09
0.000520353
7.1228e-09
0.00044593
6.27932e-09
0.000347856
5.31934e-09
0.00023278
4.40586e-09
9.90116e-05
3.31623e-09
1.7787e-09
-0.000672407
0.00956645
-0.00944106
-0.000798029
0.00955167
-0.00942605
-0.000924372
0.00952813
-0.00940179
-0.00105199
0.00950645
-0.00937883
-0.00118126
0.00948828
-0.00935901
-0.00131248
0.00947454
-0.00934332
-0.00144608
0.00946589
-0.00933229
-0.00158253
0.00946286
-0.00932641
-0.00172251
0.00946625
-0.00932627
-0.00186708
0.00947787
-0.00933331
-0.00201812
0.00950113
-0.00935009
-0.0021781
0.00954346
-0.00938347
-0.00235109
0.00961309
-0.0094401
-0.00253895
0.00972093
-0.00953307
-0.00273639
0.009856
-0.00965856
-0.00290418
0.00996998
-0.00980219
-0.00293607
0.00985587
-0.00982397
-0.00257652
0.00906748
-0.00942703
-0.0015084
0.00661514
-0.00768326
0.00216142
-0.00366982
-0.000679918
0.00969132
-0.000805302
0.00967706
-0.000931481
0.00965431
-0.00105901
0.00963398
-0.00118811
0.00961738
-0.00131915
0.00960558
-0.00145249
0.00959923
-0.00158858
0.00959895
-0.00172808
0.00960575
-0.00187204
0.00962184
-0.00202232
0.00965141
-0.00218153
0.00970266
-0.00235255
0.00978411
-0.0025341
0.00990248
-0.00271068
0.0100326
-0.00282273
0.010082
-0.0027326
0.00976573
-0.00220151
0.00853639
-0.0010716
0.00548523
0.00108983
-0.000687146
0.00981574
-0.000812184
0.0098021
-0.000938154
0.00978028
-0.00106548
0.00976131
-0.00119439
0.00974628
-0.00132521
0.0097364
-0.00145828
0.0097323
-0.00159403
0.0097347
-0.00173311
0.00974483
-0.00187662
0.00976535
-0.00202643
0.00980121
-0.00218489
0.00986112
-0.00235338
0.00995261
-0.00252571
0.0100748
-0.00267442
0.0101813
-0.00272037
0.010128
-0.00250816
0.00955352
-0.00183664
0.00786487
-0.000694989
0.00434357
0.000394838
-0.000694057
0.0099397
-0.000818705
0.00992675
-0.000944389
0.00990596
-0.00107144
0.00988836
-0.00120008
0.00987492
-0.00133061
0.00986693
-0.00146334
0.00986503
-0.00159869
0.00987005
-0.0017373
0.00988344
-0.00188031
0.00990835
-0.0020295
0.0099504
-0.00218667
0.0100183
-0.00235105
0.010117
-0.00251028
0.010234
-0.00262405
0.0102951
-0.00259702
0.010101
-0.00226776
0.00922425
-0.00147987
0.00707698
-0.000428956
0.00329266
-3.4118e-05
-0.000700625
0.0100632
-0.000824862
0.010051
-0.0009502
0.0100313
-0.00107692
0.0100151
-0.00120522
0.0100032
-0.00133537
0.00999708
-0.00146766
0.00999732
-0.00160249
0.0100049
-0.0017405
0.0100215
-0.00188283
0.0100507
-0.0020311
0.0100987
-0.00218619
0.0101734
-0.00234431
0.0102751
-0.00248579
0.0103755
-0.00255737
0.0103666
-0.00245255
0.00999613
-0.00201862
0.00879033
-0.0011556
0.00621396
-0.000243672
0.00238073
-0.00027779
-0.000706857
0.0101861
-0.000830664
0.0101748
-0.00095562
0.0101563
-0.00108196
0.0101414
-0.00120986
0.0101311
-0.00133957
0.0101268
-0.00147133
0.0101291
-0.00160552
0.0101391
-0.00174278
0.0101587
-0.00188416
0.0101921
-0.00203088
0.0102454
-0.00218249
0.010325
-0.00233146
0.0104241
-0.00245052
0.0104946
-0.00247482
0.0103909
-0.00229134
0.00981265
-0.0017699
0.00826888
-0.000879853
0.00532392
-0.000126004
0.00162689
-0.000403794
-0.000712724
0.0103085
-0.000836079
0.0102981
-0.000960609
0.0102808
-0.00108652
0.0102673
-0.00121396
0.0102586
-0.00134315
0.010256
-0.00147429
0.0102602
-0.00160774
0.0102725
-0.00174414
0.0102951
-0.00188445
0.0103324
-0.00202946
0.0103904
-0.00217702
0.0104725
-0.00231513
0.0105622
-0.0024082
0.0105876
-0.00238126
0.010364
-0.0021202
0.00955159
-0.00152534
0.00767402
-0.000659674
0.00445826
-6.24482e-05
0.00102966
-0.000466242
-0.000718279
0.0104302
-0.000841188
0.0104211
-0.000965286
0.0104049
-0.00109077
0.0103928
-0.00121774
0.0103855
-0.00134639
0.0103846
-0.00147688
0.0103907
-0.00160956
0.0104052
-0.001745
0.0104305
-0.00188391
0.0104713
-0.00202621
0.0105327
-0.00216729
0.0106136
-0.00229016
0.0106851
-0.00235206
0.0106495
-0.00227249
0.0102844
-0.00194238
0.00922148
-0.0012961
0.00702775
-0.000494717
0.00365687
-3.80642e-05
0.000573006
-0.000504307
-0.000723364
0.0105513
-0.000845819
0.0105435
-0.000969375
0.0105284
-0.00109434
0.0105178
-0.00122072