/*--------------------------------*- C++ -*----------------------------------*\
  =========                 |
  \\      /  F ield         | OpenFOAM: The Open Source CFD Toolbox
   \\    /   O peration     | Website:  https://openfoam.org
    \\  /    A nd           | Version:  7
     \\/     M anipulation  |
\*---------------------------------------------------------------------------*/
FoamFile
{
    version     2.0;
    format      ascii;
    class       volVectorField;
    location    "74";
    object      U;
}
// * * * * * * * * * * * * * * * * * * * * * * * * * * * * * * * * * * * * * //

dimensions      [0 1 -1 0 0 0 0];

internalField   nonuniform List<vector> 
8000
(
(-0.25092 -0.000312717 -5.75754e-20)
(-0.251591 -0.000868625 2.50088e-19)
(-0.252507 -0.00157364 -2.51994e-19)
(-0.253808 -0.00213122 6.76621e-19)
(-0.255261 -0.00247437 -5.45349e-19)
(-0.256758 -0.00260888 -6.42799e-19)
(-0.258222 -0.00255187 1.04142e-18)
(-0.259594 -0.00232883 3.62108e-19)
(-0.260827 -0.00196766 2.76376e-19)
(-0.261889 -0.00149442 3.27727e-19)
(-0.262755 -0.000933003 -9.13454e-19)
(-0.263404 -0.000303793 -8.05267e-19)
(-0.263825 0.000372065 -5.65884e-18)
(-0.264012 0.00107668 -1.58044e-18)
(-0.26396 0.00180059 9.91885e-19)
(-0.263666 0.0025313 1.05482e-18)
(-0.263134 0.00325793 3.94013e-18)
(-0.262367 0.00397114 -8.42983e-19)
(-0.261373 0.00466269 1.22281e-18)
(-0.26016 0.00532526 2.47151e-19)
(-0.258739 0.00595225 1.6688e-18)
(-0.257122 0.0065377 2.71159e-18)
(-0.255324 0.0070762 8.78261e-19)
(-0.253359 0.00756293 -5.96398e-19)
(-0.251243 0.00799366 9.99472e-20)
(-0.248995 0.00836481 1.13267e-18)
(-0.246634 0.00867356 -2.97377e-19)
(-0.244177 0.00891805 2.02737e-18)
(-0.241646 0.00909728 7.79922e-20)
(-0.239059 0.00921121 2.0543e-20)
(-0.236436 0.00926068 9.3256e-19)
(-0.233796 0.00924741 -2.18337e-20)
(-0.231157 0.00917395 3.78106e-18)
(-0.228535 0.00904357 -5.87559e-19)
(-0.225947 0.00886021 -2.7301e-18)
(-0.223406 0.00862835 -1.17552e-19)
(-0.220926 0.00835294 1.5605e-19)
(-0.218516 0.00803929 3.89461e-18)
(-0.216186 0.00769305 1.52711e-18)
(-0.213943 0.00732005 4.3121e-18)
(-0.211792 0.00692615 1.16835e-18)
(-0.209737 0.00651715 8.35495e-19)
(-0.20778 0.0060987 4.2084e-18)
(-0.205919 0.00567621 -3.96578e-19)
(-0.204155 0.00525476 1.44356e-19)
(-0.202483 0.00483904 3.55138e-19)
(-0.200899 0.00443331 -3.63076e-18)
(-0.199398 0.00404129 -4.80472e-19)
(-0.197974 0.0036662 2.85533e-19)
(-0.196619 0.0033107 6.59213e-19)
(-0.195325 0.00297691 6.14849e-19)
(-0.194086 0.00266648 -8.50043e-19)
(-0.192891 0.00238058 -9.89249e-19)
(-0.191732 0.00212 -1.90462e-18)
(-0.190601 0.00188518 -1.19808e-18)
(-0.189488 0.00167629 1.18591e-19)
(-0.188385 0.00149333 -1.23563e-18)
(-0.187283 0.0013361 1.10519e-19)
(-0.186173 0.00120435 -8.98427e-19)
(-0.185046 0.00109776 5.28655e-19)
(-0.183895 0.00101601 5.0208e-18)
(-0.18271 0.000958887 1.18286e-18)
(-0.181483 0.000926346 5.95722e-18)
(-0.180207 0.000917955 2.14076e-19)
(-0.178874 0.000933658 5.10946e-19)
(-0.177475 0.000973203 3.57507e-18)
(-0.176004 0.00103683 1.83655e-18)
(-0.174451 0.00112484 7.5592e-18)
(-0.172809 0.00123777 1.73094e-18)
(-0.17107 0.00137652 6.7365e-19)
(-0.169224 0.00154225 7.49445e-18)
(-0.167265 0.00173695 4.18642e-18)
(-0.165181 0.00196279 9.96762e-18)
(-0.162965 0.00222237 1.69616e-18)
(-0.160604 0.00251905 2.3284e-18)
(-0.158089 0.00285712 -2.74162e-18)
(-0.155407 0.00324172 -2.53478e-18)
(-0.152546 0.00367919 4.92078e-18)
(-0.149491 0.00417702 8.21672e-18)
(-0.146227 0.00474433 7.8117e-19)
(-0.142739 0.00539213 7.30456e-18)
(-0.139009 0.00613376 2.94269e-18)
(-0.135019 0.00698548 9.35162e-18)
(-0.130749 0.00796735 -4.50808e-18)
(-0.126179 0.00910416 6.95171e-18)
(-0.121288 0.0104272 7.46015e-18)
(-0.116057 0.0119753 9.96554e-18)
(-0.11047 0.0138021 -3.61572e-18)
(-0.104511 0.0159689 6.60003e-18)
(-0.0981928 0.0185663 -6.74457e-18)
(-0.0915164 0.0216993 -1.98874e-18)
(-0.0845874 0.025536 -1.85632e-18)
(-0.0774059 0.0302332 -4.74503e-19)
(-0.0705194 0.036106 -3.68548e-19)
(-0.0634004 0.043365 1.57497e-20)
(-0.0590138 0.0519953 2.92792e-18)
(-0.052603 0.0632433 4.61469e-19)
(-0.0559595 0.0709882 -1.51787e-17)
(-0.0469991 0.0838285 -3.81642e-18)
(-0.0369859 0.0507787 -2.24174e-17)
(-0.265147 -0.000220341 -7.79621e-20)
(-0.265632 -0.000666641 3.93832e-20)
(-0.266368 -0.00125948 -1.68561e-19)
(-0.267459 -0.001744 2.8497e-19)
(-0.268712 -0.00205325 -5.32079e-19)
(-0.270027 -0.00218311 -1.23565e-18)
(-0.271328 -0.00214349 -3.03716e-19)
(-0.272551 -0.00195465 2.27267e-19)
(-0.273646 -0.00164034 2.68427e-20)
(-0.274578 -0.00122345 1.19514e-19)
(-0.275319 -0.000725621 -3.34706e-19)
(-0.275845 -0.000165106 -1.51767e-18)
(-0.276145 0.000437121 -5.07201e-18)
(-0.27621 0.00106825 -1.72049e-18)
(-0.276031 0.00171757 2.21146e-18)
(-0.275608 0.00237372 1.73784e-18)
(-0.274943 0.00302686 1.9144e-18)
(-0.27404 0.00366844 -3.88461e-19)
(-0.272905 0.00429093 2.80968e-18)
(-0.271548 0.00488761 1.93559e-20)
(-0.269979 0.00545247 3.00192e-19)
(-0.26821 0.00598004 5.87817e-18)
(-0.266257 0.00646541 4.10316e-18)
(-0.264134 0.00690419 -1.50193e-18)
(-0.261859 0.0072925 -2.04851e-19)
(-0.25945 0.00762707 1.54942e-18)
(-0.256927 0.00790527 -1.43107e-18)
(-0.254308 0.00812546 3.54888e-18)
(-0.251615 0.00828671 -1.08678e-18)
(-0.248868 0.00838891 -7.46879e-19)
(-0.246086 0.00843276 1.22446e-18)
(-0.243291 0.00841975 -7.57266e-19)
(-0.240499 0.00835209 1.33929e-18)
(-0.23773 0.00823267 -2.93343e-18)
(-0.235 0.00806494 -4.26166e-19)
(-0.232324 0.00785288 -2.03046e-19)
(-0.229715 0.00760089 -2.9415e-19)
(-0.227186 0.00731375 1.80465e-18)
(-0.224746 0.00699662 1.85953e-18)
(-0.222403 0.00665473 2.15826e-18)
(-0.220164 0.0062933 8.071e-19)
(-0.218032 0.00591752 4.90168e-19)
(-0.216011 0.00553249 2.05257e-18)
(-0.214101 0.00514309 -2.65964e-18)
(-0.212301 0.00475393 -4.75038e-19)
(-0.21061 0.00436927 1.0003e-19)
(-0.209022 0.00399298 -1.63705e-18)
(-0.207534 0.00362848 -4.39702e-19)
(-0.206139 0.00327872 1.85206e-19)
(-0.20483 0.00294614 5.22833e-19)
(-0.203601 0.00263273 3.6752e-19)
(-0.202442 0.00234 1.14235e-18)
(-0.201346 0.00206907 -1.46489e-18)
(-0.200305 0.00182068 -3.52157e-19)
(-0.199309 0.00159527 -2.14949e-18)
(-0.198349 0.00139303 -3.2398e-19)
(-0.197416 0.00121394 -3.84121e-18)
(-0.196503 0.00105788 -3.73765e-19)
(-0.1956 0.000924594 -2.60831e-18)
(-0.194698 0.000813796 7.34881e-20)
(-0.193789 0.00072515 1.38447e-18)
(-0.192865 0.000658505 5.32818e-19)
(-0.191917 0.000613838 2.63382e-18)
(-0.190937 0.00059063 -1.91752e-18)
(-0.189918 0.000589477 -2.8206e-19)
(-0.188851 0.000609753 6.44139e-18)
(-0.187728 0.000651311 1.55242e-18)
(-0.186542 0.000714418 3.44601e-18)
(-0.185284 0.000799996 1.18748e-18)
(-0.183946 0.000909098 4.06539e-19)
(-0.182519 0.00104218 3.33124e-18)
(-0.180995 0.00120089 7.08049e-18)
(-0.179364 0.00138758 8.3116e-18)
(-0.177616 0.00160448 1.5591e-18)
(-0.175742 0.00185459 4.9655e-18)
(-0.173728 0.00214179 -6.2602e-18)
(-0.171563 0.00247084 -5.25624e-18)
(-0.169234 0.00284754 1.1257e-17)
(-0.166724 0.00327883 1.77235e-18)
(-0.164017 0.00377317 -3.23838e-21)
(-0.161097 0.0043408 -2.48803e-19)
(-0.157941 0.00499421 4.14103e-18)
(-0.154528 0.00574869 3.00964e-18)
(-0.150834 0.00662323 -1.23215e-17)
(-0.146832 0.00764142 -2.15402e-18)
(-0.142493 0.00883335 -3.5431e-18)
(-0.137786 0.0102365 2.69136e-18)
(-0.132679 0.0119031 -9.43937e-18)
(-0.127135 0.0138946 -2.64721e-18)
(-0.121137 0.0163015 -1.628e-17)
(-0.11464 0.0192325 -2.64207e-18)
(-0.107703 0.0228594 -3.4357e-18)
(-0.100214 0.0273669 -1.10959e-18)
(-0.0926461 0.0330507 8.09349e-20)
(-0.084231 0.0402891 1.34276e-19)
(-0.0776405 0.0488502 6.90637e-18)
(-0.0680495 0.0606084 5.59928e-19)
(-0.0651771 0.068302 -1.23895e-17)
(-0.0500566 0.0803242 -3.80903e-18)
(-0.0252725 0.0465528 -1.04162e-17)
(-0.277882 -0.000154845 -9.44706e-21)
(-0.27823 -0.000509006 -1.4475e-19)
(-0.278821 -0.0010014 -1.90958e-19)
(-0.279732 -0.00141449 1.14606e-19)
(-0.280809 -0.0016871 -1.04852e-18)
(-0.281962 -0.0018079 -4.81387e-19)
(-0.283115 -0.00178141 9.98001e-19)
(-0.284201 -0.00162329 2.94375e-19)
(-0.285171 -0.00135332 -1.36659e-19)
(-0.285984 -0.000991206 -3.18564e-20)
(-0.286611 -0.000556166 -1.58926e-19)
(-0.287027 -6.30032e-05 9.52056e-19)
(-0.287217 0.000465443 -3.03401e-18)
(-0.287171 0.00102305 -1.64914e-18)
(-0.28688 0.00159744 1.89357e-19)
(-0.286342 0.00217847 3.16375e-18)
(-0.285559 0.00275734 7.42223e-19)
(-0.284534 0.00332636 -4.39566e-19)
(-0.283274 0.00387875 5.47333e-19)
(-0.281788 0.00440849 -6.53798e-19)
(-0.280086 0.00491014 -5.88856e-19)
(-0.278181 0.00537882 6.82871e-18)
(-0.276089 0.00581012 2.40289e-18)
(-0.273825 0.00620009 1.88565e-18)
(-0.271406 0.00654529 -2.0446e-20)
(-0.268852 0.00684281 2.96641e-18)
(-0.266182 0.00709028 -3.87681e-18)
(-0.263416 0.0072862 1.43189e-18)
(-0.260576 0.00742969 -3.71655e-18)
(-0.257683 0.00752059 -1.70918e-18)
(-0.254757 0.00755947 2.41611e-18)
(-0.251819 0.0075476 -2.29651e-18)
(-0.248888 0.00748688 -7.96658e-20)
(-0.245983 0.00737981 -1.53604e-18)
(-0.243121 0.00722942 2.28619e-18)
(-0.240319 0.00703919 -2.92013e-19)
(-0.23759 0.00681298 -8.54151e-19)
(-0.234948 0.00655502 9.84893e-19)
(-0.232404 0.00626981 3.09773e-18)
(-0.229965 0.00596194 1.25673e-18)
(-0.22764 0.00563603 4.15888e-19)
(-0.225434 0.00529668 4.75524e-19)
(-0.223348 0.00494841 1.16651e-18)
(-0.221387 0.00459556 -7.75713e-19)
(-0.219548 0.00424227 -6.93424e-19)
(-0.21783 0.00389233 -1.08742e-19)
(-0.216231 0.00354924 -9.58225e-19)
(-0.214745 0.00321608 -1.88266e-19)
(-0.213368 0.00289551 9.45121e-20)
(-0.212092 0.00258977 8.76812e-19)
(-0.21091 0.00230068 3.64765e-19)
(-0.209815 0.00202964 3.71378e-18)
(-0.208798 0.00177768 -3.00676e-18)
(-0.207852 0.00154553 1.12406e-18)
(-0.206966 0.0013336 -4.72873e-18)
(-0.206133 0.00114211 -3.36609e-19)
(-0.205343 0.000971081 -7.97139e-19)
(-0.204589 0.000820435 4.38066e-20)
(-0.20386 0.000689988 2.78846e-18)
(-0.203149 0.000579519 5.94263e-19)
(-0.202446 0.000488751 -1.32714e-18)
(-0.201744 0.000417605 -1.83957e-19)
(-0.201034 0.000366193 1.21927e-18)
(-0.200308 0.0003343 -6.22891e-18)
(-0.199558 0.000320816 -6.72479e-19)
(-0.198776 0.000326033 2.78609e-18)
(-0.197954 0.00035062 1.45323e-18)
(-0.197083 0.000394778 1.72379e-18)
(-0.196155 0.00045834 8.17397e-19)
(-0.195163 0.000541554 2.50468e-19)
(-0.194098 0.000646105 1.81192e-18)
(-0.192949 0.000774133 1.95229e-18)
(-0.191709 0.000926842 -1.49961e-18)
(-0.190367 0.00110627 6.81457e-19)
(-0.188911 0.00131521 1.1002e-17)
(-0.187331 0.00155717 -1.34857e-18)
(-0.185612 0.0018364 3.85989e-18)
(-0.183741 0.00215818 1.15461e-17)
(-0.181701 0.0025288 -5.27171e-18)
(-0.179475 0.00295598 -1.03048e-18)
(-0.177042 0.00344907 -7.95146e-18)
(-0.174379 0.00401953 8.47836e-18)
(-0.171462 0.00468146 -1.09168e-18)
(-0.168261 0.00545238 -1.24385e-17)
(-0.164743 0.00635421 -9.95433e-18)
(-0.160871 0.00741505 -1.63212e-17)
(-0.156603 0.00867007 -1.81472e-18)
(-0.151894 0.0101684 -4.37861e-18)
(-0.146685 0.0119689 -1.19215e-17)
(-0.140931 0.0141585 -1.73481e-17)
(-0.134544 0.0168436 -2.37415e-18)
(-0.127533 0.0201899 -7.64091e-18)
(-0.119679 0.0243959 -1.93531e-18)
(-0.11137 0.0297328 1.5419e-19)
(-0.101617 0.0366944 2.97903e-19)
(-0.0927741 0.0448953 1.45654e-17)
(-0.0800323 0.0565093 1.30776e-18)
(-0.0713494 0.0639477 -1.8417e-17)
(-0.0512304 0.0743357 -4.0687e-18)
(-0.0196575 0.0431097 -8.16736e-18)
(-0.289091 -0.000108307 4.62997e-20)
(-0.289341 -0.000387779 -4.45374e-19)
(-0.289816 -0.000789759 -3.03579e-19)
(-0.290578 -0.00113549 1.60464e-20)
(-0.291505 -0.00136999 -6.21851e-19)
(-0.292516 -0.00147828 2.3664e-19)
(-0.293536 -0.00146114 6.26217e-19)
(-0.2945 -0.00133028 2.92402e-19)
(-0.295357 -0.00110177 -4.45545e-19)
(-0.296064 -0.000792204 -2.34742e-19)
(-0.296589 -0.000418154 1.25032e-19)
(-0.296908 8.19918e-06 -4.2409e-19)
(-0.297002 0.000463857 -3.49116e-18)
(-0.296857 0.000946911 -1.88691e-18)
(-0.296468 0.00144537 -1.07443e-18)
(-0.295829 0.00195025 1.47855e-18)
(-0.294942 0.00245379 -6.74731e-19)
(-0.293811 0.00294918 -9.54414e-19)
(-0.292441 0.00343043 -1.229e-18)
(-0.290841 0.00389219 -1.94217e-18)
(-0.289023 0.00432969 -1.3665e-18)
(-0.286999 0.00473861 6.68323e-18)
(-0.284784 0.00511508 8.73219e-19)
(-0.282395 0.00545561 -2.85451e-19)
(-0.279849 0.00575717 -9.86996e-20)
(-0.277166 0.0060172 -1.05258e-19)
(-0.274366 0.00623362 -3.22762e-18)
(-0.27147 0.00640503 1.27017e-18)
(-0.268499 0.00653063 -3.03581e-18)
(-0.265475 0.00661025 -2.86561e-18)
(-0.262419 0.00664433 -5.52426e-19)
(-0.259353 0.00663394 1.07192e-19)
(-0.256296 0.00658069 -9.63442e-19)
(-0.253268 0.00648671 -1.04332e-18)
(-0.250288 0.00635461 8.74485e-19)
(-0.247371 0.00618737 -1.16612e-18)
(-0.244533 0.00598835 -1.87208e-18)
(-0.241788 0.00576115 1.15584e-18)
(-0.239147 0.00550968 4.13007e-19)
(-0.236619 0.00523793 5.69427e-19)
(-0.234213 0.00494994 1.46525e-19)
(-0.231935 0.00464972 7.52643e-19)
(-0.229788 0.00434122 9.54773e-19)
(-0.227775 0.00402825 3.56705e-19)
(-0.225896 0.00371441 -1.28567e-18)
(-0.224149 0.00340308 -2.5886e-19)
(-0.222533 0.00309732 -9.63056e-19)
(-0.221043 0.00279985 1.23979e-19)
(-0.219673 0.00251305 2.43618e-19)
(-0.218419 0.00223891 1.75492e-18)
(-0.217272 0.00197906 5.5486e-19)
(-0.216225 0.00173476 1.19022e-18)
(-0.215271 0.00150696 1.82235e-19)
(-0.2144 0.00129629 3.84178e-18)
(-0.213604 0.00110318 -3.05694e-18)
(-0.212874 0.000927802 2.63991e-19)
(-0.212202 0.000770213 1.60895e-18)
(-0.211579 0.000630337 6.28476e-19)
(-0.210995 0.000507999 1.55e-18)
(-0.210443 0.000402952 9.24754e-19)
(-0.209914 0.000314822 -5.30959e-18)
(-0.209399 0.000243633 -7.92706e-19)
(-0.208889 0.000189596 4.59386e-19)
(-0.208378 0.000150899 -4.85926e-18)
(-0.207856 0.000131316 -2.78014e-19)
(-0.207315 0.000127994 1.50534e-18)
(-0.206748 0.000139773 1.81629e-18)
(-0.206145 0.000166786 1.29583e-18)
(-0.2055 0.000211329 4.20227e-19)
(-0.204803 0.000275835 2.90976e-19)
(-0.204044 0.000358144 9.21162e-19)
(-0.203216 0.000458691 -1.93255e-18)
(-0.202308 0.0005816 9.71293e-20)
(-0.201311 0.000727957 8.13247e-19)
(-0.200213 0.000899785 1.11213e-17)
(-0.199002 0.0011002 -3.73535e-19)
(-0.197664 0.00133302 1.33886e-18)
(-0.196183 0.00160292 4.63241e-18)
(-0.194544 0.00191553 -3.21555e-18)
(-0.192726 0.00227769 -1.7371e-18)
(-0.190708 0.00269779 -5.30824e-18)
(-0.188464 0.00318608 2.74244e-18)
(-0.185967 0.00375521 -7.28565e-18)
(-0.183183 0.00442101 -3.86025e-18)
(-0.180074 0.00520325 -4.93006e-18)
(-0.176596 0.00612755 -2.12362e-17)
(-0.172696 0.00722599 -4.30507e-18)
(-0.168317 0.00854348 -2.69277e-18)
(-0.163379 0.0101349 -9.16074e-18)
(-0.157816 0.0120806 -9.62528e-18)
(-0.151494 0.014482 -1.26149e-18)
(-0.144383 0.0174922 -1.57608e-17)
(-0.136161 0.021314 -2.20064e-18)
(-0.12713 0.0261789 4.53289e-20)
(-0.11611 0.0326467 -9.65394e-20)
(-0.105135 0.0402284 1.20767e-17)
(-0.0894927 0.0512008 1.59002e-18)
(-0.0756895 0.0582024 -1.74605e-17)
(-0.0514732 0.0669045 -3.40326e-18)
(-0.016835 0.039595 -1.24083e-17)
(-0.298746 -7.53097e-05 1.16956e-19)
(-0.298926 -0.000293043 -5.58233e-19)
(-0.299311 -0.000614727 -5.24366e-19)
(-0.299954 -0.00089747 -6.57089e-20)
(-0.300755 -0.00109358 -5.90701e-19)
(-0.301644 -0.00118706 1.35094e-18)
(-0.30255 -0.00117636 6.02255e-19)
(-0.303408 -0.00106992 3.2786e-19)
(-0.304167 -0.000880501 -1.19868e-18)
(-0.304782 -0.000621729 -5.03208e-19)
(-0.305218 -0.000307603 3.52159e-19)
(-0.305452 5.01686e-05 -2.23941e-18)
(-0.305462 0.00043567 -1.72583e-18)
(-0.305234 0.000844313 -2.69484e-18)
(-0.304759 0.00126643 -2.55271e-18)
(-0.304034 0.00169449 1.04651e-18)
(-0.303058 0.00212183 -3.04397e-18)
(-0.301835 0.0025426 -1.9274e-18)
(-0.30037 0.00295165 -3.67818e-18)
(-0.298673 0.00334438 -4.25985e-18)
(-0.296755 0.00371668 -2.15428e-18)
(-0.294628 0.00406484 1.15995e-17)
(-0.292308 0.00438554 -1.71616e-18)
(-0.289811 0.00467579 -2.69709e-18)
(-0.287155 0.00493297 -1.18798e-19)
(-0.284361 0.00515488 -3.23893e-18)
(-0.281448 0.00533969 -4.65279e-18)
(-0.278438 0.00548617 2.66397e-18)
(-0.275353 0.00559359 -5.014e-18)
(-0.272215 0.00566179 -5.43421e-18)
(-0.269046 0.00569112 -2.89897e-18)
(-0.265868 0.00568244 2.48238e-18)
(-0.2627 0.00563709 -2.60584e-18)
(-0.259565 0.00555685 -9.49678e-19)
(-0.256479 0.00544389 3.56616e-19)
(-0.25346 0.00530072 -3.10434e-18)
(-0.250525 0.00513017 -3.90148e-18)
(-0.247688 0.00493528 2.39157e-18)
(-0.24496 0.00471939 -2.2441e-18)
(-0.242352 0.0044859 1.93435e-19)
(-0.239873 0.00423823 -4.07314e-20)
(-0.237529 0.00397981 1.35581e-18)
(-0.235324 0.003714 1.28252e-18)
(-0.233262 0.00344405 1.52524e-18)
(-0.231343 0.00317302 -2.99905e-18)
(-0.229567 0.00290381 -3.35152e-19)
(-0.227931 0.00263904 -1.62771e-18)
(-0.226432 0.00238106 7.69812e-19)
(-0.225065 0.00213191 5.00731e-19)
(-0.223823 0.00189332 3.86675e-18)
(-0.222701 0.00166668 7.92094e-19)
(-0.221691 0.00145312 -7.8613e-19)
(-0.220784 0.00125346 3.37492e-18)
(-0.219972 0.00106828 9.32012e-18)
(-0.219248 0.00089794 -4.36759e-18)
(-0.218602 0.000742641 1.51615e-18)
(-0.218025 0.000602451 5.52342e-18)
(-0.217508 0.000477344 1.28411e-18)
(-0.217044 0.000367232 9.96599e-19)
(-0.216623 0.000272009 1.35663e-18)
(-0.216236 0.000191476 -1.32097e-17)
(-0.215875 0.000125641 -9.84761e-19)
(-0.215533 7.42521e-05 7.66615e-20)
(-0.215199 4.00166e-05 -7.04041e-18)
(-0.214865 1.53017e-05 9.17462e-19)
(-0.214526 4.28914e-06 1.65106e-18)
(-0.214173 8.07689e-06 3.4193e-18)
(-0.213794 2.70498e-05 1.32461e-18)
(-0.213383 5.94607e-05 5.22533e-19)
(-0.212931 0.000102589 6.5396e-19)
(-0.212431 0.000161796 7.31819e-19)
(-0.211871 0.000241538 5.42205e-18)
(-0.211241 0.000337836 1.92685e-18)
(-0.210533 0.000453647 1.46651e-18)
(-0.209735 0.000591303 5.56116e-18)
(-0.208833 0.000753407 -2.31494e-18)
(-0.207813 0.000943137 1.53321e-19)
(-0.20666 0.00116445 7.57371e-19)
(-0.205355 0.00142216 -4.61264e-18)
(-0.203879 0.00172217 -2.9758e-18)
(-0.202208 0.0020717 -5.86115e-18)
(-0.200316 0.00247962 4.47043e-19)
(-0.19817 0.00295691 -2.0955e-18)
(-0.195735 0.00351736 3.33846e-18)
(-0.192967 0.00417822 -2.12642e-18)
(-0.189817 0.00496195 -2.24873e-17)
(-0.186223 0.00589678 -5.33252e-18)
(-0.182116 0.00702225 -1.80167e-18)
(-0.1774 0.00838741 -1.26619e-17)
(-0.171988 0.0100637 -7.3882e-18)
(-0.165709 0.0121439 2.11835e-18)
(-0.158494 0.0147633 -1.52426e-17)
(-0.149935 0.0181194 -1.58726e-18)
(-0.140254 0.0223968 7.67025e-19)
(-0.12811 0.0281755 1.80185e-17)
(-0.115227 0.034911 1.88139e-17)
(-0.0970399 0.0448392 2.457e-18)
(-0.0788864 0.0512396 -1.0768e-17)
(-0.0512526 0.058467 -2.9181e-18)
(-0.0152686 0.0356118 -7.95101e-18)
(-0.306825 -5.18171e-05 8.61437e-20)
(-0.306956 -0.000217856 -5.85168e-19)
(-0.307273 -0.000468403 -7.24017e-20)
(-0.307821 -0.000692618 -8.07249e-20)
(-0.308522 -0.00085097 8.21961e-19)
(-0.309311 -0.000928328 1.54919e-18)
(-0.310121 -0.00092194 7.54627e-19)
(-0.31089 -0.000837697 3.24737e-19)
(-0.311565 -0.000685412 3.0107e-19)
(-0.312102 -0.000475937 -7.84263e-19)
(-0.312464 -0.000220635 8.39451e-19)
(-0.312626 7.00299e-05 -1.51776e-18)
(-0.312566 0.000385157 -6.68013e-19)
(-0.312267 0.000719266 -2.60964e-19)
(-0.311722 0.00106476 1.50365e-19)
(-0.310924 0.00141549 1.85116e-18)
(-0.309874 0.00176595 -2.3651e-18)
(-0.308575 0.00211131 1.86564e-18)
(-0.307032 0.00244727 -2.52328e-18)
(-0.305254 0.00277004 -2.63187e-18)
(-0.303252 0.00307619 -2.68274e-18)
(-0.301039 0.00336268 1.2622e-17)
(-0.298631 0.00362672 -2.53032e-18)
(-0.296043 0.00386585 -3.19035e-19)
(-0.293296 0.0040779 3.60551e-19)
(-0.290407 0.00426101 -2.68453e-18)
(-0.2874 0.00441365 -2.15216e-18)
(-0.284294 0.00453473 4.80741e-19)
(-0.281113 0.00462364 -5.15754e-18)
(-0.277878 0.00468024 -4.19005e-18)
(-0.274613 0.00470476 3.79527e-19)
(-0.271339 0.00469792 1.04926e-18)
(-0.268078 0.00466077 -5.6976e-19)
(-0.26485 0.00459476 -8.65256e-19)
(-0.261674 0.00450163 8.16194e-20)
(-0.258569 0.00438342 -1.30754e-18)
(-0.25555 0.00424244 -1.8761e-18)
(-0.252633 0.00408117 1.03311e-19)
(-0.24983 0.00390241 -7.799e-19)
(-0.247152 0.00370893 2.88785e-19)
(-0.244608 0.00350357 -2.12196e-19)
(-0.242206 0.00328913 3.02475e-18)
(-0.23995 0.00306837 2.16043e-18)
(-0.237844 0.00284397 3.37534e-18)
(-0.235889 0.00261845 -6.69629e-19)
(-0.234084 0.0023942 -5.18827e-20)
(-0.232429 0.00217339 -3.32653e-18)
(-0.230918 0.00195796 2.20697e-18)
(-0.229549 0.00174962 1.04913e-18)
(-0.228315 0.00154979 1.52576e-18)
(-0.227209 0.00135966 8.33249e-19)
(-0.226225 0.00118015 -3.39238e-18)
(-0.225354 0.00101196 1.98414e-18)
(-0.224588 0.000855587 5.13452e-18)
(-0.223919 0.000711334 -2.98183e-18)
(-0.223338 0.000579373 4.86649e-18)
(-0.222836 0.000459765 4.45902e-18)
(-0.222405 0.000352486 1.50632e-18)
(-0.222036 0.00025744 1.09429e-18)
(-0.221719 0.000174443 2.23212e-18)
(-0.221447 0.000103043 -1.19988e-17)
(-0.221211 4.37775e-05 8.26762e-19)
(-0.221001 -3.789e-07 -4.05667e-19)
(-0.220812 -3.52304e-05 -4.01058e-18)
(-0.220636 -6.26313e-05 4.31415e-18)
(-0.220459 -7.73423e-05 2.81648e-18)
(-0.220277 -7.87016e-05 6.91064e-18)
(-0.220081 -6.68171e-05 1.45996e-18)
(-0.219864 -4.36171e-05 5.08548e-19)
(-0.219614 -1.0531e-05 1.57832e-18)
(-0.219322 3.5745e-05 7.39256e-19)
(-0.21898 8.91471e-05 3.65845e-18)
(-0.218579 0.000163478 4.07553e-18)
(-0.218107 0.000254385 2.91268e-18)
(-0.217552 0.000362698 3.44827e-18)
(-0.216903 0.000490747 -6.72269e-18)
(-0.216143 0.000641286 -7.04167e-19)
(-0.215257 0.000817645 -2.18027e-18)
(-0.214227 0.00102383 -9.49767e-18)
(-0.21303 0.00126475 -5.19792e-18)
(-0.211643 0.0015464 -1.02131e-17)
(-0.210037 0.00187618 -4.38571e-19)
(-0.208179 0.00226321 8.81161e-19)
(-0.206029 0.00271902 -4.24559e-18)
(-0.20354 0.00325803 -1.59842e-18)
(-0.200658 0.00389906 -2.1773e-17)
(-0.197314 0.00466588 -5.91473e-18)
(-0.193429 0.00559168 -1.70831e-18)
(-0.188895 0.00671824 -6.43327e-18)
(-0.183605 0.00810595 -7.84353e-18)
(-0.177357 0.00983541 7.9056e-18)
(-0.170053 0.0120198 -6.58827e-18)
(-0.161209 0.0148409 1.09205e-19)
(-0.150978 0.018436 1.76766e-18)
(-0.137891 0.0233642 2.77564e-17)
(-0.123389 0.0290713 1.66388e-17)
(-0.103062 0.0376311 1.84546e-18)
(-0.0813262 0.0432487 -1.28192e-17)
(-0.0507987 0.0492182 -2.56215e-18)
(-0.0142424 0.0310358 -1.04793e-17)
(-0.313309 -3.48577e-05 9.40488e-20)
(-0.313407 -0.000156903 -4.97645e-19)
(-0.313675 -0.000343986 4.90518e-19)
(-0.314151 -0.000513833 -6.82157e-20)
(-0.314773 -0.000635509 1.23236e-18)
(-0.315483 -0.000696085 5.09443e-19)
(-0.316217 -0.000692519 1.00351e-18)
(-0.316915 -0.000628732 3.10577e-19)
(-0.317523 -0.000511917 1.85502e-18)
(-0.317996 -0.000350271 -1.61222e-18)
(-0.318299 -0.000152404 1.9989e-18)
(-0.318403 7.25571e-05 -2.17141e-18)
(-0.318287 0.000316748 2.54732e-19)
(-0.317931 0.000576073 2.14128e-18)
(-0.317329 0.000844651 3.19886e-18)
(-0.316473 0.00111763 3.61106e-18)
(-0.315364 0.00139067 1.82973e-18)
(-0.314004 0.00165995 1.73007e-18)
(-0.312398 0.00192211 2.13467e-18)
(-0.310556 0.00217414 -2.33329e-18)
(-0.308487 0.00241336 -3.44203e-18)
(-0.306205 0.00263735 1.05171e-17)
(-0.303725 0.00284396 -1.99953e-18)
(-0.301065 0.00303122 2.42416e-18)
(-0.298244 0.00319743 9.12004e-19)
(-0.29528 0.00334113 -4.19183e-18)
(-0.292196 0.00346104 -3.5674e-19)
(-0.289013 0.00355624 -1.13201e-18)
(-0.285753 0.00362628 -3.08497e-18)
(-0.282441 0.003671 -4.72434e-18)
(-0.279097 0.0036906 -1.12447e-18)
(-0.275746 0.00368559 3.0946e-19)
(-0.272408 0.0036568 8.03286e-19)
(-0.269104 0.00360533 -1.3093e-18)
(-0.265855 0.00353252 -2.6986e-20)
(-0.262678 0.00343994 -5.00632e-19)
(-0.259591 0.00332938 -7.86345e-19)
(-0.256608 0.00320273 -1.74397e-18)
(-0.253743 0.00306224 1.30651e-19)
(-0.251007 0.00291013 7.12442e-19)
(-0.24841 0.00274859 -5.52159e-19)
(-0.24596 0.00257982 7.01546e-19)
(-0.24366 0.00240596 3.98305e-18)
(-0.241517 0.00222911 7.69739e-19)
(-0.23953 0.00205126 2.69192e-19)
(-0.2377 0.00187426 3.05655e-19)
(-0.236026 0.00169984 -7.32839e-18)
(-0.234505 0.00152952 -5.74537e-19)
(-0.233131 0.00136465 1.99287e-18)
(-0.2319 0.00120637 -1.28037e-19)
(-0.230805 0.00105561 1.04169e-18)
(-0.229839 0.000913132 -8.71004e-18)
(-0.228994 0.000779489 2.97685e-18)
(-0.228263 0.000655087 3.88441e-18)
(-0.227635 0.000540191 -4.68772e-18)
(-0.227104 0.000434959 4.34406e-18)
(-0.22666 0.000339466 5.98288e-18)
(-0.226294 0.000253737 1.96287e-18)
(-0.225998 0.000177777 1.8439e-18)
(-0.225763 0.000111594 3.86567e-18)
(-0.225581 5.51007e-05 -1.07096e-17)
(-0.225441 9.35399e-06 -3.30921e-18)
(-0.225337 -3.43886e-05 -9.80536e-19)
(-0.225261 -7.11076e-05 -3.74773e-18)
(-0.225203 -9.43624e-05 1.32582e-18)
(-0.225155 -0.000107994 5.39718e-18)
(-0.225108 -0.000112765 3.61148e-18)
(-0.225055 -0.000108282 1.14268e-18)
(-0.224986 -9.23917e-05 5.63155e-19)
(-0.224893 -6.33832e-05 3.57173e-18)
(-0.22477 -2.43637e-05 7.97221e-19)
(-0.224601 2.25728e-05 4.70686e-18)
(-0.224376 7.32468e-05 8.88643e-18)
(-0.22409 0.000138225 5.82914e-18)
(-0.223728 0.000217484 3.17019e-18)
(-0.223278 0.000312457 -3.05037e-18)
(-0.222723 0.000425119 -4.47387e-19)
(-0.222048 0.000557963 -6.90695e-18)
(-0.221233 0.000714068 -5.57777e-18)
(-0.220257 0.000897243 -9.14306e-18)
(-0.219094 0.00111217 -2.08186e-17)
(-0.217714 0.00136465 5.07385e-21)
(-0.216082 0.00166185 4.13422e-18)
(-0.214158 0.00201283 2.47018e-18)
(-0.21189 0.00242897 -1.8174e-18)
(-0.20922 0.00292514 -1.85884e-17)
(-0.206074 0.00352016 -6.05226e-18)
(-0.202367 0.00424028 -1.72158e-18)
(-0.197976 0.00511895 -4.75053e-18)
(-0.192786 0.00620398 -1.26227e-17)
(-0.186565 0.00756126 1.87364e-18)
(-0.179194 0.00927885 -4.76823e-18)
(-0.170127 0.0115137 3.27254e-18)
(-0.159463 0.0143577 3.23232e-18)
(-0.145631 0.0183077 1.77801e-17)
(-0.129832 0.0228492 2.09927e-17)
(-0.107791 0.0297814 1.33459e-18)
(-0.0832154 0.0344311 -5.334e-18)
(-0.050249 0.0392634 -1.44654e-18)
(-0.0134483 0.0257562 -4.31646e-18)
(-0.318186 -2.22761e-05 1.51639e-19)
(-0.318262 -0.000105917 -2.01211e-19)
(-0.318495 -0.000235516 6.08711e-19)
(-0.31892 -0.000354469 -1.66993e-19)
(-0.319485 -0.000440626 8.40557e-19)
(-0.320136 -0.000484176 -4.32643e-19)
(-0.320813 -0.000482476 1.79965e-18)
(-0.321457 -0.000437974 5.3443e-19)
(-0.322014 -0.000355578 1.28335e-18)
(-0.32244 -0.000241063 -2.90945e-19)
(-0.322698 -0.000100536 8.56993e-19)
(-0.322759 5.9292e-05 -5.34497e-19)
(-0.3226 0.000233504 2.13163e-18)
(-0.322202 0.000418614 1.24797e-18)
(-0.321557 0.000610433 3.09943e-18)
(-0.320658 0.000805534 1.89852e-18)
(-0.319505 0.00100082 8.37678e-19)
(-0.318099 0.00119355 2.37607e-18)
(-0.316447 0.00138131 1.71486e-18)
(-0.314555 0.00156193 -4.51787e-18)
(-0.312436 0.0017335 -5.31817e-18)
(-0.310103 0.00189428 4.13461e-18)
(-0.30757 0.00204272 8.28107e-19)
(-0.304855 0.00217742 1.15325e-18)
(-0.301978 0.00229717 1.2266e-18)
(-0.298957 0.00240094 -2.59294e-18)
(-0.295815 0.00248769 -4.07834e-18)
(-0.292573 0.00255661 -3.67963e-18)
(-0.289255 0.0026074 -3.0913e-18)
(-0.285882 0.00263996 -1.5378e-18)
(-0.28248 0.00265443 -2.31831e-18)
(-0.279069 0.00265119 6.99097e-20)
(-0.275673 0.00263081 -3.6471e-18)
(-0.272312 0.00259406 -2.86827e-18)
(-0.269007 0.00254188 1.98245e-19)
(-0.265775 0.00247538 -4.99147e-20)
(-0.262635 0.00239578 -2.6872e-19)
(-0.259602 0.00230438 -4.52009e-18)
(-0.256689 0.00220302 -4.50052e-18)
(-0.253909 0.00209331 1.40984e-18)
(-0.25127 0.00197679 -1.26333e-18)
(-0.248782 0.00185502 -8.64644e-19)
(-0.246449 0.00172953 2.16523e-18)
(-0.244275 0.0016018 -2.0276e-18)
(-0.242263 0.00147326 1.19433e-18)
(-0.240414 0.00134525 5.58301e-19)
(-0.238724 0.00121898 -3.31408e-18)
(-0.237192 0.00109556 -2.07155e-18)
(-0.235814 0.000975953 -2.5982e-18)
(-0.234584 0.000860992 -2.16668e-18)
(-0.233496 0.00075135 1.85974e-18)
(-0.232542 0.000647569 -5.93526e-18)
(-0.231715 0.000550058 9.35365e-19)
(-0.231007 0.000459112 -3.00708e-18)
(-0.23041 0.000374928 -2.56145e-18)
(-0.229914 0.00029762 5.59547e-20)
(-0.229511 0.000227251 2.33395e-18)
(-0.229192 0.000163842 2.76219e-18)
(-0.228949 0.000107405 3.66409e-18)
(-0.228773 5.78812e-05 -1.29119e-18)
(-0.228655 1.51838e-05 -8.73094e-18)
(-0.228589 -1.96559e-05 -7.61887e-18)
(-0.228564 -5.43227e-05 -1.40011e-18)
(-0.22857 -7.92601e-05 -6.2085e-18)
(-0.2286 -9.81572e-05 -1.24402e-19)
(-0.228646 -0.000110475 1.09077e-18)
(-0.228699 -0.000115626 1.66933e-18)
(-0.228751 -0.000113708 6.54676e-19)
(-0.228794 -0.000105207 9.9309e-19)
(-0.228817 -9.02921e-05 8.03081e-18)
(-0.228812 -6.67724e-05 2.48573e-19)
(-0.228773 -3.07815e-05 8.90255e-18)
(-0.228686 3.4737e-06 6.1595e-18)
(-0.228536 4.73892e-05 1.09725e-17)
(-0.228317 0.000102024 3.76606e-18)
(-0.228013 0.000167785 -1.94735e-18)
(-0.22761 0.000246093 -8.04637e-19)
(-0.227091 0.000338774 -1.72022e-18)
(-0.226437 0.000448039 -3.95105e-18)
(-0.225624 0.000576622 -3.34435e-18)
(-0.224627 0.000727886 -1.21635e-17)
(-0.223415 0.000905994 4.9395e-18)
(-0.221952 0.00111611 1.06812e-17)
(-0.220195 0.00136473 1.04145e-17)
(-0.218092 0.00166006 -3.56031e-18)
(-0.215581 0.0020128 -2.81332e-17)
(-0.212584 0.00243653 -6.44587e-18)
(-0.209011 0.00295012 -1.98163e-18)
(-0.204731 0.00357793 -6.20332e-18)
(-0.199618 0.00435423 -6.47176e-18)
(-0.193423 0.0053281 1.2663e-19)
(-0.186008 0.00656122 -6.69025e-18)
(-0.176783 0.00817768 9.20755e-18)
(-0.165806 0.0102269 6.09628e-18)
(-0.15143 0.0131031 2.06438e-17)
(-0.13467 0.0163858 1.80436e-17)
(-0.111347 0.0214872 -1.63603e-18)
(-0.0846501 0.024993 -2.7979e-18)
(-0.0497067 0.0286763 -4.66809e-19)
(-0.0127852 0.0196906 -2.19633e-18)
(-0.321443 -1.23628e-05 1.61284e-19)
(-0.321506 -6.12168e-05 -3.55609e-20)
(-0.321717 -0.000137497 2.61939e-19)
(-0.322109 -0.000208016 -4.78437e-19)
(-0.322637 -0.000259434 1.04193e-18)
(-0.32325 -0.000285626 3.1858e-19)
(-0.323889 -0.000284804 1.44008e-18)
(-0.324497 -0.000258279 7.56546e-19)
(-0.32502 -0.000208878 1.42016e-18)
(-0.325415 -0.000139991 5.37405e-19)
(-0.325642 -5.51933e-05 3.3357e-19)
(-0.325675 4.04814e-05 7.03259e-19)
(-0.325487 0.000143921 1.08025e-18)
(-0.325061 0.000254087 9.45399e-19)
(-0.324388 0.000368482 -3.13383e-19)
(-0.323461 0.000485022 6.2374e-19)
(-0.322278 0.000601841 2.2828e-19)
(-0.320842 0.000717287 4.54878e-18)
(-0.319158 0.000829906 1.53317e-18)
(-0.317234 0.000938406 -4.6342e-18)
(-0.315082 0.00104163 -3.37001e-18)
(-0.312714 0.00113854 2.21136e-18)
(-0.310145 0.0012282 3.22413e-18)
(-0.307394 0.00130979 5.93389e-19)