/*--------------------------------*- C++ -*----------------------------------*\
  =========                 |
  \\      /  F ield         | OpenFOAM: The Open Source CFD Toolbox
   \\    /   O peration     | Website:  https://openfoam.org
    \\  /    A nd           | Version:  7
     \\/     M anipulation  |
\*---------------------------------------------------------------------------*/
FoamFile
{
    version     2.0;
    format      ascii;
    class       volVectorField;
    location    "5";
    object      U;
}
// * * * * * * * * * * * * * * * * * * * * * * * * * * * * * * * * * * * * * //

dimensions      [0 1 -1 0 0 0 0];

internalField   nonuniform List<vector> 
75
(
(0.952649 0.00460679 -1.26437e-19)
(1.03333 -0.00322231 5.15106e-18)
(0.952674 0.014007 5.38915e-18)
(1.006 0.00798378 1.32805e-17)
(0.909038 0.0543944 -1.8437e-17)
(1.02136 0.00479615 -7.30684e-19)
(0.966313 -0.00482331 5.82283e-20)
(1.03759 0.00187859 3.66697e-19)
(0.954282 0.00561448 1.14482e-19)
(1.03348 -0.0039665 6.88304e-19)
(0.953383 0.0169644 -7.81352e-19)
(1.00841 0.0105413 8.63727e-18)
(1.01725 0.00583765 -4.5119e-19)
(0.974146 -0.00564509 -3.20693e-20)
(1.02922 0.0017192 1.86344e-19)
(0.965439 0.00846693 -2.53909e-19)
(1.02305 -0.00660185 1.48902e-18)
(0.96969 0.0239936 -2.85005e-18)
(0.993567 0.0110795 3.13973e-18)
(1.01238 0.00636153 -6.11395e-20)
(0.983498 -0.00598166 1.72535e-19)
(1.01864 0.0013717 4.78181e-19)
(0.978718 0.0110618 -1.40516e-18)
(1.01193 -0.00945378 7.65667e-18)
(0.983747 0.0306382 -3.32097e-17)
(0.988333 0.00888042 2.29477e-17)
(1.00786 0.00618841 1.70398e-19)
(0.991946 -0.00536085 -1.9676e-19)
(1.00901 0.000323734 5.91118e-19)
(0.990321 0.013655 -1.80974e-18)
(1.0036 -0.0119178 8.77852e-18)
(0.993818 0.0352483 -3.57982e-17)
(0.989186 0.00797668 2.13175e-17)
(1.00428 0.00557896 6.57596e-20)
(0.998264 -0.00422789 -5.1391e-21)
(1.00192 -0.000896346 9.03133e-19)
(0.998641 0.0158556 -1.76674e-18)
(0.999131 -0.0140665 8.5332e-18)
(0.999493 0.0388215 -3.48594e-17)
(0.994719 0.00554593 1.81243e-17)
(1.00175 0.00462868 7.6307e-20)
(1.00233 -0.00265893 1.96864e-19)
(0.997552 -0.00237742 4.94927e-19)
(1.00398 0.0174238 -1.53325e-18)
(0.99724 -0.0155039 8.52169e-18)
(1.00329 0.0402164 -3.41979e-17)
(1.00147 0.00362011 1.61459e-17)
(1.00016 0.00369896 2.21859e-19)
(1.00445 -0.00121334 -1.02423e-19)
(0.995459 -0.00374736 2.74319e-19)
(1.00693 0.0187138 -1.49355e-18)
(0.997062 -0.0167632 7.72439e-18)
(1.00592 0.0406731 -3.18637e-17)
(1.00769 0.001559 1.37046e-17)
(0.999143 0.00252919 1.68924e-19)
(1.00522 0.000482316 1.31197e-19)
(0.99512 -0.00542368 -1.65209e-19)
(1.00811 0.0195299 -1.57769e-19)
(0.997778 -0.0179981 2.64325e-18)
(1.00868 0.0394052 -6.59734e-18)
(1.01321 -0.000928009 5.54795e-18)
(0.998634 0.0019306 2.35758e-19)
(1.0052 0.00142935 -2.7543e-19)
(0.995575 -0.00642573 1.68736e-19)
(1.00825 0.0201581 -1.30418e-18)
(0.998956 -0.0189539 7.48324e-18)
(1.01074 0.0386646 -2.83238e-17)
(1.01682 -0.00238413 1.19735e-17)
(0.99803 0.000753415 1.05181e-19)
(1.005 0.00287469 7.66126e-20)
(0.996432 -0.00844293 1.75802e-19)
(1.00795 0.0207738 -2.12277e-18)
(1.00038 -0.0213346 7.23892e-18)
(1.01289 0.034934 -3.03555e-17)
(1.02079 -0.00605082 9.56523e-18)
)
;

boundaryField
{
    inlet
    {
        type            uniformFixedValue;
        uniformValue    constant (1 0 0);
        value           uniform (1 0 0);
    }
    outlet
    {
        type            pressureInletOutletVelocity;
        value           nonuniform 0();
    }
    polygon
    {
        type            fixedValue;
        value           nonuniform 0();
    }
    top
    {
        type            symmetryPlane;
    }
    bottom
    {
        type            symmetryPlane;
    }
    outside
    {
        type            zeroGradient;
    }
    procBoundary12to8
    {
        type            processor;
        value           nonuniform List<vector> 9((0.952379 0.00424241 -9.6023e-20) (1.03295 -0.00302714 8.26058e-18) (0.95301 0.0126782 9.54219e-18) (1.0044 0.00666147 1.69993e-17) (0.909509 0.0498604 -1.99132e-17) (1.0229 0.00376805 -5.74408e-18) (0.963823 -0.00372593 2.88424e-18) (1.03923 0.00137554 4.37864e-18) (1.03923 0.00137554 4.37864e-18));
    }
    procBoundary12to9
    {
        type            processor;
        value           nonuniform List<vector> 7((0.913805 0.0637132 1.02081e-17) (0.915504 0.0625207 -3.29216e-17) (0.915504 0.0625207 -3.29216e-17) (0.956231 0.0748806 -3.3269e-18) (0.977227 0.0857898 3.40612e-17) (0.992486 0.0854988 3.73879e-17) (1.0022 0.0856179 3.61681e-17));
    }
    procBoundary12to13
    {
        type            processor;
        value           nonuniform List<vector> 5((1.01035 0.0803712 3.3827e-17) (1.01744 0.0751309 2.93993e-17) (1.02314 0.0659467 -1.27979e-17) (1.02779 0.0617751 2.03458e-17) (1.03168 0.047613 2.29523e-17));
    }
}


// ************************************************************************* //
