/*--------------------------------*- C++ -*----------------------------------*\
  =========                 |
  \\      /  F ield         | OpenFOAM: The Open Source CFD Toolbox
   \\    /   O peration     | Website:  https://openfoam.org
    \\  /    A nd           | Version:  7
     \\/     M anipulation  |
\*---------------------------------------------------------------------------*/
FoamFile
{
    version     2.0;
    format      ascii;
    class       volVectorField;
    location    "64";
    object      U;
}
// * * * * * * * * * * * * * * * * * * * * * * * * * * * * * * * * * * * * * //

dimensions      [0 1 -1 0 0 0 0];

internalField   nonuniform List<vector> 
4000
(
(1.25701 0.222118 7.1323e-18)
(1.25267 0.240257 2.64877e-18)
(1.24534 0.247968 1.0671e-19)
(1.23966 0.262065 -2.95602e-18)
(1.23317 0.2735 1.32203e-18)
(1.22776 0.2876 2.4884e-18)
(1.22192 0.301462 1.10806e-17)
(1.21663 0.317217 6.47711e-18)
(1.2111 0.334354 1.01258e-17)
(1.20613 0.352776 1.72169e-17)
(1.20046 0.374919 9.9907e-18)
(1.19611 0.397735 9.59668e-18)
(1.18972 0.429169 -2.21928e-18)
(1.18842 0.459873 7.40739e-18)
(1.18193 0.505421 1.03502e-17)
(1.18765 0.536462 1.61105e-17)
(1.14821 0.551113 6.1585e-18)
(1.06559 0.472771 5.46513e-18)
(0.717389 0.246714 -6.62663e-19)
(0.397523 0.00318082 3.16538e-18)
(1.26429 0.22713 5.64838e-18)
(1.25975 0.245063 1.91106e-18)
(1.25274 0.253104 7.37231e-19)
(1.24731 0.267329 3.1406e-18)
(1.24119 0.279076 1.4073e-18)
(1.23611 0.293524 3.74934e-18)
(1.23069 0.307908 9.63873e-18)
(1.22591 0.324312 5.98472e-18)
(1.22119 0.342224 1.05837e-17)
(1.2172 0.361991 1.34484e-17)
(1.21324 0.385491 1.03225e-17)
(1.21113 0.410967 4.99614e-18)
(1.20964 0.444167 1.36219e-18)
(1.21268 0.477296 1.07425e-17)
(1.20442 0.513391 1.02963e-17)
(1.16844 0.516648 1.11502e-17)
(1.03312 0.476091 4.92541e-18)
(0.755718 0.340805 -4.18392e-18)
(0.335877 0.226974 -3.53704e-17)
(-0.0932915 0.0981547 -2.87244e-18)
(1.27103 0.231896 4.4094e-18)
(1.26624 0.2497 1.40924e-18)
(1.25952 0.257947 4.85754e-19)
(1.25426 0.272303 2.51553e-18)
(1.24859 0.284362 1.46109e-18)
(1.244 0.299207 3.86425e-18)
(1.23943 0.314144 7.08834e-18)
(1.23576 0.331172 6.08399e-18)
(1.23242 0.349714 1.05509e-17)
(1.23002 0.370392 1.17818e-17)
(1.2283 0.394558 1.07903e-17)
(1.22911 0.421048 3.93075e-18)
(1.22997 0.452044 2.88856e-18)
(1.22536 0.475583 6.34991e-18)
(1.18444 0.481234 5.46611e-19)
(1.06891 0.43172 5.43181e-18)
(0.819247 0.322611 -1.36717e-17)
(0.460703 0.158978 -3.58854e-17)
(0.0619028 0.0134001 -1.9733e-17)
(-0.00566867 -0.027372 -1.22968e-17)
(1.27745 0.23643 3.54094e-18)
(1.27254 0.254139 1.29558e-18)
(1.26613 0.262496 1.39283e-18)
(1.2611 0.276931 2.3032e-18)
(1.25586 0.289153 1.72075e-18)
(1.25168 0.304149 4.39111e-18)
(1.24761 0.319246 9.26759e-18)
(1.24441 0.336508 5.50114e-18)
(1.2417 0.35544 9.23867e-18)
(1.24067 0.37688 8.76725e-18)
(1.24154 0.401458 5.31135e-18)
(1.24415 0.426937 -8.00908e-19)
(1.23975 0.450209 1.83357e-18)
(1.20898 0.4547 7.39044e-18)
(1.10852 0.425028 8.77422e-20)
(0.898993 0.336205 4.12754e-20)
(0.565527 0.212534 -1.89774e-17)
(0.191449 0.0795287 -2.224e-17)
(-0.0384796 0.081604 -4.70861e-17)
(-0.0934388 0.0640593 -1.15941e-17)
(1.28364 0.240706 2.73809e-18)
(1.27875 0.258308 8.57796e-19)
(1.2727 0.266707 -5.64999e-19)
(1.26798 0.28121 1.53214e-18)
(1.26326 0.293601 1.71723e-18)
(1.25973 0.308887 5.05802e-18)
(1.25668 0.324468 7.54249e-18)
(1.25501 0.342387 5.1731e-18)
(1.25456 0.361779 8.81901e-18)
(1.25602 0.383026 7.26774e-18)
(1.25795 0.405524 5.3464e-18)
(1.25562 0.425253 6.84827e-18)
(1.23175 0.434314 1.05713e-17)
(1.15532 0.413802 -1.98135e-18)
(0.980541 0.350739 -5.50567e-18)
(0.689655 0.237583 -6.25904e-18)
(0.327353 0.118628 -1.45962e-17)
(0.0457778 0.0550198 -7.86827e-18)
(-0.0979266 0.0550685 -1.0695e-17)
(-0.0314733 0.0229943 -3.14588e-17)
(1.28963 0.244737 2.35808e-18)
(1.28482 0.262221 6.42157e-19)
(1.27914 0.270623 4.53393e-19)
(1.27476 0.285147 2.74637e-18)
(1.27053 0.297557 2.78117e-18)
(1.2675 0.312804 3.83584e-18)
(1.26488 0.328144 6.56466e-18)
(1.2635 0.345508 5.00068e-18)
(1.26319 0.364028 6.00754e-18)
(1.26421 0.384119 4.36475e-18)
(1.26321 0.403683 3.17641e-18)
(1.24927 0.415376 -5.48953e-18)
(1.19485 0.406717 -4.19704e-18)
(1.06131 0.361052 4.4799e-18)
(0.813877 0.274861 6.55145e-18)
(0.475836 0.160679 2.40628e-17)
(0.153412 0.0890846 1.51065e-17)
(-0.0508788 0.0708196 -3.60041e-18)
(-0.0980638 0.0908625 4.26537e-18)
(-0.0529647 0.0495236 -4.14773e-18)
(1.29538 0.248505 2.17585e-18)
(1.29072 0.265814 5.8281e-19)
(1.2854 0.274143 9.10514e-19)
(1.28143 0.288645 2.0156e-18)
(1.27774 0.301082 2.56502e-18)
(1.27542 0.316509 3.85011e-18)
(1.27396 0.332217 5.28977e-18)
(1.2745 0.350127 3.28057e-18)
(1.27673 0.368902 7.589e-18)
(1.27885 0.387346 5.98777e-18)
(1.27178 0.400078 -2.07055e-18)
(1.23545 0.39732 2.65638e-18)
(1.13542 0.367539 1.05012e-17)
(0.937375 0.301201 -2.16362e-18)
(0.633004 0.205441 -1.13814e-17)
(0.295308 0.112509 1.69217e-17)
(0.0393246 0.0824131 -2.27797e-18)
(-0.0816463 0.0893301 -2.39391e-17)
(-0.105865 0.0926235 2.41158e-17)
(-0.0349049 0.0380611 2.81145e-18)
(1.30089 0.25205 1.01407e-18)
(1.2964 0.269189 5.12215e-19)
(1.29144 0.277467 1.88436e-19)
(1.28789 0.291945 2.90583e-18)
(1.2847 0.304294 2.63939e-18)
(1.28291 0.319473 3.21789e-18)
(1.28192 0.334421 4.42157e-18)
(1.28221 0.350643 5.15242e-18)
(1.28197 0.366157 6.07528e-18)
(1.27645 0.379042 5.561e-19)
(1.25217 0.383014 -3.25156e-18)
(1.18435 0.36794 -4.29554e-18)
(1.0373 0.322672 -1.89775e-18)
(0.786055 0.243754 -5.05424e-18)
(0.456914 0.152471 -2.54494e-18)
(0.158368 0.0936012 1.63373e-17)
(-0.0262002 0.0952089 -2.73903e-19)
(-0.108955 0.10308 -7.19781e-18)
(-0.10163 0.102003 1.01877e-18)
(-0.0439578 0.0442276 -1.77019e-18)
(1.30614 0.255323 2.58744e-18)
(1.3019 0.272189 2.80382e-19)
(1.29733 0.280261 2.52681e-18)
(1.29424 0.294585 2.72652e-19)
(1.29156 0.306796 1.63292e-18)
(1.29044 0.321892 3.7771e-18)
(1.29037 0.336922 4.72393e-18)
(1.2918 0.353459 3.60343e-19)
(1.29212 0.368989 2.92355e-18)
(1.28313 0.379469 5.39945e-18)
(1.24429 0.374532 -1.61831e-18)
(1.14289 0.341789 1.32781e-17)
(0.944503 0.276152 2.06945e-17)
(0.647101 0.189378 1.28062e-17)
(0.318119 0.116401 4.75708e-18)
(0.0692165 0.0888117 3.66148e-17)
(-0.0690389 0.096887 2.05802e-17)
(-0.116964 0.100949 -2.18201e-17)
(-0.103781 0.0954676 -6.25002e-18)
(-0.0411058 0.0396873 -4.5714e-19)
(1.31117 0.2584 3.26584e-18)
(1.30718 0.275063 1.15705e-18)
(1.30289 0.283115 1.5715e-19)
(1.30029 0.297443 1.85438e-18)
(1.29803 0.30952 4.09347e-18)
(1.2975 0.324219 2.26131e-18)
(1.29756 0.338053 5.00707e-18)
(1.2973 0.351593 2.30769e-18)
(1.2903 0.360404 9.63245e-18)
(1.26213 0.358316 3.83001e-18)
(1.18651 0.33544 3.25803e-18)
(1.03325 0.286416 1.07905e-17)
(0.785109 0.216462 -3.2577e-18)
(0.472053 0.14403 1.00559e-17)
(0.18112 0.097578 2.33412e-18)
(-0.00787126 0.0849004 8.07769e-18)
(-0.0993268 0.0889915 -8.63086e-19)
(-0.121787 0.0879893 -4.08429e-18)
(-0.0954976 0.0836522 -1.10129e-17)
(-0.0375565 0.0366083 -2.2484e-18)
(1.18039 0.169294 2.46318e-17)
(1.17034 0.193399 9.34666e-18)
(1.1597 0.201993 -4.20112e-18)
(1.14592 0.220493 -2.06029e-17)
(1.13323 0.233873 -1.12655e-17)
(1.11713 0.250815 4.45823e-17)
(1.10103 0.266794 1.39425e-17)
(1.08138 0.284395 4.52031e-17)
(1.05961 0.302285 2.21842e-18)
(1.03328 0.320972 7.53676e-18)
(1.00259 0.340057 2.63137e-17)
(0.965041 0.358977 -2.71796e-17)
(0.920769 0.377705 -5.96299e-17)
(0.866131 0.39467 -4.94519e-18)
(0.805478 0.40951 5.2532e-17)
(0.728936 0.418206 1.29779e-16)
(0.653258 0.426841 1.69181e-16)
(0.547621 0.412984 1.05244e-16)
(0.431203 0.39803 1.23134e-17)
(0.192137 0.196029 2.15175e-17)
(1.18809 0.174796 2.17963e-17)
(1.17862 0.198671 8.11086e-18)
(1.16828 0.207326 -1.03446e-18)
(1.15535 0.225766 -1.86796e-17)
(1.14337 0.239251 -1.02355e-17)
(1.12842 0.256446 1.77053e-17)
(1.11353 0.272684 1.43453e-17)
(1.09552 0.290932 1.43487e-17)
(1.07576 0.309673 2.43562e-17)
(1.05195 0.329655 3.45992e-17)
(1.0244 0.350638 -4.86078e-18)
(0.990471 0.371927 -1.83434e-17)
(0.950672 0.394047 -2.03074e-18)
(0.90139 0.41434 8.84261e-21)
(0.846862 0.435721 -3.78847e-18)
(0.778316 0.448262 9.96105e-17)
(0.708418 0.469447 1.20773e-16)
(0.618472 0.457779 1.65185e-17)
(0.495326 0.450912 8.77273e-17)
(0.245576 0.220052 2.12638e-17)
(1.1957 0.180291 1.36479e-17)
(1.18695 0.203814 5.78065e-18)
(1.17687 0.212465 -8.39451e-18)
(1.16495 0.23073 -9.95347e-18)
(1.15362 0.244244 -5.02295e-18)
(1.13993 0.261546 1.14399e-17)
(1.12622 0.277921 4.61049e-18)
(1.10983 0.296601 1.70785e-17)
(1.0919 0.316 2.29967e-17)
(1.07027 0.337021 2.10525e-17)
(1.04523 0.359707 -1.3415e-18)
(1.01406 0.383215 -2.19277e-17)
(0.977251 0.408915 -2.32525e-17)
(0.930343 0.4331 -1.52255e-17)
(0.877745 0.460944 -5.177e-18)
(0.809991 0.479139 5.90329e-17)
(0.738804 0.508446 6.20309e-17)
(0.645326 0.500906 3.7836e-17)
(0.504324 0.485158 5.73534e-17)
(0.229305 0.224325 8.58847e-19)
(1.20326 0.185734 2.09972e-17)
(1.19522 0.208798 4.1529e-18)
(1.18541 0.217395 1.09318e-17)
(1.17441 0.235367 -2.10211e-17)
(1.16373 0.248832 -9.17663e-18)
(1.1512 0.266085 1.51528e-17)
(1.13863 0.282468 2.25524e-17)
(1.1238 0.301346 3.3723e-21)
(1.10768 0.321163 1.14571e-17)
(1.08836 0.342841 3.60614e-17)
(1.06612 0.366801 2.67553e-18)
(1.03844 0.391801 7.84678e-18)
(1.00577 0.420541 2.26668e-17)
(0.964057 0.447283 2.31526e-17)
(0.916259 0.481855 8.66137e-19)
(0.856885 0.504054 8.94629e-17)
(0.787198 0.546955 8.76992e-17)
(0.706805 0.54243 -1.82764e-17)
(0.544823 0.520923 3.07865e-17)
(0.246009 0.235296 7.04813e-18)
(1.21088 0.191151 1.77032e-17)
(1.2035 0.213673 7.15465e-18)
(1.19402 0.222199 -8.06358e-18)
(1.18388 0.239797 -1.65521e-17)
(1.17386 0.253155 5.87951e-18)
(1.16249 0.270244 -1.84102e-18)
(1.15108 0.28653 1.51994e-17)
(1.13788 0.305417 -3.81562e-18)
(1.12369 0.325426 2.55719e-17)
(1.10684 0.347423 2.93777e-17)
(1.08757 0.37229 5.14909e-18)
(1.06363 0.398289 7.42261e-18)
(1.03506 0.429513 -1.1076e-17)
(0.998493 0.458363 1.67822e-17)
(0.954875 0.49745 4.30991e-18)
(0.901144 0.523117 6.7264e-17)
(0.833249 0.566561 6.11382e-17)
(0.745063 0.565313 9.90715e-19)
(0.575525 0.528719 1.63901e-17)
(0.236437 0.2304 2.63983e-18)
(1.21857 0.196462 1.31665e-17)
(1.21183 0.218321 -4.88767e-18)
(1.20271 0.226702 3.42872e-18)
(1.19345 0.243784 -1.31156e-17)
(1.18412 0.256898 3.86351e-18)
(1.17393 0.273612 -5.49204e-19)
(1.16373 0.289588 1.57233e-17)
(1.15221 0.30815 1.50106e-17)
(1.13997 0.327991 2.09947e-17)
(1.1258 0.349788 2.31799e-17)
(1.10959 0.374984 5.29813e-18)
(1.08994 0.40119 5.4485e-18)
(1.0654 0.434252 -5.67143e-19)
(1.03569 0.464425 1.21392e-17)
(0.995505 0.509292 4.68325e-18)
(0.953549 0.540892 5.09982e-17)
(0.885039 0.604466 4.41311e-17)
(0.824397 0.614544 8.32367e-18)
(0.622283 0.588812 1.23326e-17)
(0.279312 0.255455 1.22476e-18)
(1.2263 0.201776 1.13204e-17)
(1.22014 0.222945 -1.85843e-18)
(1.2114 0.231209 2.81417e-18)
(1.20295 0.247768 -8.59955e-18)
(1.19427 0.260643 2.89028e-18)
(1.18521 0.276962 3.56267e-20)
(1.17612 0.292629 1.00984e-18)
(1.16621 0.310825 1.15799e-17)
(1.15585 0.330381 1.73198e-17)
(1.1442 0.351872 2.08085e-17)
(1.1309 0.377146 8.40463e-18)
(1.1151 0.403518 6.21855e-18)
(1.09501 0.437591 -1.41131e-17)
(1.07099 0.46897 8.60883e-18)
(1.03716 0.514381 7.28409e-18)
(1.00023 0.545585 3.89965e-17)
(0.941226 0.591036 3.19701e-17)
(0.849838 0.593371 1.29104e-17)
(0.660127 0.532687 6.92561e-18)
(0.237794 0.225044 5.7533e-18)
(1.23399 0.206843 5.43794e-18)
(1.22845 0.227146 -4.60004e-18)
(1.22011 0.235106 6.16802e-19)
(1.21249 0.25088 -1.04739e-17)
(1.2045 0.263239 1.621e-18)
(1.19658 0.278791 -7.31292e-20)
(1.18862 0.293741 -3.04481e-18)
(1.18036 0.310981 1.03965e-17)
(1.1718 0.329632 1.37985e-17)
(1.16259 0.34994 1.33431e-17)
(1.15207 0.37433 2.80646e-18)
(1.1406 0.399198 7.20514e-19)
(1.12501 0.433168 -1.27134e-17)
(1.10845 0.463978 3.28116e-19)
(1.07969 0.514568 -1.6087e-19)
(1.05481 0.554604 3.12622e-17)
(1.00031 0.640457 2.6527e-17)
(0.965676 0.680412 1.19646e-17)
(0.761744 0.699206 7.31617e-18)
(0.380709 0.31435 -5.46211e-18)
(1.24169 0.212085 1.11054e-17)
(1.2366 0.231688 4.69827e-18)
(1.22858 0.239596 2.45723e-18)
(1.22165 0.254864 2.20783e-18)
(1.21419 0.266992 1.56072e-18)
(1.20723 0.282138 8.89867e-19)
(1.20015 0.29678 7.01411e-18)
(1.19314 0.313624 6.56053e-18)
(1.18583 0.331968 1.07843e-17)
(1.17831 0.351878 2.13015e-17)
(1.16991 0.375928 1.50475e-17)
(1.16132 0.400503 1.28141e-17)
(1.14958 0.434245 -7.30407e-18)
(1.13866 0.465245 1.24797e-17)
(1.11808 0.512536 1.28225e-17)
(1.10025 0.543326 2.14867e-17)
(1.05285 0.578237 1.34721e-17)
(0.970834 0.563559 1.71756e-17)
(0.743923 0.46422 1.07763e-17)
(0.252942 0.175403 -3.2296e-19)
(1.24925 0.216697 9.00371e-18)
(1.24483 0.235155 3.62568e-18)
(1.23726 0.242391 -2.29969e-18)
(1.23115 0.256354 -1.53302e-18)
(1.22439 0.267453 9.8474e-19)
(1.21852 0.281171 2.82485e-19)
(1.21244 0.294428 8.46113e-18)
(1.2068 0.309443 1.23907e-17)
(1.20092 0.325922 8.73136e-18)
(1.19582 0.343151 2.1359e-17)
(1.18976 0.364506 1.49638e-17)
(1.18588 0.384851 1.23337e-17)
(1.17772 0.414913 -2.93242e-18)
(1.17444 0.440954 2.5527e-18)
(1.15511 0.490725 7.45274e-18)
(1.14711 0.538536 2.13622e-17)
(1.11041 0.6418 1.38236e-17)
(1.12276 0.729512 1.8186e-17)
(0.993049 0.819654 -2.38089e-18)
(0.668364 0.394535 7.95442e-19)
(1.24925 -0.216697 1.0862e-17)
(1.24483 -0.235155 9.45845e-18)
(1.23726 -0.242391 3.15941e-18)
(1.23115 -0.256354 4.86255e-18)
(1.22439 -0.267453 -1.40235e-18)
(1.21852 -0.281171 -5.65809e-18)
(1.21244 -0.294428 2.00559e-18)
(1.2068 -0.309443 -2.44037e-18)
(1.20092 -0.325922 -8.57873e-18)
(1.19582 -0.343151 -1.44169e-17)
(1.18976 -0.364506 -8.8947e-19)
(1.18588 -0.384851 5.03044e-18)
(1.17772 -0.414913 -9.5056e-18)
(1.17444 -0.440954 -6.22825e-18)
(1.15511 -0.490725 -5.42576e-18)
(1.14711 -0.538536 -2.98751e-17)
(1.11041 -0.6418 -1.63571e-17)
(1.12276 -0.729512 -1.30631e-17)
(0.993049 -0.819654 1.24538e-18)
(0.668364 -0.394535 -6.32858e-19)
(1.24169 -0.212085 7.8442e-18)
(1.2366 -0.231688 9.00243e-18)
(1.22858 -0.239596 4.62848e-18)
(1.22165 -0.254864 7.75341e-18)
(1.21419 -0.266992 -2.4867e-18)
(1.20723 -0.282138 -5.5485e-18)
(1.20015 -0.29678 1.85195e-18)
(1.19314 -0.313624 -8.36782e-19)
(1.18583 -0.331968 -1.1915e-17)
(1.17831 -0.351878 -1.72251e-17)
(1.16991 -0.375928 4.39155e-18)
(1.16132 -0.400503 3.44161e-18)
(1.14958 -0.434245 -2.09369e-17)
(1.13866 -0.465245 -1.25318e-17)
(1.11808 -0.512536 -9.32509e-18)
(1.10025 -0.543326 -3.34842e-17)
(1.05285 -0.578237 -9.54859e-18)
(0.970834 -0.563559 -1.4236e-17)
(0.743923 -0.46422 -1.11309e-17)
(0.252942 -0.175403 3.19614e-18)
(1.23399 -0.206843 1.10198e-17)
(1.22845 -0.227146 1.19691e-17)
(1.22011 -0.235106 4.5065e-18)
(1.21249 -0.25088 9.81139e-18)
(1.2045 -0.263239 -1.56763e-17)
(1.19658 -0.278791 -7.66996e-18)
(1.18862 -0.293741 3.44366e-18)
(1.18036 -0.310981 -1.02205e-18)
(1.1718 -0.329632 -1.54042e-17)
(1.16259 -0.34994 -2.23815e-17)
(1.15207 -0.37433 7.01559e-18)
(1.1406 -0.399198 5.89578e-18)
(1.12501 -0.433168 -2.59256e-17)
(1.10845 -0.463978 -9.7994e-18)
(1.07969 -0.514568 -9.5529e-18)
(1.05481 -0.554604 -3.05953e-17)
(1.00031 -0.640457 2.39932e-18)
(0.965676 -0.680412 -1.97188e-17)
(0.761744 -0.699206 -1.00531e-17)
(0.380709 -0.31435 6.41447e-18)
(1.2263 -0.201776 2.56343e-18)
(1.22014 -0.222945 1.43537e-17)
(1.2114 -0.231209 4.43326e-18)
(1.20295 -0.247768 1.67984e-18)
(1.19427 -0.260643 -1.66276e-17)
(1.18521 -0.276962 -8.2853e-18)
(1.17612 -0.292629 -1.01051e-17)
(1.16621 -0.310825 -4.19815e-19)
(1.15585 -0.330381 -3.14208e-18)
(1.1442 -0.351872 -2.95962e-17)
(1.1309 -0.377146 1.36943e-17)
(1.1151 -0.403518 4.8818e-18)
(1.09501 -0.437591 -1.73781e-17)
(1.07099 -0.46897 9.89648e-18)
(1.03716 -0.514381 -1.04837e-17)
(1.00023 -0.545585 -4.63266e-17)
(0.941226 -0.591036 1.45122e-18)
(0.849838 -0.593371 -2.31523e-17)
(0.660127 -0.532687 -1.40119e-17)
(0.237794 -0.225044 -1.73081e-18)
(1.21857 -0.196462 5.83556e-18)
(1.21183 -0.218321 1.83081e-17)
(1.20271 -0.226702 4.97142e-18)
(1.19345 -0.243784 -6.10545e-18)
(1.18412 -0.256898 -2.31733e-17)
(1.17393 -0.273612 -8.96781e-18)
(1.16373 -0.289588 -6.6788e-18)
(1.15221 -0.30815 -1.62198e-17)
(1.13997 -0.327991 -1.00494e-17)
(1.1258 -0.349788 -1.98994e-17)
(1.10959 -0.374984 1.86069e-18)
(1.08994 -0.40119 6.22983e-18)
(1.0654 -0.434252 -3.22496e-17)
(1.03569 -0.464425 7.80214e-18)
(0.995505 -0.509292 -1.76319e-17)
(0.953549 -0.540892 -5.82897e-17)
(0.885039 -0.604466 1.03961e-17)
(0.824397 -0.614544 -3.23753e-17)
(0.622283 -0.588812 -2.13201e-17)
(0.279312 -0.255455 -6.66479e-19)
(1.21088 -0.191151 3.8972e-18)
(1.2035 -0.213673 2.27964e-17)
(1.19402 -0.222199 6.71796e-18)
(1.18388 -0.239797 -2.90202e-18)
(1.17386 -0.253155 -1.19216e-17)
(1.16249 -0.270244 -2.70675e-17)
(1.15108 -0.28653 -9.37249e-18)
(1.13788 -0.305417 -1.41143e-17)
(1.12369 -0.325426 -7.38396e-18)
(1.10684 -0.347423 -9.86419e-18)
(1.08757 -0.37229 -1.19385e-17)
(1.06363 -0.398289 3.4674e-17)
(1.03506 -0.429513 -4.28236e-17)
(0.998493 -0.458363 2.13871e-17)
(0.954875 -0.49745 -2.39229e-17)
(0.901144 -0.523117 -4.06212e-17)
(0.833249 -0.566561 2.5429e-17)
(0.745063 -0.565313 -4.45682e-17)
(0.575525 -0.528719 -3.31283e-17)
(0.236437 -0.2304 3.29384e-18)
(1.20326 -0.185734 3.46856e-18)
(1.19522 -0.208798 1.43955e-17)
(1.18541 -0.217395 7.62932e-18)
(1.17441 -0.235367 -4.6327e-18)
(1.16373 -0.248832 -2.90907e-18)
(1.1512 -0.266085 -8.55347e-18)
(1.13863 -0.282468 1.18353e-17)
(1.1238 -0.301346 -1.85169e-17)
(1.10768 -0.321163 -1.05398e-17)
(1.08836 -0.342841 7.28606e-18)
(1.06612 -0.366801 -9.87796e-18)
(1.03844 -0.391801 3.96205e-17)
(1.00577 -0.420541 -3.48461e-17)
(0.964057 -0.447283 -2.91836e-18)
(0.916259 -0.481855 6.8468e-18)
(0.856885 -0.504054 -1.39414e-17)
(0.787198 -0.546955 3.93266e-17)
(0.706805 -0.54243 1.11829e-17)
(0.544823 -0.520923 -4.60932e-17)
(0.246009 -0.235296 1.15661e-17)
(1.1957 -0.180291 3.08963e-18)
(1.18695 -0.203814 2.36017e-17)
(1.17687 -0.212465 9.7099e-18)
(1.16495 -0.23073 -5.29236e-18)
(1.15362 -0.244244 -8.30328e-18)
(1.13993 -0.261546 -2.19801e-17)
(1.12622 -0.277921 -1.40795e-17)
(1.10983 -0.296601 -3.30601e-20)
(1.0919 -0.316 -1.19263e-17)
(1.07027 -0.337021 -2.50708e-17)
(1.04523 -0.359707 -1.6477e-17)
(1.01406 -0.383215 2.41258e-17)
(0.977251 -0.408915 -2.82767e-17)
(0.930343 -0.4331 1.4675e-17)
(0.877745 -0.460944 -5.41105e-17)
(0.809991 -0.479139 -3.0346e-17)
(0.738804 -0.508446 5.0913e-17)
(0.645326 -0.500906 6.0431e-18)
(0.504324 -0.485158 1.73874e-17)
(0.229305 -0.224325 4.50954e-17)
(1.18809 -0.174796 1.8371e-18)
(1.17862 -0.198671 2.69706e-17)
(1.16828 -0.207326 1.19814e-17)
(1.15535 -0.225766 -6.00514e-18)
(1.14337 -0.239251 -7.92063e-18)
(1.12842 -0.256446 -2.26975e-17)
(1.11353 -0.272684 -5.51561e-18)
(1.09552 -0.290932 -5.03789e-18)
(1.07576 -0.309673 -1.61151e-17)
(1.05195 -0.329655 -1.99789e-17)
(1.0244 -0.350638 -1.92725e-17)
(0.990471 -0.371927 4.50006e-17)
(0.950672 -0.394047 -4.95089e-17)
(0.90139 -0.41434 1.89851e-17)
(0.846862 -0.435721 -5.39125e-17)
(0.778316 -0.448262 -2.42788e-17)
(0.708418 -0.469447 7.68793e-17)
(0.618472 -0.457779 1.07224e-17)
(0.495326 -0.450912 1.39517e-17)
(0.245576 -0.220052 9.47836e-17)
(1.18039 -0.169294 1.57972e-17)
(1.17034 -0.193399 5.14435e-17)
(1.1597 -0.201993 -3.23381e-18)
(1.14592 -0.220493 1.20189e-17)
(1.13323 -0.233873 -9.5907e-18)
(1.11713 -0.250815 -3.02629e-17)
(1.10103 -0.266794 -1.04944e-17)
(1.08138 -0.284395 -2.94824e-17)
(1.05961 -0.302285 -4.99014e-17)
(1.03328 -0.320972 3.08231e-18)
(1.00259 -0.340057 1.19349e-17)
(0.965041 -0.358977 5.97145e-17)
(0.920769 -0.377705 -2.59452e-17)
(0.866131 -0.39467 -1.82651e-17)
(0.805478 -0.40951 -8.92203e-17)
(0.728936 -0.418206 -2.5919e-17)
(0.653258 -0.426841 1.10903e-16)
(0.547621 -0.412984 1.09843e-17)
(0.431203 -0.39803 1.73124e-18)
(0.192137 -0.196029 1.33299e-17)
(1.31117 -0.2584 2.41765e-19)
(1.30718 -0.275063 1.62983e-18)
(1.30289 -0.283115 6.23286e-19)
(1.30029 -0.297443 -8.92976e-19)
(1.29803 -0.30952 -2.41114e-18)
(1.2975 -0.324219 -4.63308e-20)
(1.29756 -0.338053 -2.12597e-18)
(1.2973 -0.351593 -2.84518e-18)
(1.2903 -0.360404 -1.76729e-18)
(1.26213 -0.358316 -6.28018e-18)
(1.18651 -0.33544 -2.95787e-18)
(1.03325 -0.286416 4.57174e-18)
(0.785109 -0.216462 -2.22598e-17)
(0.472053 -0.14403 2.29837e-17)
(0.18112 -0.097578 -2.94065e-17)
(-0.00787126 -0.0849004 -3.76982e-17)
(-0.0993268 -0.0889915 -3.5374e-18)
(-0.121787 -0.0879893 -3.24765e-17)
(-0.0954976 -0.0836522 -9.68761e-18)
(-0.0375565 -0.0366083 -7.78112e-19)
(1.30614 -0.255323 1.21128e-19)
(1.3019 -0.272189 -8.21547e-19)
(1.29733 -0.280261 1.01946e-18)
(1.29424 -0.294585 -5.80302e-19)
(1.29156 -0.306796 -3.40557e-19)
(1.29044 -0.321892 2.29902e-19)
(1.29037 -0.336922 1.96521e-18)
(1.2918 -0.353459 -3.0993e-18)
(1.29212 -0.368989 -9.57013e-19)
(1.28313 -0.379469 1.26718e-18)
(1.24429 -0.374532 -6.84001e-18)
(1.14289 -0.341789 -3.72447e-18)
(0.944503 -0.276152 -1.42106e-17)
(0.647101 -0.189378 4.91156e-18)
(0.318119 -0.116401 1.30008e-17)
(0.0692165 -0.0888117 -1.23763e-17)
(-0.0690389 -0.0968871 3.85046e-19)
(-0.116964 -0.100949 -1.79765e-17)
(-0.103781 -0.0954676 -2.88048e-17)
(-0.0411058 -0.0396873 -1.95893e-18)
(1.30089 -0.25205 3.56757e-19)
(1.2964 -0.269189 3.5849e-20)
(1.29144 -0.277467 1.23531e-18)
(1.28789 -0.291945 -7.72657e-19)
(1.2847 -0.304294 -1.7732e-18)
(1.28291 -0.319473 -4.09504e-19)
(1.28192 -0.334421 -1.51037e-18)
(1.28221 -0.350643 6.04625e-19)
(1.28197 -0.366157 -2.99812e-18)
(1.27645 -0.379042 -7.06701e-18)
(1.25217 -0.383014 -5.298e-18)
(1.18435 -0.36794 -1.05326e-17)
(1.0373 -0.322672 -7.49855e-18)
(0.786055 -0.243754 2.04356e-18)
(0.456914 -0.152471 -1.09758e-17)
(0.158368 -0.0936012 -1.81523e-18)
(-0.0262002 -0.0952089 4.66999e-18)
(-0.108955 -0.10308 -9.72182e-18)
(-0.10163 -0.102003 -1.09726e-17)
(-0.0439578 -0.0442276 5.27179e-18)
(1.29538 -0.248505 3.84363e-19)
(1.29072 -0.265814 -6.14834e-19)
(1.2854 -0.274143 1.758e-18)
(1.28143 -0.288645 -4.05755e-19)
(1.27774 -0.301082 -1.75018e-18)
(1.27542 -0.316509 -1.48881e-20)
(1.27396 -0.332217 -5.28771e-19)
(1.2745 -0.350127 -2.34656e-19)
(1.27673 -0.368902 -3.92907e-19)
(1.27885 -0.387346 -4.20284e-18)
(1.27178 -0.400078 -5.6326e-18)
(1.23545 -0.39732 -9.84694e-18)
(1.13542 -0.367539 -1.71072e-17)
(0.937375 -0.301201 5.18147e-18)
(0.633004 -0.205441 -1.19889e-17)
(0.295308 -0.112509 1.93007e-18)
(0.0393246 -0.0824131 9.24582e-18)
(-0.0816463 -0.0893301 -6.22769e-18)
(-0.105865 -0.0926235 -7.20472e-19)
(-0.0349049 -0.0380611 2.24671e-17)
(1.28963 -0.244737 1.93245e-18)
(1.28482 -0.262221 -4.65415e-19)
(1.27914 -0.270623 2.01986e-18)
(1.27476 -0.285147 -3.19957e-19)
(1.27053 -0.297557 -2.55291e-18)
(1.2675 -0.312804 -3.52829e-19)
(1.26488 -0.328144 -1.26877e-18)
(1.2635 -0.345508 -8.9239e-19)
(1.26319 -0.364028 -2.75864e-18)
(1.26421 -0.384119 -1.39288e-18)
(1.26321 -0.403683 -4.39254e-18)
(1.24927 -0.415376 -8.23151e-18)
(1.19485 -0.406717 -1.09165e-17)
(1.06131 -0.361052 -1.43148e-17)
(0.813877 -0.274861 -1.78905e-17)
(0.475836 -0.160679 4.85479e-18)
(0.153412 -0.0890846 1.73964e-17)
(-0.0508788 -0.0708196 -7.23815e-18)
(-0.0980638 -0.0908625 -5.7858e-18)
(-0.0529647 -0.0495236 4.42588e-18)
(1.28364 -0.240706 2.02904e-18)
(1.27875 -0.258308 -4.87058e-19)
(1.2727 -0.266707 2.77191e-18)
(1.26798 -0.28121 3.19759e-19)
(1.26326 -0.293601 -3.10808e-18)
(1.25973 -0.308887 -3.04353e-19)
(1.25668 -0.324468 -1.13422e-18)
(1.25501 -0.342387 -8.44343e-20)
(1.25456 -0.361779 -2.25185e-18)
(1.25602 -0.383026 -2.37176e-18)
(1.25795 -0.405524 -3.71859e-18)
(1.25562 -0.425253 -8.57737e-18)
(1.23175 -0.434314 -3.37024e-18)
(1.15532 -0.413802 -6.71733e-18)
(0.980541 -0.350739 -6.21867e-18)
(0.689655 -0.237583 -7.91161e-19)
(0.327353 -0.118628 -3.17351e-17)
(0.0457778 -0.0550198 -1.76003e-17)
(-0.0979266 -0.0550685 -3.58054e-17)
(-0.0314733 -0.0229943 -3.33663e-18)
(1.27745 -0.23643 2.98238e-18)
(1.27254 -0.254139 -1.20653e-18)
(1.26613 -0.262496 3.46896e-18)
(1.2611 -0.276931 1.11867e-18)
(1.25586 -0.289153 -4.06757e-18)
(1.25168 -0.304149 -5.25542e-19)
(1.24761 -0.319246 -1.72625e-18)
(1.24441 -0.336508 -2.04949e-18)
(1.2417 -0.35544 -2.58118e-18)
(1.24067 -0.37688 -1.64455e-18)
(1.24154 -0.401458 -6.03257e-19)
(1.24415 -0.426937 -7.27143e-18)
(1.23975 -0.450209 -8.62725e-18)
(1.20898 -0.4547 -1.13152e-17)
(1.10852 -0.425028 -1.64084e-17)
(0.898993 -0.336205 -1.5894e-17)
(0.565527 -0.212534 -5.84414e-18)
(0.191449 -0.0795287 -2.20323e-17)
(-0.0384796 -0.081604 -9.81985e-18)
(-0.0934388 -0.0640593 4.40991e-20)
(1.27103 -0.231896 4.0398e-18)
(1.26624 -0.2497 8.01529e-19)
(1.25952 -0.257947 4.31059e-18)
(1.25426 -0.272303 2.53182e-18)
(1.24859 -0.284362 -4.96771e-18)
(1.244 -0.299207 -6.3607e-19)
(1.23943 -0.314144 -1.37333e-18)
(1.23576 -0.331172 -1.40949e-18)
(1.23242 -0.349714 -3.21752e-18)
(1.23002 -0.370392 -3.20384e-18)
(1.2283 -0.394558 -2.94235e-19)
(1.22911 -0.421048 -7.01687e-18)
(1.22997 -0.452044 -5.80077e-18)
(1.22536 -0.475583 -8.00003e-18)
(1.18444 -0.481234 -1.46926e-17)
(1.06891 -0.43172 -1.71111e-17)
(0.819247 -0.322611 -1.25028e-17)
(0.460703 -0.158978 -3.43398e-17)
(0.0619028 -0.0134001 3.99209e-19)
(-0.00566867 0.027372 9.65707e-18)
(1.26429 -0.22713 5.07826e-18)
(1.25975 -0.245063 3.2384e-18)
(1.25274 -0.253104 5.28971e-18)
(1.24731 -0.267329 4.56627e-18)
(1.24119 -0.279076 -5.83602e-19)
(1.23611 -0.293524 -1.07447e-18)
(1.23069 -0.307908 -1.794e-18)
(1.22591 -0.324312 -1.71575e-18)
(1.22119 -0.342224 -8.88252e-18)
(1.2172 -0.361991 -4.06117e-18)
(1.21324 -0.385491 2.19849e-18)
(1.21113 -0.410967 -5.11514e-18)
(1.20964 -0.444167 -7.94599e-18)
(1.21268 -0.477296 -7.05516e-18)
(1.20442 -0.513391 -1.44253e-17)
(1.16844 -0.516648 -2.12023e-17)
(1.03312 -0.476091 -9.24812e-18)
(0.755718 -0.340805 2.72629e-18)
(0.335877 -0.226974 4.56051e-18)
(-0.0932915 -0.0981547 1.41563e-17)
(1.25701 -0.222118 6.13761e-18)
(1.25267 -0.240257 2.19902e-18)
(1.24534 -0.247968 6.17174e-18)
(1.23966 -0.262065 6.07588e-18)
(1.23317 -0.2735 -2.25658e-18)
(1.22776 -0.2876 -8.10024e-19)
(1.22192 -0.301462 -1.77506e-18)
(1.21663 -0.317217 8.59361e-19)
(1.2111 -0.334354 -8.53524e-18)
(1.20613 -0.352776 -8.86128e-18)
(1.20046 -0.374919 3.69795e-18)
(1.19611 -0.397735 -3.27207e-18)
(1.18972 -0.429169 -8.16184e-18)
(1.18842 -0.459873 -6.25115e-18)
(1.18193 -0.505421 -1.06939e-17)
(1.18765 -0.536462 -2.01351e-17)
(1.14821 -0.551113 -9.53353e-18)
(1.06559 -0.472771 -1.23005e-17)
(0.717389 -0.246714 -5.74613e-20)
(0.397523 -0.00318082 5.33859e-17)
(1.15538 -0.151647 -4.97512e-18)
(1.14426 -0.17601 1.53259e-17)
(1.13251 -0.184313 6.48823e-18)
(1.11808 -0.202688 2.36205e-18)
(1.10366 -0.215453 -1.75488e-17)
(1.0868 -0.2312 -5.15867e-17)
(1.06903 -0.245821 -5.97713e-18)
(1.0485 -0.260512 -1.59038e-17)
(1.02559 -0.274628 -5.69868e-17)
(0.999026 -0.287655 -8.07295e-18)
(0.968531 -0.299121 -1.84366e-17)
(0.932843 -0.308121 -2.01273e-17)
(0.891483 -0.313015 2.41327e-17)
(0.8425 -0.312721 2.08188e-17)
(0.786471 -0.305511 3.30568e-17)
(0.722666 -0.290335 -1.17058e-17)
(0.65384 -0.264275 -3.75373e-17)
(0.576026 -0.227478 2.50237e-18)
(0.509732 -0.169928 4.19372e-18)
(0.39106 -0.0841356 1.8412e-17)
(1.12153 -0.117275 -9.04114e-19)
(1.11227 -0.13609 -4.1448e-18)
(1.10175 -0.141615 6.18971e-18)
(1.08944 -0.15444 4.2498e-17)
(1.07614 -0.162729 -5.5503e-18)
(1.0617 -0.172556 -1.52301e-17)
(1.04587 -0.181225 -1.66972e-17)
(1.02884 -0.189523 -1.81042e-17)
(1.01036 -0.197194 -1.92536e-17)
(0.990603 -0.204043 -8.87121e-18)
(0.969438 -0.209535 -1.79412e-18)
(0.946952 -0.213164 -6.8787e-19)
(0.92302 -0.214283 -9.22072e-18)
(0.897795 -0.211704 1.1359e-18)
(0.870835 -0.204138 1.08785e-17)
(0.842263 -0.18982 -2.18319e-18)
(0.812654 -0.168516 3.03797e-18)
(0.783418 -0.134219 -6.46952e-18)
(0.758232 -0.0949552 4.70205e-18)
(0.747568 -0.0359696 6.0766e-18)
(1.09177 -0.0959099 -3.78279e-18)
(1.0833 -0.112289 -3.88471e-18)
(1.07379 -0.116989 -1.0783e-17)
(1.06245 -0.12772 -2.34073e-17)
(1.05036 -0.133937 -2.30026e-17)
(1.03701 -0.140816 -7.59512e-17)
(1.02252 -0.146017 -3.74818e-17)
(1.00657 -0.150059 -4.84803e-17)
(0.989098 -0.152593 -1.03173e-16)
(0.969875 -0.153384 -3.45261e-17)
(0.948923 -0.152241 -2.34853e-17)
(0.926332 -0.1489 -1.05791e-17)
(0.902476 -0.143097 -1.52083e-17)
(0.877905 -0.134665 1.06271e-17)
(0.853591 -0.123294 6.40344e-17)
(0.830451 -0.108933 -1.83494e-17)
(0.809402 -0.0906586 -1.03973e-17)
(0.790649 -0.0693351 -1.83823e-17)
(0.776112 -0.0431108 1.33617e-17)
(0.762047 -0.0147255 1.12182e-16)
(1.06941 -0.0689529 -8.34171e-18)
(1.06273 -0.0812316 -5.81588e-18)
(1.05537 -0.0845493 -8.80709e-18)
(1.04657 -0.0923298 -9.51771e-18)
(1.03731 -0.0968074 -1.14627e-17)
(1.02752 -0.101871 -1.97239e-17)
(1.01737 -0.105781 -7.67112e-17)
(1.00703 -0.108908 -7.56723e-17)
(0.996576 -0.111041 -8.51064e-17)
(0.986156 -0.111989 -8.6344e-17)
(0.975804 -0.111521 -6.59346e-17)
(0.96553 -0.109382 -1.22716e-17)
(0.955261 -0.105298 -6.81919e-17)
(0.944941 -0.0989723 -1.55549e-17)
(0.934535 -0.090235 -8.31569e-17)
(0.924318 -0.0788759 -7.81433e-17)
(0.914776 -0.0651839 -1.3978e-17)
(0.907059 -0.0488305 -8.00789e-17)
(0.90183 -0.0308919 -1.63995e-17)
(0.900737 -0.0107618 -8.63001e-17)
(1.05119 -0.0557683 -2.59922e-17)
(1.04568 -0.0652436 -1.50862e-17)
(1.03951 -0.0675303 -3.26113e-17)
(1.03201 -0.0730784 -4.0853e-17)
(1.02399 -0.0757415 -4.0418e-17)
(1.01522 -0.0784947 -6.79917e-17)
(1.00573 -0.080038 6.10885e-18)
(0.995498 -0.0806762 3.35714e-17)
(0.984537 -0.0803059 -4.51171e-17)
(0.972914 -0.0788815 1.30215e-17)
(0.960802 -0.0763834 5.02824e-17)
(0.94847 -0.0727963 2.67142e-17)
(0.936294 -0.06811 5.61611e-17)
(0.924703 -0.0623283 4.41334e-17)
(0.914132 -0.0554124 1.46437e-16)
(0.904864 -0.0474004 7.09377e-17)
(0.897069 -0.0381991 2.97005e-17)
(0.890613 -0.0280769 5.9047e-17)
(0.885685 -0.0170123 4.15752e-17)
(0.882236 -0.00563641 1.51414e-16)
(1.03797 -0.0384221 -6.40757e-17)
(1.03391 -0.045744 -1.75083e-17)
(1.02957 -0.0476918 -7.42321e-17)
(1.02437 -0.0522037 -9.49582e-17)
(1.01906 -0.0546308 -6.97381e-17)
(1.01359 -0.0572123 -5.46045e-18)
(1.00814 -0.0589715 -5.31279e-17)
(1.00281 -0.0601141 7.43493e-17)
(0.997684 -0.0605217 4.66614e-18)