/*--------------------------------*- C++ -*----------------------------------*\
  =========                 |
  \\      /  F ield         | OpenFOAM: The Open Source CFD Toolbox
   \\    /   O peration     | Website:  https://openfoam.org
    \\  /    A nd           | Version:  7
     \\/     M anipulation  |
\*---------------------------------------------------------------------------*/
FoamFile
{
    version     2.0;
    format      ascii;
    class       volScalarField;
    location    "20";
    object      p;
}
// * * * * * * * * * * * * * * * * * * * * * * * * * * * * * * * * * * * * * //

dimensions      [0 2 -2 0 0 0 0];

internalField   nonuniform List<scalar> 
75
(
-0.22204
-0.223078
-0.230374
-0.240571
-0.257663
-0.283952
-0.223935
-0.225186
-0.232312
-0.242369
-0.259144
-0.284978
-0.225672
-0.227206
-0.234415
-0.244688
-0.261854
-0.288616
-0.227253
-0.229079
-0.23641
-0.246963
-0.264548
-0.292287
-0.228679
-0.230755
-0.238135
-0.248847
-0.266568
-0.294759
-0.229955
-0.232228
-0.23958
-0.250319
-0.267928
-0.296128
-0.23109
-0.233506
-0.240777
-0.25144
-0.268768
-0.296662
-0.232096
-0.234607
-0.241757
-0.25226
-0.269178
-0.296501
-0.232974
-0.235528
-0.242516
-0.252767
-0.269137
-0.295581
-0.233759
-0.236319
-0.243131
-0.253086
-0.268863
-0.294294
-0.129589
-0.222551
-0.244606
-0.141234
-0.230675
-0.24633
-0.144116
-0.235302
-0.249082
-0.154082
-0.243573
-0.252328
-0.158839
-0.250153
-0.255912
)
;

boundaryField
{
    inlet
    {
        type            zeroGradient;
    }
    outlet
    {
        type            fixedValue;
        value           nonuniform 0();
    }
    polygon
    {
        type            zeroGradient;
    }
    top
    {
        type            symmetryPlane;
    }
    bottom
    {
        type            symmetryPlane;
    }
    outside
    {
        type            slip;
    }
    procBoundary14to10
    {
        type            processor;
        value           nonuniform List<scalar> 
14
(
-0.321833
-0.32127
-0.325679
-0.330301
-0.333074
-0.3343
-0.334412
-0.333631
-0.331573
-0.329105
-0.25947
-0.167303
-0.260371
-0.25947
)
;
    }
    procBoundary14to13
    {
        type            processor;
        value           nonuniform List<scalar> 6(-0.219972 -0.22079 -0.228461 -0.238924 -0.256771 -0.284356);
    }
    procBoundary14to15
    {
        type            processor;
        value           nonuniform List<scalar> 5(-0.0908267 -0.0968491 -0.0986566 -0.102683 -0.105155);
    }
}


// ************************************************************************* //
