/*--------------------------------*- C++ -*----------------------------------*\
  =========                 |
  \\      /  F ield         | OpenFOAM: The Open Source CFD Toolbox
   \\    /   O peration     | Website:  https://openfoam.org
    \\  /    A nd           | Version:  7
     \\/     M anipulation  |
\*---------------------------------------------------------------------------*/
FoamFile
{
    version     2.0;
    format      ascii;
    class       volVectorField;
    location    "20";
    object      U;
}
// * * * * * * * * * * * * * * * * * * * * * * * * * * * * * * * * * * * * * //

dimensions      [0 1 -1 0 0 0 0];

internalField   nonuniform List<vector> 
75
(
(1.17443 0.104827 -3.54458e-18)
(1.17864 0.11954 1.63879e-17)
(1.18161 0.123032 -2.00075e-18)
(1.18993 0.136681 2.08664e-17)
(1.20266 0.143406 -7.61642e-18)
(1.22183 0.159467 -1.72611e-17)
(1.17612 0.105146 1.62085e-18)
(1.18046 0.118894 1.81053e-17)
(1.18348 0.121913 -5.02181e-18)
(1.1919 0.134542 2.91104e-17)
(1.20468 0.140206 -9.03804e-18)
(1.22434 0.154406 -1.54853e-17)
(1.17768 0.105407 -1.0033e-17)
(1.1822 0.118206 3.97788e-19)
(1.18544 0.120736 1.1428e-17)
(1.19419 0.132311 3.37694e-17)
(1.20749 0.136805 -6.89941e-18)
(1.22846 0.149026 -1.21179e-17)
(1.17911 0.105607 -1.24965e-17)
(1.1838 0.117463 1.4084e-17)
(1.18727 0.119477 7.05435e-18)
(1.19635 0.12995 4.317e-17)
(1.21014 0.133146 -1.08374e-17)
(1.23226 0.143222 -9.50416e-18)
(1.1804 0.105755 3.34945e-18)
(1.18524 0.116679 1.12771e-17)
(1.18887 0.118162 1.75599e-17)
(1.19819 0.127512 3.63711e-17)
(1.21224 0.129336 3.04027e-18)
(1.23504 0.137178 -9.21708e-18)
(1.18157 0.105851 -2.4169e-19)
(1.18651 0.115857 1.35012e-17)
(1.19023 0.116792 2.54357e-17)
(1.19967 0.124995 3.08756e-17)
(1.2138 0.125368 5.65153e-18)
(1.23686 0.130831 -5.87059e-18)
(1.18262 0.105917 1.12681e-17)
(1.18762 0.115039 3.89003e-18)
(1.1914 0.11544 3.49921e-17)
(1.20089 0.122529 2.7865e-17)
(1.21497 0.121482 -9.04883e-18)
(1.23798 0.124624 -1.0527e-17)
(1.18354 0.10592 1.02257e-17)
(1.18856 0.114146 -7.98067e-18)
(1.19235 0.113968 3.56558e-17)
(1.20181 0.119866 2.0431e-17)
(1.21571 0.117221 -1.23369e-17)
(1.23825 0.117669 9.0554e-18)
(1.18441 0.105971 6.195e-18)
(1.18941 0.113428 -6.82431e-18)
(1.1932 0.112789 1.86574e-17)
(1.20256 0.117726 2.7182e-17)
(1.21618 0.113873 3.37579e-18)
(1.23799 0.112301 3.66217e-18)
(1.18505 0.105795 1.57367e-17)
(1.18999 0.112231 -5.45127e-18)
(1.19375 0.110846 1.54295e-17)
(1.20294 0.114293 3.41366e-17)
(1.2162 0.108289 2.42419e-18)
(1.23696 0.103008 1.72067e-17)
(1.08508 0.0246712 -4.728e-17)
(1.17815 0.0988668 -5.5405e-17)
(1.19968 0.111726 7.65357e-17)
(1.09103 0.010182 1.13401e-18)
(1.18659 0.0851662 9.76591e-18)
(1.20351 0.114416 9.3122e-18)
(1.09453 0.00483987 4.63091e-17)
(1.19016 0.0786165 6.82334e-17)
(1.20599 0.113425 7.65652e-17)
(1.09424 -0.00766391 -5.30144e-17)
(1.19287 0.0701862 -6.56832e-17)
(1.21139 0.115911 8.3851e-17)
(1.08219 -0.0158398 -6.35111e-17)
(1.18353 0.0584473 -8.1601e-17)
(1.21507 0.113851 9.80318e-18)
)
;

boundaryField
{
    inlet
    {
        type            uniformFixedValue;
        uniformValue    constant (1 0 0);
        value           nonuniform 0();
    }
    outlet
    {
        type            pressureInletOutletVelocity;
        value           nonuniform 0();
    }
    polygon
    {
        type            fixedValue;
        value           nonuniform 0();
    }
    top
    {
        type            symmetryPlane;
    }
    bottom
    {
        type            symmetryPlane;
    }
    outside
    {
        type            zeroGradient;
    }
    procBoundary14to10
    {
        type            processor;
        value           nonuniform List<vector> 
14
(
(1.25523 0.169117 -1.29986e-17)
(1.25752 0.16094 6.30013e-20)
(1.26254 0.152012 1.55799e-17)
(1.26675 0.142439 1.931e-17)
(1.26908 0.132608 4.1302e-19)
(1.26958 0.122299 -6.88358e-18)
(1.26891 0.112323 1.08428e-17)
(1.26634 0.100983 7.89128e-18)
(1.26312 0.092482 6.36189e-18)
(1.25732 0.0769759 4.25841e-18)
(1.20971 0.11265 1.11119e-17)
(1.04605 -0.0269622 -6.4276e-17)
(1.15074 0.0516917 -7.50198e-17)
(1.20971 0.11265 1.11119e-17)
)
;
    }
    procBoundary14to13
    {
        type            processor;
        value           nonuniform List<vector> 6((1.17259 0.104456 -2.81491e-18) (1.17669 0.120182 6.4494e-18) (1.17982 0.124165 -4.18738e-18) (1.18824 0.138856 1.3299e-17) (1.20141 0.146653 -7.95709e-18) (1.22098 0.164653 -1.88482e-17));
    }
    procBoundary14to15
    {
        type            processor;
        value           nonuniform List<vector> 5((1.04805 -0.00966744 -6.29838e-18) (1.04736 -0.0215394 -2.44741e-19) (1.04747 -0.0252489 3.05208e-18) (1.04228 -0.0354408 -7.22115e-18) (1.0287 -0.0421464 -8.66306e-18));
    }
}


// ************************************************************************* //
