/*--------------------------------*- C++ -*----------------------------------*\
  =========                 |
  \\      /  F ield         | OpenFOAM: The Open Source CFD Toolbox
   \\    /   O peration     | Website:  https://openfoam.org
    \\  /    A nd           | Version:  7
     \\/     M anipulation  |
\*---------------------------------------------------------------------------*/
FoamFile
{
    version     2.0;
    format      ascii;
    class       surfaceScalarField;
    location    "92";
    object      phi;
}
// * * * * * * * * * * * * * * * * * * * * * * * * * * * * * * * * * * * * * //

dimensions      [0 3 -1 0 0 0 0];

internalField   nonuniform List<scalar> 
318
(
-0.000377772
0.00999674
-0.000459486
0.00998352
-0.000541599
0.00996282
-0.000624497
0.00994595
-0.000708099
0.00993407
-0.000792617
0.00992782
-0.000878147
0.00992846
0.00993655
-0.000379204
0.0100774
-0.00046093
0.0100652
-0.000542958
0.0100448
-0.000625873
0.0100289
-0.000709442
0.0100176
-0.000793955
0.0100123
-0.000879448
0.0100139
0.0100233
-0.000380623
0.0101579
-0.000462281
0.0101469
-0.000544255
0.0101268
-0.000627149
0.0101118
-0.00071069
0.0101012
-0.000795179
0.0100968
-0.000880633
0.0100994
0.0101099
-0.000381981
0.0102383
-0.000463583
0.0102285
-0.000545498
0.0102087
-0.000628371
0.0101946
-0.000711875
0.0101847
-0.000796338
0.0101813
-0.000881746
0.0101848
0.0101965
-0.000383279
0.0103186
-0.000464837
0.0103101
-0.000546689
0.0102906
-0.00062954
0.0102775
-0.000713003
0.0102681
-0.000797432
0.0102657
-0.000882785
0.0102702
0.0102831
-0.000384517
0.0103986
-0.000466041
0.0103916
-0.000547831
0.0103724
-0.000630659
0.0103603
-0.000714075
0.0103516
-0.000798465
0.0103501
-0.000883754
0.0103555
0.0103695
-0.000385693
0.0104786
-0.000467197
0.0104731
-0.000548921
0.0104541
-0.000631728
0.0104431
-0.000715093
0.0104349
-0.000799439
0.0104345
-0.000884656
0.0104407
0.0104558
-0.000386804
0.0105584
-0.000468307
0.0105546
-0.000549962
0.0105358
-0.00063275
0.0105259
-0.000716058
0.0105182
-0.000800357
0.0105187
-0.000885495
0.0105258
0.0105421
-0.00038785
0.010638
-0.000469372
0.0106361
-0.000550953
0.0106173
-0.000633724
0.0106087
-0.000716971
0.0106015
-0.00080122
0.010603
-0.000886271
0.0106109
0.0106282
-0.000388825
0.0107174
-0.000470407
0.0107177
-0.000551907
0.0106988
-0.000634676
0.0106914
-0.00071786
0.0106847
-0.000802066
0.0106872
-0.000887032
0.0106958
-0.0111554
-0.00244072
-0.0111453
-0.00243981
-0.011132
-0.002438
-0.0111151
-0.00243514
-0.0110942
-0.00243103
-0.0110688
-0.00242543
-0.0110381
-0.00241807
-0.0110017
-0.00240859
-0.0109589
-0.00239656
-0.0109092
-0.00238141
-0.0108522
-0.00236253
-0.0107881
-0.00233956
-0.00231167
-0.0111575
-0.00244793
-0.0111474
-0.00244983
-0.0111342
-0.00245121
-0.0111174
-0.00245194
-0.0110966
-0.00245188
-0.0110712
-0.00245086
-0.0110406
-0.00244863
-0.0110043
-0.00244486
-0.0109618
-0.00243909
-0.0109124
-0.0024308
-0.0108553
-0.00241963
-0.0107898
-0.00240511
-0.00238376
-0.0111584
-0.00245493
-0.0111484
-0.00245983
-0.0111351
-0.00246454
-0.011118
-0.002469
-0.0110967
-0.00247315
-0.0110707
-0.00247688
-0.0110393
-0.00248
-0.0110019
-0.00248226
-0.0109578
-0.00248327
-0.010906
-0.00248258
-0.0108459
-0.00247974
-0.0107772
-0.00247373
-0.00246215
-0.0111592
-0.00246091
-0.0111498
-0.00246915
-0.0111369
-0.00247746
-0.0111201
-0.00248587
-0.0110988
-0.00249438
-0.0110727
-0.00250297
-0.0110412
-0.00251156
-0.0110035
-0.00251996
-0.0109588
-0.0025279
-0.0109064
-0.00253504
-0.0108451
-0.00254103
-0.0107737
-0.0025451
-0.00254443
-0.0111576
-0.00246405
-0.0111503
-0.00247642
-0.0111388
-0.00248895
-0.0111229
-0.00250179
-0.0111022
-0.00251505
-0.0110764
-0.00252883
-0.0110448
-0.00254315
-0.0110068
-0.00255798
-0.0109615
-0.0025732
-0.0109079
-0.00258864
-0.0108449
-0.00260401
-0.0107713
-0.00261874
-0.00263103
-0.0111478
-0.0024605
-0.0111458
-0.00247847
-0.0111382
-0.0024965
-0.0111252
-0.0025148
-0.0111066
-0.00253363
-0.0110822
-0.00255323
-0.0110516
-0.00257377
-0.0110142
-0.00259538
-0.0109692
-0.00261817
-0.0109156
-0.00264225
-0.010852
-0.0026676
-0.0107766
-0.00269413
-0.00272047
-0.0111157
-0.00244292
-0.0111251
-0.00246907
-0.0111267
-0.00249489
-0.0111208
-0.00252068
-0.0111077
-0.0110872
-0.0110595
-0.011024
-0.0109803
-0.0109274
-0.0108638
-0.0107875
-0.0110328
-0.0110649
-0.0110855
)
;

boundaryField
{
    inlet
    {
        type            calculated;
        value           nonuniform 0();
    }
    outlet
    {
        type            calculated;
        value           nonuniform 0();
    }
    polygon
    {
        type            calculated;
        value           nonuniform 0();
    }
    top
    {
        type            symmetryPlane;
        value           uniform 0;
    }
    bottom
    {
        type            symmetryPlane;
        value           uniform 0;
    }
    outside
    {
        type            calculated;
        value           nonuniform List<scalar> 
23
(
0.000296851
0.000298529
0.000300093
0.0003016
0.000303046
0.000304433
0.000305759
0.000307022
0.000308222
0.000309368
0.00243338
0.0024297
0.00242473
0.00241828
0.00241012
0.00239995
0.00238745
0.0023722
0.00235375
0.00233164
0.00230561
0.00227544
0.002241
)
;
    }
    procBoundary58to49
    {
        type            processor;
        value           nonuniform List<scalar> 3(-0.0098433 -0.00984293 -0.00984978);
    }
    procBoundary58to50
    {
        type            processor;
        value           nonuniform List<scalar> 
25
(
-0.000964919
-0.000966167
-0.000967297
-0.000968349
-0.000969313
-0.000970195
-0.000971
-0.000971731
-0.000972389
-0.000973032
0.0107142
-0.00254681
-0.00257364
-0.00260155
-0.00263082
-0.00266185
-0.00269517
-0.00273126
-0.00277039
-0.00281215
-0.00239908
-0.00243704
-0.00247422
-0.0110953
-0.00251089
)
;
    }
    procBoundary58to57
    {
        type            processor;
        value           nonuniform List<scalar> 5(-0.00991582 -0.00990181 -0.0098807 -0.00986305 -0.00985047);
    }
    procBoundary58to59
    {
        type            processor;
        value           nonuniform List<scalar> 8(0.0111627 0.0111647 0.0111654 0.0111651 0.0111607 0.0111443 0.0110981 0.010989);
    }
}


// ************************************************************************* //
