/*--------------------------------*- C++ -*----------------------------------*\
  =========                 |
  \\      /  F ield         | OpenFOAM: The Open Source CFD Toolbox
   \\    /   O peration     | Website:  https://openfoam.org
    \\  /    A nd           | Version:  7
     \\/     M anipulation  |
\*---------------------------------------------------------------------------*/
FoamFile
{
    version     2.0;
    format      ascii;
    class       volScalarField;
    location    "78";
    object      p;
}
// * * * * * * * * * * * * * * * * * * * * * * * * * * * * * * * * * * * * * //

dimensions      [0 2 -2 0 0 0 0];

internalField   nonuniform List<scalar> 
4000
(
0.0188453
0.0287911
0.0323251
0.0384743
0.0417811
0.0455846
0.0477105
0.049705
0.0498212
0.0496281
0.0461464
0.0429531
0.0323915
0.0240681
-0.00107533
-0.0291711
-0.0920789
-0.205738
-0.370147
-0.889322
0.00896391
0.0185393
0.0218199
0.0273255
0.030124
0.0331596
0.0344861
0.0353008
0.0340375
0.0318618
0.0262035
0.0193203
0.00455283
-0.0131601
-0.0467022
-0.0815363
-0.136822
-0.150912
-0.235613
-0.0145317
-0.000286728
0.00914624
0.0122015
0.0172842
0.0195597
0.0218853
0.0222383
0.0217105
0.0187545
0.0141197
0.00552122
-0.00635496
-0.0267572
-0.0531107
-0.0932548
-0.134306
-0.188806
-0.240751
-0.289304
-0.429271
-0.0091397
6.0077e-05
0.00281751
0.00744792
0.00912364
0.010635
0.00990424
0.00794081
0.00328839
-0.00383404
-0.0157675
-0.0324708
-0.0577067
-0.0892316
-0.129163
-0.162373
-0.19836
-0.195042
-0.252763
-0.137998
-0.0177381
-0.00888954
-0.00650125
-0.00238142
-0.00133735
-0.000649876
-0.00240482
-0.00571305
-0.0120758
-0.0216613
-0.0366832
-0.0574993
-0.0864826
-0.120426
-0.156407
-0.180725
-0.203891
-0.229514
-0.233756
-0.254616
-0.0260807
-0.0176463
-0.0156618
-0.0120998
-0.0117315
-0.0119411
-0.0147737
-0.0196163
-0.0281521
-0.0405543
-0.0586212
-0.0825901
-0.113107
-0.145456
-0.172784
-0.186277
-0.205154
-0.19842
-0.218536
-0.168789
-0.034131
-0.0261469
-0.0245728
-0.0215863
-0.0218761
-0.0229385
-0.0267697
-0.0328595
-0.0428106
-0.0568484
-0.0766214
-0.102307
-0.133039
-0.162181
-0.182036
-0.191897
-0.20314
-0.207886
-0.204851
-0.196811
-0.0418614
-0.0343608
-0.0331978
-0.0308204
-0.0317701
-0.0336955
-0.0386847
-0.0463825
-0.058426
-0.074985
-0.0971282
-0.124327
-0.153693
-0.177256
-0.190382
-0.196658
-0.203186
-0.19266
-0.194132
-0.167509
-0.0492679
-0.0422956
-0.0415246
-0.0397824
-0.0413303
-0.0440624
-0.0498903
-0.0583835
-0.0708851
-0.0873244
-0.108529
-0.134169
-0.161617
-0.181953
-0.193027
-0.197001
-0.198031
-0.189925
-0.18561
-0.16882
-0.0563233
-0.0499272
-0.0495073
-0.048446
-0.0505605
-0.0541751
-0.0609646
-0.0707943
-0.0852043
-0.104181
-0.128367
-0.157366
-0.1863
-0.207006
-0.213859
-0.206972
-0.195843
-0.179506
-0.172784
-0.150526
0.121977
0.139672
0.146203
0.161154
0.171223
0.18625
0.199592
0.216576
0.234558
0.256554
0.281588
0.312348
0.347363
0.391071
0.438632
0.499298
0.55547
0.641462
0.687219
0.829248
0.111734
0.128973
0.134933
0.1492
0.15825
0.172196
0.184021
0.199223
0.214754
0.233839
0.254931
0.28149
0.310683
0.348628
0.385917
0.441806
0.479667
0.566002
0.581884
0.718674
0.10156
0.118073
0.123583
0.136851
0.144981
0.157617
0.167976
0.181376
0.194686
0.211288
0.229245
0.25274
0.278004
0.313788
0.347499
0.403456
0.440109
0.525967
0.547087
0.666983
0.0914348
0.107166
0.112298
0.124632
0.131946
0.143387
0.152402
0.164144
0.175349
0.189512
0.204125
0.224087
0.243913
0.275453
0.300296
0.353554
0.376176
0.466506
0.473059
0.604936
0.0812194
0.096162
0.100923
0.112357
0.118876
0.129127
0.136793
0.146826
0.15583
0.167374
0.1784
0.194545
0.208862
0.235685
0.25343
0.300764
0.319258
0.396406
0.412248
0.519636
0.0708779
0.0850178
0.0894205
0.0999448
0.105697
0.114743
0.12109
0.129416
0.136252
0.14518
0.152711
0.164958
0.174018
0.195711
0.206402
0.248459
0.257099
0.339047
0.341424
0.494771
0.0604646
0.0737834
0.0778691
0.087479
0.0925266
0.100385
0.10551
0.112183
0.116979
0.123274
0.127465
0.135594
0.139385
0.154448
0.158268
0.188368
0.191055
0.237572
0.250307
0.323881
0.0500236
0.0625063
0.0663371
0.0750504
0.0794905
0.0862043
0.0902478
0.0953703
0.0983469
0.102504
0.103797
0.108617
0.107123
0.117475
0.113209
0.142531
0.133922
0.213731
0.193056
0.435682
0.0396168
0.0512552
0.0549147
0.0627446
0.0666741
0.0722949
0.0754328
0.0791737
0.080813
0.0831482
0.0820906
0.0834826
0.0775574
0.0800333
0.0671676
0.0760803
0.0540771
0.0414769
0.00436264
-0.0468166
0.0292113
0.0399971
0.0435771
0.0505601
0.0541269
0.0587399
0.0612064
0.0638941
0.0645352
0.0654177
0.0626082
0.0617643
0.0529763
0.0527161
0.0377164
0.0547062
0.0540904
0.14766
0.154402
0.487387
0.0292113
0.0399971
0.0435771
0.0505601
0.0541269
0.0587399
0.0612064
0.0638941
0.0645352
0.0654177
0.0626082
0.0617643
0.0529763
0.0527161
0.0377164
0.0547062
0.0540904
0.14766
0.154402
0.487387
0.0396168
0.0512552
0.0549147
0.0627446
0.0666741
0.0722949
0.0754328
0.0791737
0.080813
0.0831482
0.0820906
0.0834826
0.0775574
0.0800333
0.0671676
0.0760803
0.0540771
0.0414769
0.00436264
-0.0468166
0.0500236
0.0625063
0.0663371
0.0750504
0.0794905
0.0862043
0.0902478
0.0953703
0.0983469
0.102504
0.103797
0.108617
0.107123
0.117475
0.113209
0.142531
0.133922
0.213731
0.193056
0.435682
0.0604646
0.0737834
0.0778691
0.087479
0.0925266
0.100385
0.10551
0.112183
0.116979
0.123274
0.127465
0.135594
0.139385
0.154448
0.158268
0.188368
0.191055
0.237572
0.250307
0.323881
0.0708779
0.0850178
0.0894206
0.0999448
0.105697
0.114743
0.12109
0.129416
0.136252
0.14518
0.152711
0.164958
0.174018
0.195711
0.206402
0.248459
0.257099
0.339047
0.341424
0.494771
0.0812194
0.096162
0.100923
0.112357
0.118876
0.129127
0.136793
0.146826
0.15583
0.167374
0.1784
0.194545
0.208862
0.235685
0.25343
0.300764
0.319258
0.396406
0.412248
0.519636
0.0914348
0.107166
0.112298
0.124632
0.131946
0.143387
0.152402
0.164144
0.175349
0.189512
0.204125
0.224087
0.243913
0.275453
0.300296
0.353554
0.376176
0.466506
0.473059
0.604936
0.10156
0.118073
0.123583
0.136851
0.144981
0.157617
0.167976
0.181376
0.194686
0.211288
0.229245
0.25274
0.278004
0.313788
0.347499
0.403456
0.440109
0.525967
0.547087
0.666983
0.111734
0.128973
0.134933
0.1492
0.15825
0.172196
0.184021
0.199223
0.214754
0.233839
0.254931
0.28149
0.310683
0.348628
0.385917
0.441806
0.479667
0.566002
0.581884
0.718674
0.121977
0.139672
0.146203
0.161154
0.171223
0.18625
0.199592
0.216576
0.234558
0.256554
0.281588
0.312348
0.347363
0.391071
0.438632
0.499298
0.55547
0.641462
0.687219
0.829248
-0.0563233
-0.0499271
-0.0495073
-0.048446
-0.0505605
-0.054175
-0.0609646
-0.0707943
-0.0852043
-0.104181
-0.128367
-0.157366
-0.1863
-0.207006
-0.213859
-0.206972
-0.195843
-0.179506
-0.172784
-0.150526
-0.0492679
-0.0422956
-0.0415246
-0.0397824
-0.0413303
-0.0440624
-0.0498903
-0.0583835
-0.0708851
-0.0873244
-0.108529
-0.134169
-0.161617
-0.181953
-0.193027
-0.197001
-0.198031
-0.189925
-0.18561
-0.16882
-0.0418614
-0.0343608
-0.0331978
-0.0308204
-0.0317701
-0.0336955
-0.0386847
-0.0463825
-0.058426
-0.074985
-0.0971282
-0.124327
-0.153693
-0.177256
-0.190382
-0.196658
-0.203186
-0.19266
-0.194132
-0.167509
-0.034131
-0.0261469
-0.0245728
-0.0215863
-0.0218761
-0.0229385
-0.0267697
-0.0328595
-0.0428106
-0.0568484
-0.0766214
-0.102307
-0.133039
-0.162181
-0.182036
-0.191897
-0.20314
-0.207886
-0.204851
-0.196811
-0.0260807
-0.0176463
-0.0156618
-0.0120998
-0.0117315
-0.0119411
-0.0147737
-0.0196163
-0.0281521
-0.0405543
-0.0586212
-0.0825901
-0.113107
-0.145456
-0.172784
-0.186277
-0.205154
-0.19842
-0.218536
-0.168789
-0.0177381
-0.00888954
-0.00650125
-0.00238141
-0.00133734
-0.000649875
-0.00240482
-0.00571305
-0.0120758
-0.0216613
-0.0366832
-0.0574993
-0.0864826
-0.120426
-0.156407
-0.180725
-0.203891
-0.229514
-0.233756
-0.254616
-0.0091397
6.00783e-05
0.00281752
0.00744792
0.00912364
0.010635
0.00990424
0.00794081
0.00328839
-0.00383404
-0.0157675
-0.0324708
-0.0577067
-0.0892316
-0.129163
-0.162373
-0.19836
-0.195042
-0.252763
-0.137998
-0.000286727
0.00914625
0.0122015
0.0172842
0.0195597
0.0218853
0.0222383
0.0217105
0.0187545
0.0141197
0.00552122
-0.00635496
-0.0267572
-0.0531107
-0.0932548
-0.134306
-0.188806
-0.240751
-0.289304
-0.429271
0.00896391
0.0185393
0.0218199
0.0273255
0.030124
0.0331596
0.0344861
0.0353008
0.0340375
0.0318618
0.0262035
0.0193203
0.00455283
-0.0131601
-0.0467022
-0.0815363
-0.136822
-0.150912
-0.235613
-0.0145317
0.0188453
0.0287911
0.0323251
0.0384743
0.0417811
0.0455846
0.0477105
0.049705
0.0498212
0.0496281
0.0461464
0.0429531
0.0323915
0.0240681
-0.00107533
-0.0291711
-0.0920789
-0.205738
-0.370147
-0.889322
0.154894
0.173139
0.181742
0.196331
0.208993
0.223818
0.239233
0.25637
0.27532
0.29662
0.32072
0.348328
0.380111
0.416764
0.458317
0.505042
0.555012
0.609492
0.659647
0.708553
0.198071
0.214385
0.22301
0.236853
0.249936
0.264958
0.28127
0.299236
0.318936
0.340543
0.364126
0.389707
0.417154
0.446227
0.476475
0.507319
0.537184
0.566941
0.588741
0.610344
0.234404
0.248748
0.256297
0.268192
0.279322
0.291744
0.304884
0.318925
0.333912
0.349894
0.366873
0.384786
0.403514
0.422806
0.442307
0.461324
0.479383
0.494986
0.507238
0.514838
0.261726
0.273648
0.280158
0.290418
0.300119
0.310934
0.322327
0.334357
0.346959
0.360041
0.373485
0.387139
0.400797
0.414213
0.427064
0.439026
0.449576
0.458397
0.464665
0.468255
0.282638
0.291946
0.29694
0.30477
0.31205
0.320078
0.328432
0.337141
0.346154
0.3554
0.36479
0.374207
0.383509
0.392513
0.401012
0.408739
0.415461
0.420837
0.424665
0.426669
0.298439
0.305877
0.309923
0.316269
0.322185
0.328684
0.335387
0.342296
0.349335
0.356423
0.363466
0.370363
0.376999
0.383253
0.388992
0.394083
0.398378
0.401759
0.404085
0.405282
0.309761
0.315158
0.318081
0.322657
0.326908
0.331556
0.336329
0.341228
0.346198
0.351181
0.356113
0.360921
0.365526
0.369842
0.373779
0.377243
0.380149
0.38241
0.383964
0.384755
0.318428
0.322703
0.325013
0.328632
0.331974
0.335613
0.339319
0.343088
0.346871
0.350616
0.354272
0.357784
0.361098
0.364159
0.36691
0.369301
0.371281
0.372808
0.373847
0.374373
0.324432
0.327403
0.329021
0.331554
0.333902
0.336457
0.339062
0.341712
0.344372
0.347006
0.349578
0.352049
0.354379
0.35653
0.358461
0.360136
0.361522
0.362588
0.363313
0.363679
0.329084
0.331447
0.332717
0.334706
0.336532
0.33851
0.340511
0.342531
0.344542
0.346516
0.348425
0.350242
0.35194
0.353494
0.354877
0.356069
0.357049
0.357799
0.358307
0.358563
0.332241
0.333841
0.334711
0.336078
0.337341
0.338714
0.340108
0.341519
0.342928
0.344315
0.34566
0.346943
0.348144
0.349244
0.350225
0.35107
0.351766
0.352298
0.352659
0.352841
0.334725
0.33601
0.336698
0.337775
0.33876
0.339824
0.340896
0.341974
0.343043
0.344087
0.345092
0.346045
0.346931
0.347738
0.348453
0.349067
0.34957
0.349954
0.350214
0.350344
0.336377
0.337233
0.337694
0.338426
0.339098
0.33983
0.340571
0.341321
0.342066
0.342798
0.343505
0.344178
0.344805
0.345378
0.345887
0.346324
0.346683
0.346957
0.347143
0.347236
0.337705
0.338404
0.338777
0.339361
0.339892
0.340466
0.341042
0.34162
0.342192
0.34275
0.343285
0.343792
0.344262
0.344688
0.345066
0.34539
0.345655
0.345856
0.345993
0.346061
0.338565
0.339026
0.33927
0.339665
0.340024
0.340417
0.340814
0.341215
0.341614
0.342005
0.342382
0.34274
0.343074
0.343378
0.343648
0.343879
0.344069
0.344214
0.344312
0.344361
0.339278
0.339666
0.339869
0.340192
0.340484
0.340799
0.341116
0.341433
0.341747
0.342052
0.342345
0.342622
0.342878
0.343111
0.343317
0.343493
0.343637
0.343747
0.343821
0.343859
0.339718
0.339975
0.340107
0.340329
0.340527
0.340747
0.340968
0.341192
0.341415
0.341633
0.341844
0.342044
0.34223
0.3424
0.342551
0.34268
0.342786
0.342867
0.342922
0.34295
0.340083
0.340308
0.340425
0.340615
0.340786
0.340972
0.341159
0.341347
0.341533
0.341714
0.341889
0.342053
0.342206
0.342345
0.342468
0.342573
0.342659
0.342724
0.342769
0.342791
0.340272
0.340421
0.340494
0.340631
0.340747
0.340885
0.341021
0.341162
0.341302
0.341441
0.341576
0.341704
0.341824
0.341933
0.34203
0.342114
0.342183
0.342235
0.34227
0.342288
0.340461
0.340601
0.340683
0.340814
0.340937
0.341073
0.341211
0.341351
0.341491
0.341629
0.341762
0.341888
0.342005
0.342111
0.342206
0.342287
0.342353
0.342404
0.342438
0.342455
-0.000211562
-0.000325877
-0.000305904
-0.000118651
0.000246792
0.000834458
0.00169368
0.00286831
0.0043969
0.00630747
0.00860979
0.01129
0.0143049
0.01758
0.0210075
0.0244439
0.0277048
0.0305577
0.0327213
0.0339032
-0.00113356
-0.00151839
-0.00172138
-0.00177583
-0.00174385
-0.00162959
-0.00142957
-0.00114194
-0.000759753
-0.000268235
0.000353586
0.00113026
0.00208578
0.00323605
0.00458053
0.00609197
0.00770055
0.00927203
0.0105844
0.0113508
-0.00254686
-0.0031114
-0.00327093
-0.00306797
-0.00251084
-0.00153643
-8.53882e-05
0.0018849
0.00440347
0.0074775
0.0110839
0.0151575
0.0195881
0.0242216
0.028865
0.0332947
0.0372684
0.0405408
0.0428837
0.0441112
-0.00475569
-0.00585288
-0.00640247
-0.00664036
-0.00660664
-0.00625684
-0.00555771
-0.00448527
-0.00301634
-0.00113451
0.00116215
0.00385427
0.00689216
0.0101897
0.013621
0.0170205
0.0201859
0.0228852
0.0248759
0.0259347
-0.00781802
-0.0094449
-0.0101792
-0.0104843
-0.0103463
-0.00966658
-0.00839416
-0.00649681
-0.00396045
-0.000800106
0.00292763
0.00712215
0.0116434
0.0163179
0.020947
0.0253159
0.0292046
0.0323956
0.0346768
0.0358813
-0.0120928
-0.014647
-0.0159493
-0.0169277
-0.0175137
-0.0176045
-0.0171638
-0.0161584
-0.0145585
-0.012356
-0.00957357
-0.00627466
-0.00256706
0.00139807
0.00543088
0.00931029
0.0128033
0.0156614
0.0177268
0.0187818
-0.0176503
-0.0212092
-0.0229894
-0.0245046
-0.0255325
-0.0259486
-0.0257172
-0.0248028
-0.0231863
-0.020881
-0.0179425
-0.0144678
-0.0105888
-0.00646723
-0.00228899
0.00174038
0.00540457
0.00846825
0.0106697
0.0118569
-0.0247575
-0.0296249
-0.032123
-0.0345882
-0.0365665
-0.0379508
-0.0387014
-0.0387545
-0.0380594
-0.036602
-0.0344102
-0.0315645
-0.0281952
-0.0244761
-0.0206187
-0.0168589
-0.0134469
-0.0105985
-0.00856537
-0.00750609
-0.0334886
-0.0397514
-0.0429493
-0.0463879
-0.0492629
-0.0515056
-0.0530674
-0.0538615
-0.0538321
-0.0529696
-0.0513081
-0.0489306
-0.0459601
-0.042554
-0.0389046
-0.0352234
-0.031794
-0.0288521
-0.0266768
-0.0255143
-0.0439403
-0.0517517
-0.0557604
-0.0603993
-0.0644132
-0.0677884
-0.0704518
-0.0722623
-0.0731348
-0.0730449
-0.0720191
-0.0701453
-0.0675649
-0.0644628
-0.0610527
-0.0575906
-0.0542956
-0.051475
-0.0493857
-0.0482699
-0.0560829
-0.0654249
-0.0702123
-0.0760537
-0.0811635
-0.085598
-0.0892598
-0.0919678
-0.0936338
-0.0942398
-0.093821
-0.0924695
-0.0903213
-0.0875504
-0.0843683
-0.0810232
-0.0777865
-0.0749633
-0.0728514
-0.0717134
-0.0698405
-0.0806647
-0.0862237
-0.0932914
-0.099484
-0.104952
-0.109548
-0.113053
-0.115383
-0.116533
-0.116559
-0.115576
-0.113739
-0.111231
-0.108276
-0.105102
-0.101994
-0.0992496
-0.0971771
-0.0960554
-0.0849861
-0.0970975
-0.103318
-0.111467
-0.118548
-0.124843
-0.130152
-0.134252
-0.137083
-0.138662
-0.139065
-0.138415
-0.136868
-0.134608
-0.131853
-0.128839
-0.125854
-0.123196
-0.121181
-0.120087
-0.101207
-0.114356
-0.121109
-0.130145
-0.137881
-0.144757
-0.150514
-0.154954
-0.158055
-0.159864
-0.160482
-0.160048
-0.158719
-0.156683
-0.154134
-0.151317
-0.148496
-0.145969
-0.144044
-0.142998
-0.118049
-0.131899
-0.138992
-0.148624
-0.15671
-0.163875
-0.169809
-0.174372
-0.177572
-0.17949
-0.180243
-0.179969
-0.178826
-0.176987
-0.174644
-0.172024
-0.169383
-0.167005
-0.16519
-0.164202
-0.134998
-0.149196
-0.156426
-0.166341
-0.174474
-0.181645
-0.187505
-0.191982
-0.195123
-0.197029
-0.197829
-0.19766
-0.196667
-0.195016
-0.192882
-0.190475
-0.188034
-0.18583
-0.184143
-0.183225
-0.151484
-0.16568
-0.172839
-0.182731
-0.190642
-0.197585
-0.203188
-0.207442
-0.210427
-0.212257
-0.213059
-0.212961
-0.212101
-0.210616
-0.208681
-0.206482
-0.204243
-0.202215
-0.200662
-0.199816
-0.166968
-0.180864
-0.187768
-0.197382
-0.204859
-0.211405
-0.216624
-0.220564
-0.223333
-0.225045
-0.225817
-0.225768
-0.225015
-0.223691
-0.221943
-0.219946
-0.217903
-0.216051
-0.214631
-0.213857
-0.180965
-0.194334
-0.20084
-0.209995
-0.216899
-0.222954
-0.227724
-0.231318
-0.233848
-0.235424
-0.236152
-0.236135
-0.235475
-0.234288
-0.232708
-0.230893
-0.229033
-0.227343
-0.226048
-0.225342
-0.193087
-0.205797
-0.211809
-0.220404
-0.226666
-0.232198
-0.236494
-0.239741
-0.24203
-0.243469
-0.244147
-0.244151
-0.243569
-0.242503
-0.241071
-0.239419
-0.237721
-0.236177
-0.234993
-0.234348
-0.203048
-0.215065
-0.220537
-0.228554
-0.234157
-0.239188
-0.243026
-0.24595
-0.248015
-0.249325
-0.249952
-0.249969
-0.24945
-0.248483
-0.247176
-0.245663
-0.244104
-0.242687
-0.241601
-0.241009
-0.210674
-0.222061
-0.226983
-0.234477
-0.23944
-0.244029
-0.247441
-0.25008
-0.251943
-0.253138
-0.253716
-0.253741
-0.25327
-0.252385
-0.251181
-0.249786
-0.248342
-0.247034
-0.246031
-0.245486
-0.215894
-0.226799
-0.231182
-0.23827
-0.242627
-0.246871
-0.249889
-0.252295
-0.253975
-0.255073
-0.255605
-0.255629
-0.255198
-0.254375
-0.253256
-0.251954
-0.250612
-0.249392
-0.248458
-0.247951
-0.218692
-0.229351
-0.233217
-0.240075
-0.243853
-0.247881
-0.250515
-0.252769
-0.254265
-0.255294
-0.255771
-0.255799
-0.25539
-0.25462
-0.253567
-0.252343
-0.251081
-0.249935
-0.24906
-0.248584
-0.219052
-0.229823
-0.233187
-0.240069
-0.243266
-0.247253
-0.249471
-0.251688
-0.25296
-0.253961
-0.254381
-0.254402
-0.254013
-0.25328
-0.252282
-0.251122
-0.249929
-0.248847
-0.248022
-0.247575
-0.216924
-0.228369
-0.2312
-0.238472
-0.241023
-0.24519
-0.246933
-0.24918
-0.250264
-0.251213
-0.251591
-0.251598
-0.251222
-0.250521
-0.249569
-0.248467
-0.247336
-0.246314
-0.245536
-0.245115
-0.212435
-0.225332
-0.2275
-0.235545
-0.237381
-0.241809
-0.243197
-0.245379
-0.246353
-0.24722
-0.247563
-0.247552
-0.247185
-0.246512
-0.245606
-0.24456
-0.243492
-0.242528
-0.241797
-0.241402
-0.206937
-0.221153
-0.222844
-0.231367
-0.232878
-0.23722
-0.238491
-0.240484
-0.241397
-0.242158
-0.242466
-0.242435
-0.242076
-0.241434
-0.240576
-0.239592
-0.238591
-0.237691
-0.23701
-0.236643
-0.201229
-0.215972
-0.217726
-0.226132
-0.227687
-0.231709
-0.232964
-0.234715
-0.23557
-0.23622
-0.236487
-0.236435
-0.236087
-0.235481
-0.23468
-0.233767
-0.232842
-0.232014
-0.231389
-0.231053
-0.195262
-0.210172
-0.212145
-0.220236
-0.221906
-0.225558
-0.22679
-0.228295
-0.229071
-0.229611
-0.229828
-0.229758
-0.229425
-0.228864
-0.228131
-0.227301
-0.226464
-0.225718
-0.225157
-0.224855
-0.189018
-0.203995
-0.206163
-0.213926
-0.215681
-0.218987
-0.220161
-0.221437
-0.222109
-0.222544
-0.222707
-0.222622
-0.222312
-0.221806
-0.221154
-0.22042
-0.219684
-0.219031
-0.218541
-0.218278
-0.182562
-0.197599
-0.199914
-0.207403
-0.209199
-0.212206
-0.213288
-0.214356
-0.21491
-0.215244
-0.215353
-0.215258
-0.214977
-0.214537
-0.213977
-0.213353
-0.212729
-0.212178
-0.211765
-0.211544
-0.176068
-0.191143
-0.193576
-0.200834
-0.202651
-0.205403
-0.206381
-0.20726
-0.207693
-0.207932
-0.20799
-0.20789
-0.207648
-0.207283
-0.206826
-0.20632
-0.205817
-0.205374
-0.205043
-0.204866
-0.169765
-0.184798
-0.187342
-0.194385
-0.196228
-0.198759
-0.199638
-0.200349
-0.200667
-0.200819
-0.200834
-0.200736
-0.200539
-0.200255
-0.199907
-0.199524
-0.199146
-0.198814
-0.198567
-0.198435
-0.163904
-0.178737
-0.181399
-0.188207
-0.190098
-0.192433
-0.193232
-0.193799
-0.194017
-0.194094
-0.194075
-0.193986
-0.193838
-0.193639
-0.193401
-0.193143
-0.192889
-0.192667
-0.192501
-0.192413
-0.158717
-0.173128
-0.175915
-0.182442
-0.184404
-0.186566
-0.187308
-0.187761
-0.187896
-0.187914
-0.18787
-0.187797
-0.187701
-0.187586
-0.187456
-0.187317
-0.187181
-0.187062
-0.186973
-0.186926
-0.154388
-0.168118
-0.171026
-0.177205
-0.179256
-0.181263
-0.181974
-0.182348
-0.18242
-0.182396
-0.18234
-0.182286
-0.182243
-0.182208
-0.182176
-0.182146
-0.182117
-0.182092
-0.182072
-0.182061
-0.151042
-0.163829
-0.166836
-0.172593
-0.174734
-0.176602
-0.177311
-0.17763
-0.177667
-0.177619
-0.17756
-0.17753
-0.177535
-0.177571
-0.177627
-0.177691
-0.177755
-0.177809
-0.177848
-0.177869
-0.148731
-0.160346
-0.163405
-0.168673
-0.170886
-0.172627
-0.173354
-0.173647
-0.173674
-0.173618
-0.173567
-0.173561
-0.173609
-0.173705
-0.173833
-0.173975
-0.174113
-0.174231
-0.174318
-0.174364
-0.147442
-0.157713
-0.160759
-0.165484
-0.167726
-0.169357
-0.17011
-0.170402
-0.17044
-0.170394
-0.170357
-0.170376
-0.17046
-0.170602
-0.170784
-0.170984
-0.171178
-0.171344
-0.171466
-0.171531
-0.147099
-0.155926
-0.158881
-0.163033
-0.165245
-0.166779
-0.167555
-0.16787
-0.167937
-0.167915
-0.167901
-0.167944
-0.168055
-0.16823
-0.168449
-0.168686
-0.168917
-0.169115
-0.16926
-0.169336
-0.147574
-0.154939
-0.157723
-0.161293
-0.16341
-0.164858
-0.165648
-0.166
-0.166109
-0.166123
-0.166137
-0.1662
-0.166331
-0.166524
-0.166762
-0.167018
-0.167267
-0.16748
-0.167636
-0.167719
-0.148703
-0.154663
-0.157204
-0.160208
-0.162178
-0.163534
-0.164328
-0.164723
-0.164885
-0.164946
-0.164995
-0.165082
-0.165226
-0.165426
-0.165668
-0.165928
-0.166178
-0.166394
-0.166552
-0.166635
-0.150302
-0.154974
-0.157219
-0.159699
-0.161479
-0.162732
-0.163519
-0.163956
-0.164175
-0.164288
-0.164374
-0.164481
-0.164632
-0.16483
-0.165063
-0.165312
-0.165551
-0.165756
-0.165907
-0.165986
-0.152175
-0.155724
-0.157646
-0.159662
-0.161226
-0.162372
-0.163144
-0.163622
-0.163903
-0.164077
-0.164211
-0.164349
-0.164512
-0.164705
-0.164924
-0.165153
-0.165373
-0.165561
-0.165699
-0.165772
-0.154136
-0.156746
-0.158347
-0.15997
-0.161317
-0.16236
-0.163113
-0.163624
-0.163964
-0.164194
-0.164369
-0.164526
-0.164687
-0.164871
-0.165068
-0.165269
-0.16546
-0.165622
-0.165741
-0.165804
-0.156004
-0.157868
-0.159176
-0.160482
-0.161644
-0.1626
-0.163344
-0.163896
-0.164307
-0.164616
-0.164861
-0.165075
-0.165276
-0.165455
-0.165635
-0.165811
-0.165974
-0.166112
-0.166212
-0.166265
-0.157618
-0.158914
-0.159977
-0.161049
-0.162073
-0.162974
-0.163726
-0.164323
-0.164792
-0.165155
-0.165429
-0.165643
-0.165812
-0.165982
-0.166139
-0.166283
-0.166411
-0.166518
-0.166594
-0.166634
-0.158824
-0.159711
-0.160585
-0.161508
-0.162464
-0.163369
-0.164183
-0.164875
-0.165461
-0.165955
-0.166362
-0.166697
-0.166973
-0.167179
-0.167331
-0.167459
-0.167564
-0.167647
-0.167705
-0.167734
-0.159463
-0.160068
-0.160816
-0.161673
-0.162637
-0.16361
-0.164536
-0.165345
-0.16602
-0.166558
-0.16696
-0.167239
-0.167427
-0.167567
-0.167695
-0.167786
-0.167851
-0.167898
-0.167928
-0.167943
-0.159359
-0.15978
-0.16048
-0.161355
-0.16242
-0.163564
-0.164726
-0.165803
-0.166759
-0.167588
-0.168287
-0.168844
-0.169274
-0.169593
-0.169736
-0.169833
-0.169886
-0.169913
-0.169926
-0.169931
-0.158313
-0.158631
-0.159342
-0.160293
-0.16153
-0.162916
-0.164379
-0.165743
-0.166896
-0.16778
-0.168405
-0.168792
-0.169008
-0.169085
-0.16919
-0.169225
-0.169221
-0.169199
-0.169174
-0.169158
-0.156122
-0.156347
-0.15712
-0.158218
-0.159737
-0.16152
-0.163508
-0.165497
-0.167339
-0.168927
-0.170245
-0.171277
-0.172027
-0.172553
-0.172794
-0.172863
-0.172858
-0.172809
-0.172757
-0.172724
-0.152442
-0.152542
-0.153409
-0.154681
-0.156525
-0.158743
-0.161278
-0.163829
-0.166112
-0.167851
-0.169009
-0.169668
-0.169956
-0.170018
-0.170017
-0.169998
-0.169893
-0.169761
-0.169643
-0.169572
-0.146833
-0.146796
-0.147815
-0.149336
-0.15164
-0.154513
-0.157957
-0.161703
-0.165463
-0.168844
-0.171623
-0.17376
-0.175254
-0.176192
-0.17671
-0.176713
-0.176589
-0.176344
-0.176123
-0.175976
-0.138808
-0.138516
-0.139664
-0.141376
-0.144096
-0.147541
-0.151717
-0.156262
-0.160746
-0.164497
-0.167076
-0.168487
-0.169111
-0.169277
-0.169164
-0.169187
-0.168961
-0.168638
-0.168317
-0.168097
-0.127971
-0.127245
-0.128468
-0.130327
-0.133592
-0.137985
-0.143629
-0.150264
-0.157544
-0.164757
-0.171064
-0.175902
-0.179284
-0.181237
-0.182232
-0.182143
-0.181579
-0.180587
-0.179694
-0.178971
-0.113781
-0.112337
-0.113441
-0.115108
-0.118417
-0.122966
-0.128932
-0.136049
-0.14391
-0.151493
-0.157459
-0.16107
-0.162708
-0.163629
-0.16416
-0.164702
-0.164871
-0.164343
-0.163629
-0.162806
-0.0955759
-0.0931734
-0.0943203
-0.0961355
-0.100192
-0.106085
-0.114216
-0.124548
-0.137017
-0.151017
-0.165355
-0.177884
-0.186702
-0.191535
-0.193329
-0.1927
-0.190491
-0.185885
-0.182055
-0.177381
-0.0725871
-0.0678778
-0.068038
-0.068569
-0.0717089
-0.0769668
-0.0848073
-0.0949926
-0.107142
-0.119699
-0.129165
-0.133019
-0.13288
-0.135132
-0.142373
-0.148977
-0.1542
-0.156418
-0.157274
-0.154769
0.340461
0.340601
0.340683
0.340814
0.340937
0.341073
0.341211
0.341351
0.341492
0.341629
0.341762
0.341888
0.342005
0.342111
0.342206
0.342287
0.342353
0.342404
0.342438
0.342455
0.340272
0.340421
0.340494
0.340631
0.340747
0.340885
0.341021
0.341162
0.341302
0.341441
0.341576
0.341704
0.341824
0.341933
0.34203
0.342114
0.342183
0.342235
0.34227
0.342288
0.340083
0.340308
0.340425
0.340615
0.340786
0.340972
0.341159
0.341347
0.341533
0.341714
0.341889
0.342053
0.342206
0.342345
0.342468
0.342573
0.342659
0.342724
0.342769
0.342791
0.339718
0.339975
0.340107
0.340329
0.340527
0.340747
0.340968
0.341192
0.341415
0.341633
0.341844
0.342044
0.34223
0.3424
0.342551
0.34268
0.342786
0.342867
0.342922
0.34295
0.339278
0.339666
0.339869
0.340192
0.340484
0.340799
0.341116
0.341433
0.341747
0.342052
0.342345
0.342622
0.342878
0.343111
0.343317
0.343493
0.343637
0.343747
0.343821
0.343859
0.338565
0.339026
0.33927
0.339665
0.340024
0.340417
0.340814
0.341215
0.341614
0.342005
0.342382
0.34274
0.343074
0.343378
0.343648
0.343879
0.344069
0.344214
0.344312
0.344361
0.337705
0.338404
0.338777
0.339361
0.339892
0.340466
0.341042
0.34162
0.342192
0.34275
0.343285
0.343792
0.344262
0.344688
0.345066
0.34539
0.345655
0.345856
0.345993
0.346061
0.336377
0.337233
0.337694
0.338426
0.339098
0.33983
0.340571
0.341321
0.342066
0.342798
0.343505
0.344178
0.344805
0.345378
0.345887
0.346324
0.346683
0.346957
0.347143
0.347236
0.334725
0.33601
0.336698
0.337775
0.33876
0.339824
0.340896
0.341974
0.343043
0.344087
0.345092
0.346045
0.346931
0.347738
0.348453
0.349067
0.34957
0.349954
0.350214
0.350344
0.332241
0.333841
0.334711
0.336078
0.337341
0.338714
0.340108
0.341519
0.342928
0.344315
0.34566
0.346943
0.348144
0.349244
0.350225
0.35107
0.351766
0.352298
0.352659
0.352841
0.329084
0.331447
0.332717
0.334706
0.336532
0.33851
0.340511
0.342531
0.344542
0.346516
0.348425
0.350242
0.35194
0.353494
0.354877
0.356069
0.357049
0.357799
0.358307
0.358563
0.324432
0.327403
0.329021
0.331554
0.333902
0.336457
0.339062
0.341712
0.344372
0.347006
0.349578
0.352049
0.354379
0.35653
0.358461
0.360136
0.361522
0.362588
0.363313
0.363679
0.318428
0.322703
0.325013
0.328632
0.331974
0.335613
0.339319
0.343088
0.346871
0.350616
0.354272
0.357784
0.361098
0.364159
0.36691
0.369301
0.371281
0.372808
0.373847
0.374373
0.309761
0.315158
0.318081
0.322657
0.326908
0.331556
0.336329
0.341228
0.346198
0.351181
0.356113
0.360921
0.365526
0.369842
0.373779
0.377243
0.380149
0.38241
0.383964
0.384755
0.298439
0.305877
0.309923
0.316269
0.322185
0.328684
0.335387
0.342296
0.349335
0.356423
0.363466
0.370363
0.376999
0.383253
0.388992
0.394083
0.398378
0.401759
0.404085
0.405282
0.282638
0.291946
0.29694
0.30477
0.31205
0.320078
0.328432
0.337141
0.346154
0.3554
0.36479
0.374207
0.383509
0.392513
0.401012
0.408739
0.415461
0.420837
0.424665
0.426669
0.261726
0.273648
0.280158
0.290418
0.300119
0.310934
0.322327
0.334357
0.346959
0.360041
0.373485
0.387139
0.400797
0.414213
0.427064
0.439026
0.449576
0.458397
0.464665
0.468255
0.234404
0.248748
0.256297
0.268192
0.279322
0.291744
0.304884
0.318925
0.333912
0.349894
0.366873
0.384786
0.403514
0.422806
0.442307
0.461324
0.479383
0.494986
0.507238
0.514838
0.198071
0.214385
0.22301
0.236853
0.249936
0.264958
0.28127
0.299236
0.318936
0.340543
0.364126
0.389707
0.417154
0.446227
0.476475
0.507319
0.537184
0.566941
0.588741
0.610344
0.154894
0.173139
0.181742
0.196331
0.208993
0.223818
0.239233
0.25637
0.27532
0.29662
0.32072
0.348328
0.380111
0.416764
0.458317
0.505042
0.555012
0.609492
0.659647
0.708553
-0.0725871
-0.0678778
-0.068038
-0.068569
-0.0717089
-0.0769668
-0.0848073
-0.0949926
-0.107142
-0.119699
-0.129165
-0.133019
-0.13288
-0.135132
-0.142373
-0.148977
-0.1542
-0.156418
-0.157274
-0.154769
-0.0955759
-0.0931734
-0.0943203
-0.0961355
-0.100192
-0.106085
-0.114216
-0.124548
-0.137017
-0.151017
-0.165355
-0.177884
-0.186702
-0.191535
-0.193329
-0.1927
-0.190491
-0.185885
-0.182055
-0.177381
-0.113781
-0.112337
-0.113441
-0.115108
-0.118417
-0.122966
-0.128932
-0.136049
-0.14391
-0.151493
-0.157459
-0.16107
-0.162708
-0.163629
-0.16416
-0.164702
-0.164871
-0.164343
-0.163629
-0.162806
-0.127971
-0.127245
-0.128469
-0.130327
-0.133592
-0.137985
-0.143629
-0.150264
-0.157544
-0.164757
-0.171064
-0.175902
-0.179284
-0.181237
-0.182232
-0.182143
-0.181579
-0.180587
-0.179694
-0.178971
-0.138808
-0.138516
-0.139664
-0.141376
-0.144096
-0.147541
-0.151717
-0.156262
-0.160746
-0.164497
-0.167076
-0.168487
-0.169111
-0.169277
-0.169164
-0.169187
-0.168961
-0.168638
-0.168317
-0.168097
-0.146833
-0.146796
-0.147815
-0.149336
-0.15164
-0.154513
-0.157957
-0.161703
-0.165463
-0.168844
-0.171623
-0.17376
-0.175254
-0.176192
-0.17671
-0.176713
-0.176589
-0.176344
-0.176123
-0.175976
-0.152442
-0.152542
-0.153409
-0.154681
-0.156525
-0.158743
-0.161278
-0.163829
-0.166112
-0.167851
-0.169009
-0.169668
-0.169956
-0.170018
-0.170017
-0.169998
-0.169893
-0.169761
-0.169643
-0.169572
-0.156122
-0.156347
-0.15712
-0.158218
-0.159737
-0.16152
-0.163508
-0.165497
-0.167339
-0.168927
-0.170245
-0.171277
-0.172027
-0.172553
-0.172794
-0.172863
-0.172858
-0.172809
-0.172757
-0.172724
-0.158313
-0.158631
-0.159342
-0.160293
-0.16153
-0.162916
-0.164379
-0.165743
-0.166896
-0.16778
-0.168405
-0.168792
-0.169008
-0.169085
-0.16919
-0.169225
-0.169221
-0.169199
-0.169174
-0.169158
-0.159359
-0.15978
-0.16048
-0.161355
-0.16242
-0.163564
-0.164726
-0.165803
-0.166759
-0.167588
-0.168287
-0.168844
-0.169274
-0.169593
-0.169736
-0.169833
-0.169886
-0.169913
-0.169926
-0.169931
-0.159463
-0.160068
-0.160816
-0.161673
-0.162637
-0.16361
-0.164536
-0.165345
-0.16602
-0.166558
-0.16696
-0.167239
-0.167427
-0.167567
-0.167695
-0.167786
-0.167851
-0.167898