/*--------------------------------*- C++ -*----------------------------------*\
  =========                 |
  \\      /  F ield         | OpenFOAM: The Open Source CFD Toolbox
   \\    /   O peration     | Website:  https://openfoam.org
    \\  /    A nd           | Version:  10
     \\/     M anipulation  |
\*---------------------------------------------------------------------------*/
FoamFile
{
    format      ascii;
    class       volScalarField;
    location    "10";
    object      p;
}
// * * * * * * * * * * * * * * * * * * * * * * * * * * * * * * * * * * * * * //

dimensions      [0 2 -2 0 0 0 0];

internalField   nonuniform List<scalar> 
1200
(
0.00155411
0.00224698
0.00564227
0.000292082
0.00526814
-0.0162886
-0.0188307
-0.0804584
-0.14277
-0.225257
0.00157136
0.00227717
0.00571845
0.000380877
0.00546349
-0.0160538
-0.0183495
-0.0796778
-0.14188
-0.223764
0.00158581
0.00230405
0.00578558
0.000462155
0.00564413
-0.0158263
-0.0179081
-0.0789517
-0.140869
-0.222565
0.00159845
0.00232789
0.0058452
0.000534685
0.00580656
-0.0156215
-0.0175024
-0.0782489
-0.139884
-0.221565
0.00160934
0.00234818
0.00589797
0.000597927
0.00595553
-0.015433
-0.017112
-0.0775482
-0.138943
-0.220644
0.00161838
0.00236463
0.00594351
0.000651253
0.00609049
-0.0152609
-0.0167408
-0.0768615
-0.13802
-0.219813
0.00162555
0.00237707
0.00598148
0.000694108
0.00621005
-0.0151076
-0.01639
-0.076194
-0.137153
-0.219067
0.00163084
0.00238533
0.00601187
0.000726058
0.00631384
-0.0149734
-0.016061
-0.0755433
-0.136233
-0.218389
0.00163423
0.00238917
0.00603429
0.000745839
0.00640366
-0.0148558
-0.0157576
-0.0749578
-0.135557
-0.217816
0.00163588
0.00238928
0.00604557
0.000750782
0.00646779
-0.0147798
-0.01544
-0.0742475
-0.134408
-0.217193
-0.178809
-0.182772
-0.192001
-0.205109
-0.225282
-0.256065
-0.298261
-0.379969
-0.455285
-0.979591
-0.179965
-0.184204
-0.193286
-0.206272
-0.226115
-0.256536
-0.296983
-0.381515
-0.450609
-0.830974
-0.180968
-0.185605
-0.194817
-0.208131
-0.228429
-0.260008
-0.301467
-0.388831
-0.472672
-0.710597
-0.181808
-0.18687
-0.196257
-0.209976
-0.230763
-0.263543
-0.306219
-0.393598
-0.488017
-0.663888
-0.182477
-0.187923
-0.197399
-0.21139
-0.232355
-0.265765
-0.30892
-0.394726
-0.493896
-0.632089
-0.182979
-0.188757
-0.198229
-0.212351
-0.233227
-0.266808
-0.309944
-0.393973
-0.496445
-0.608164
-0.183324
-0.189388
-0.198787
-0.212937
-0.233546
-0.26697
-0.309732
-0.391709
-0.497173
-0.593804
-0.183525
-0.189837
-0.199107
-0.2132
-0.233406
-0.266407
-0.308623
-0.388465
-0.49657
-0.586462
-0.183587
-0.190104
-0.199195
-0.213137
-0.232794
-0.265026
-0.306162
-0.383225
-0.491772
-0.582867
-0.183543
-0.190235
-0.19913
-0.212874
-0.231939
-0.263272
-0.303422
-0.379273
-0.489244
-0.587109
-0.152603
-0.150903
-0.159823
-0.168119
-0.185031
-0.209235
-0.232973
-0.271839
-0.298697
-0.294429
-0.15934
-0.158834
-0.168734
-0.178841
-0.197835
-0.224915
-0.252871
-0.296158
-0.334162
-0.330625
-0.163408
-0.163563
-0.173436
-0.184267
-0.203451
-0.231532
-0.262596
-0.310418
-0.363051
-0.372139
-0.165775
-0.166458
-0.176161
-0.187463
-0.206837
-0.235899
-0.270329
-0.323491
-0.39027
-0.41863
-0.16781
-0.169072
-0.178782
-0.190651
-0.210595
-0.240887
-0.278718
-0.337433
-0.417033
-0.470552
-0.169964
-0.171831
-0.181638
-0.19409
-0.214651
-0.246027
-0.286761
-0.350792
-0.441538
-0.528448
-0.17213
-0.174565
-0.184429
-0.197352
-0.218328
-0.250409
-0.293343
-0.362383
-0.462648
-0.596648
-0.174136
-0.177071
-0.186911
-0.200154
-0.22132
-0.253755
-0.298212
-0.371926
-0.477248
-0.672536
-0.175912
-0.179279
-0.189019
-0.202437
-0.223598
-0.256033
-0.301205
-0.378893
-0.4857
-0.771454
-0.17747
-0.181197
-0.190765
-0.204207
-0.225149
-0.257231
-0.302126
-0.382661
-0.476502
-0.868856
0.00867188
0.00325071
0.0135237
0.00287258
0.0236701
0.00698179
0.0582841
0.0305971
0.209726
0.215177
0.00866086
0.00327753
0.0134979
0.00295977
0.0236421
0.00737148
0.0583741
0.0326111
0.21164
0.210714
0.00865178
0.0032896
0.013471
0.00301348
0.0235877
0.00758579
0.0582292
0.0335271
0.21112
0.203316
0.00864046
0.00330387
0.0134359
0.00307157
0.0235054
0.00782901
0.0579804
0.0344881
0.210025
0.192499
0.00862796
0.0033143
0.0133945
0.00312381
0.0233963
0.00803173
0.0575815
0.0350988
0.207601
0.178204
0.00861414
0.00332234
0.0133468
0.00317138
0.0232607
0.00820884
0.0570493
0.0354671
0.204046
0.160491
0.00859896
0.00332763
0.0132928
0.00321411
0.0230987
0.00835576
0.0563838
0.0355742
0.199277
0.139355
0.00858265
0.00333014
0.0132331
0.00325058
0.022912
0.00846898
0.0555846
0.0354189
0.193182
0.114752
0.00856552
0.00332713
0.0131704
0.00327984
0.0227042
0.00854445
0.0546729
0.0350197
0.185725
0.0866084
0.00854321
0.00333167
0.0130889
0.00332549
0.0224467
0.00865284
0.0536328
0.0345854
0.178332
0.0551389
0.00854319
0.00333167
0.0130889
0.00332549
0.0224467
0.00865284
0.0536328
0.0345854
0.178332
0.0551389
0.0085655
0.00332713
0.0131704
0.00327985
0.0227042
0.00854445
0.0546729
0.0350197
0.185725
0.0866084
0.00858263
0.00333014
0.0132331
0.00325058
0.022912
0.00846898
0.0555846
0.0354189
0.193182
0.114752
0.00859895
0.00332763
0.0132928
0.00321412
0.0230987
0.00835576
0.0563839
0.0355742
0.199277
0.139355
0.00861413
0.00332234
0.0133468
0.00317138
0.0232607
0.00820885
0.0570493
0.0354671
0.204046
0.160491
0.00862795
0.0033143
0.0133945
0.00312381
0.0233964
0.00803173
0.0575815
0.0350988
0.207601
0.178204
0.00864045
0.00330387
0.0134359
0.00307157
0.0235054
0.00782901
0.0579804
0.0344881
0.210025
0.192499
0.00865178
0.00328959
0.013471
0.00301348
0.0235877
0.0075858
0.0582292
0.0335271
0.21112
0.203316
0.00866086
0.00327753
0.0134979
0.00295977
0.0236421
0.00737148
0.0583741
0.0326111
0.21164
0.210714
0.00867188
0.00325071
0.0135237
0.00287258
0.0236701
0.00698179
0.0582841
0.0305971
0.209726
0.215177
-0.17747
-0.181197
-0.190765
-0.204207
-0.225149
-0.257231
-0.302126
-0.382661
-0.476502
-0.868856
-0.175912
-0.179279
-0.189019
-0.202437
-0.223598
-0.256033
-0.301205
-0.378893
-0.4857
-0.771454
-0.174136
-0.177071
-0.186911
-0.200154
-0.22132
-0.253755
-0.298212
-0.371926
-0.477248
-0.672536
-0.17213
-0.174565
-0.184429
-0.197352
-0.218328
-0.250409
-0.293343
-0.362383
-0.462648
-0.596648
-0.169964
-0.171831
-0.181638
-0.19409
-0.214652
-0.246027
-0.286761
-0.350792
-0.441538
-0.528448
-0.16781
-0.169072
-0.178782
-0.190651
-0.210595
-0.240887
-0.278718
-0.337434
-0.417033
-0.470552
-0.165775
-0.166458
-0.176161
-0.187463
-0.206837
-0.235899
-0.270329
-0.323491
-0.39027
-0.41863
-0.163408
-0.163563
-0.173437
-0.184267
-0.203451
-0.231532
-0.262596
-0.310418
-0.363051
-0.372139
-0.15934
-0.158834
-0.168735
-0.178841
-0.197835
-0.224915
-0.252871
-0.296158
-0.334162
-0.330625
-0.152603
-0.150903
-0.159823
-0.168119
-0.185031
-0.209235
-0.232973
-0.271839
-0.298697
-0.294429
-0.183543
-0.190235
-0.19913
-0.212874
-0.231939
-0.263272
-0.303422
-0.379273
-0.489244
-0.587109
-0.183587
-0.190104
-0.199195
-0.213137
-0.232794
-0.265026
-0.306162
-0.383225
-0.491772
-0.582867
-0.183525
-0.189837
-0.199107
-0.2132
-0.233406
-0.266407
-0.308623
-0.388465
-0.49657
-0.586462
-0.183324
-0.189388
-0.198787
-0.212937
-0.233546
-0.26697
-0.309732
-0.391709
-0.497173
-0.593804
-0.182979
-0.188757
-0.198229
-0.212351
-0.233227
-0.266808
-0.309944
-0.393973
-0.496445
-0.608164
-0.182477
-0.187923
-0.197399
-0.21139
-0.232355
-0.265765
-0.30892
-0.394726
-0.493896
-0.632089
-0.181808
-0.18687
-0.196257
-0.209976
-0.230763
-0.263543
-0.306219
-0.393598
-0.488017
-0.663888
-0.180968
-0.185605
-0.194817
-0.208131
-0.228429
-0.260008
-0.301467
-0.388831
-0.472672
-0.710597
-0.179965
-0.184204
-0.193286
-0.206272
-0.226115
-0.256536
-0.296983
-0.381515
-0.450609
-0.830974
-0.178809
-0.182772
-0.192001
-0.205109
-0.225282
-0.256065
-0.298261
-0.379969
-0.455285
-0.979591
0.00163588
0.00238928
0.00604557
0.000750782
0.00646779
-0.0147798
-0.01544
-0.0742475
-0.134408
-0.217193
0.00163423
0.00238917
0.00603429
0.000745842
0.00640366
-0.0148558
-0.0157576
-0.0749578
-0.135557
-0.217816
0.00163083
0.00238533
0.00601187
0.000726062
0.00631384
-0.0149734
-0.016061
-0.0755433
-0.136233
-0.218389
0.00162555
0.00237707
0.00598148
0.000694114
0.00621005
-0.0151076
-0.01639
-0.076194
-0.137153
-0.219067
0.00161838
0.00236463
0.00594351
0.000651261
0.0060905
-0.0152609
-0.0167408
-0.0768615
-0.13802
-0.219813
0.00160934
0.00234818
0.00589797
0.000597937
0.00595553
-0.015433
-0.017112
-0.0775482
-0.138943
-0.220644
0.00159844
0.00232789
0.0058452
0.000534697
0.00580657
-0.0156215
-0.0175023
-0.0782489
-0.139884
-0.221565
0.0015858
0.00230405
0.00578558
0.000462169
0.00564414
-0.0158263
-0.0179081
-0.0789517
-0.140869
-0.222565
0.00157136
0.00227717
0.00571845
0.000380893
0.00546349
-0.0160538
-0.0183495
-0.0796778
-0.14188
-0.223764
0.00155411
0.00224698
0.00564227
0.0002921
0.00526815
-0.0162886
-0.0188307
-0.0804584
-0.14277
-0.225257
0.0060058
0.00325894
0.00609774
0.000765847
0.000746895
-0.00766604
-0.018591
-0.0293397
-0.0727033
-0.086982
0.00647949
0.00302697
0.00707298
0.000880366
0.00331774
-0.00523095
-0.0117723
-0.0221309
-0.0639493
-0.0714399
0.00671904
0.00300241
0.00772996
0.00108217
0.00508134
-0.00401075
-0.0078217
-0.0181478
-0.0568598
-0.0651627
0.007073
0.00294232
0.00860131
0.00133314
0.0075863
-0.00215911
-0.000520651
-0.0123429
-0.0455249
-0.0542877
0.00737386
0.00294888
0.00944207
0.00163926
0.0100594
-0.000485444
0.00628475
-0.00684739
-0.0318236
-0.0467525
0.00766914
0.00297271
0.0102877
0.00197215
0.0127198
0.00126529
0.0149544
-0.00085264
-0.0126296
-0.0393253
0.00794577
0.00299642
0.0110899
0.0023286
0.0152757
0.00310133
0.0234499
0.00574895
0.010221
-0.0300659
0.00816792
0.00315696
0.0117851
0.00267908
0.0177273
0.00485835
0.0328447
0.0125821
0.0432581
-0.0368941
0.00837271
0.0031424
0.0124346
0.0029653
0.019909
0.00651223
0.0416955
0.0209147
0.083705
-0.00135082
0.00847954
0.00335555
0.0127854
0.00333654
0.0216143
0.00817187
0.0496135
0.029728
0.129595
-0.0451198
0.00847956
0.00335555
0.0127854
0.00333653
0.0216143
0.00817187
0.0496135
0.029728
0.129595
-0.0451198
0.00837271
0.0031424
0.0124346
0.0029653
0.019909
0.00651222
0.0416955
0.0209147
0.0837051
-0.00135081
0.00816792
0.00315696
0.0117851
0.00267908
0.0177273
0.00485835
0.0328447
0.0125821
0.0432581
-0.0368941
0.00794577
0.00299642
0.0110899
0.0023286
0.0152757
0.00310133
0.0234499
0.00574896
0.010221
-0.0300659
0.00766914
0.00297271
0.0102877
0.00197215
0.0127198
0.00126529
0.0149544
-0.000852635
-0.0126296
-0.0393253
0.00737385
0.00294888
0.00944207
0.00163927
0.0100594
-0.00048544
0.00628476
-0.00684738
-0.0318236
-0.0467524
0.007073
0.00294232
0.0086013
0.00133314
0.0075863
-0.00215911
-0.000520647
-0.0123429
-0.0455249
-0.0542876
0.00671903
0.00300241
0.00772996
0.00108218
0.00508135
-0.00401074
-0.00782169
-0.0181478
-0.0568598
-0.0651627
0.00647948
0.00302696
0.00707298
0.000880368
0.00331774
-0.00523095
-0.0117723
-0.0221308
-0.0639493
-0.0714399
0.00600579
0.00325893
0.00609773
0.000765848
0.0007469
-0.00766604
-0.018591
-0.0293397
-0.0727033
-0.086982
0.00149591
0.00215065
0.0054112
3.36794e-05
0.00478913
-0.016796
-0.0196176
-0.0816676
-0.149178
-0.224696
0.00138269
0.00192329
0.0049877
-0.000498558
0.0040097
-0.0176075
-0.0205067
-0.0814052
-0.140764
-0.222261
0.00124805
0.00166593
0.0045048
-0.00105383
0.00313288
-0.0184325
-0.0217742
-0.0816277
-0.14146
-0.230717
0.0011011
0.00139616
0.00401511
-0.00158356
0.00233603
-0.019089
-0.0226077
-0.0804978
-0.131175
-0.223537
0.000949751
0.00112386
0.00353857
-0.00207208
0.00163179
-0.019595
-0.023277
-0.0796605
-0.127286
-0.218924
0.000798829
0.000854903
0.00308647
-0.00250686
0.00105224
-0.0198871
-0.0234498
-0.0778428
-0.116967
-0.209412
0.000649643
0.00058985
0.00266015
-0.00288891
0.000585713
-0.0200329
-0.0235085
-0.0765465
-0.11299
-0.202159
0.000503124
0.000331789
0.00226642
-0.00321005
0.000251923
-0.0199255
-0.0229594
-0.0739762
-0.102034
-0.19378
0.000373369
9.76508e-05
0.00191849
-0.00349272
2.07052e-06
-0.0198343
-0.022706
-0.0728052
-0.0997241
-0.188558
0.000182364
-0.000236885
0.00146425
-0.00374775
-9.00848e-05
-0.0191481
-0.0212051
-0.068787
-0.0872046
-0.180549
0.000182365
-0.000236884
0.00146425
-0.00374777
-9.00961e-05
-0.0191481
-0.021205
-0.068787
-0.0872047
-0.180549
0.00037337
9.76516e-05
0.00191848
-0.00349274
2.05912e-06
-0.0198343
-0.022706
-0.0728052
-0.0997241
-0.188558
0.000503125
0.00033179
0.00226641
-0.00321006
0.000251912
-0.0199255
-0.0229594
-0.0739761
-0.102034
-0.19378
0.000649644
0.000589851
0.00266014
-0.00288893
0.000585702
-0.0200329
-0.0235085
-0.0765465
-0.11299
-0.202159
0.00079883
0.000854903
0.00308647
-0.00250687
0.00105222
-0.0198871
-0.0234498
-0.0778428
-0.116967
-0.209412
0.000949751
0.00112386
0.00353857
-0.00207209
0.00163178
-0.019595
-0.023277
-0.0796605
-0.127286
-0.218924
0.0011011
0.00139616
0.0040151
-0.00158357
0.00233602
-0.019089
-0.0226077
-0.0804978
-0.131175
-0.223537
0.00124805
0.00166593
0.00450479
-0.00105385
0.00313287
-0.0184325
-0.0217742
-0.0816277
-0.14146
-0.230717
0.00138269
0.00192329
0.0049877
-0.000498573
0.0040097
-0.0176075
-0.0205067
-0.0814052
-0.140764
-0.222261
0.00149591
0.00215065
0.00541119
3.36625e-05
0.00478912
-0.016796
-0.0196177
-0.0816676
-0.149178
-0.224696
)
;

boundaryField
{
    inlet
    {
        type            zeroGradient;
    }
    outlet
    {
        type            fixedValue;
        value           uniform 0;
    }
    polygon
    {
        type            zeroGradient;
    }
    top
    {
        type            symmetryPlane;
    }
    bottom
    {
        type            symmetryPlane;
    }
    outside
    {
        type            slip;
    }
}


// ************************************************************************* //
