/*--------------------------------*- C++ -*----------------------------------*\
  =========                 |
  \\      /  F ield         | OpenFOAM: The Open Source CFD Toolbox
   \\    /   O peration     | Website:  https://openfoam.org
    \\  /    A nd           | Version:  10
     \\/     M anipulation  |
\*---------------------------------------------------------------------------*/
FoamFile
{
    format      ascii;
    class       surfaceScalarField;
    location    "10";
    object      phi;
}
// * * * * * * * * * * * * * * * * * * * * * * * * * * * * * * * * * * * * * //

dimensions      [0 3 -1 0 0 0 0];

internalField   nonuniform List<scalar> 
2280
(
-0.00339536
0.000853084
-0.000933867
-0.00324307
0.00164505
-0.00179734
-0.00307099
0.00192735
-0.00209943
-0.00284098
0.00264649
-0.00287651
-0.00259666
0.00291617
-0.00316048
-0.00227915
0.0038173
-0.00413481
-0.00192363
0.00416249
-0.004518
-0.00141369
0.00537101
-0.00588096
-0.000882612
0.00273623
-0.00326731
0.00502815
-0.00591076
-0.00338648
0.00076869
-0.00322602
0.00148458
-0.00304349
0.00174483
-0.00279634
0.00239934
-0.00253249
0.00265232
-0.00218585
0.00347066
-0.00180218
0.00377881
-0.00126143
0.00483026
-0.000791121
0.00226593
0.00423703
-0.00337808
0.000680826
-0.00321021
0.0013167
-0.00301726
0.00155188
-0.00275471
0.00213679
-0.00247113
0.00236873
-0.00209869
0.00309822
-0.00168779
0.00336792
-0.00112299
0.00426546
-0.000709065
0.001852
0.00352796
-0.00337039
0.000589785
-0.00319571
0.00114202
-0.00299314
0.00134932
-0.00271634
0.00185999
-0.00241448
0.00206687
-0.00201838
0.00270212
-0.00158314
0.00293269
-0.000999976
0.00368229
-0.000637018
0.00148904
0.00289095
-0.00336353
0.000495919
-0.00318278
0.000961272
-0.0029716
0.00113813
-0.00268201
0.0015704
-0.00236373
0.00174859
-0.00194656
0.00228495
-0.00149013
0.00247625
-0.00089325
0.00308541
-0.000575116
0.00117091
0.00231583
-0.00335763
0.000399637
-0.00317167
0.000775312
-0.00295306
0.00091951
-0.00265243
0.00126978
-0.00231997
0.00141613
-0.00188476
0.00184974
-0.00141047
0.00200197
-0.000803638
0.00247858
-0.000523507
0.000890777
0.00179232
-0.0033528
0.000301391
-0.00316259
0.00058511
-0.00293791
0.000694826
-0.00262825
0.000960113
-0.00228419
0.00107207
-0.0018343
0.00139985
-0.00134572
0.00151339
-0.000731811
0.00186467
-0.000482414
0.00064138
0.00130991
-0.00334912
0.000201679
-0.00315573
0.000391724
-0.00292649
0.000465584
-0.00261002
0.000643642
-0.00225722
0.000719275
-0.00179633
0.00093896
-0.00129719
0.00101424
-0.000678456
0.00124593
-0.000452082
0.000415006
0.000857827
-0.00334667
0.00010103
-0.00315124
0.000196292
-0.00291906
0.000233406
-0.00259818
0.000322764
-0.00223973
0.000360821
-0.00177176
0.000470986
-0.00126591
0.000508402
-0.000643871
0.000623893
-0.000432864
0.000203998
0.000424963
-0.00334552
-5.36745e-12
-0.00314923
-1.40184e-11
-0.00291583
-2.4184e-11
-0.00259306
-7.85231e-12
-0.00223224
-4.52007e-12
-0.00176126
1.72899e-11
-0.00125285
2.2323e-11
-0.000628961
2.67724e-11
-0.000424963
7.74138e-12
-8.99702e-12
-0.000515525
0.0175921
-0.017404
-0.000709708
0.017699
-0.0175048
-0.000909913
0.0177873
-0.0175871
-0.00112026
0.0179625
-0.0177522
-0.00134499
0.0182144
-0.0179897
-0.00159669
0.0185793
-0.0183276
-0.00188268
0.0191698
-0.0188838
-0.00222876
0.0201172
-0.0197711
-0.0022929
0.0206944
-0.0206302
0.0178376
-0.0201305
-0.000513041
0.017778
-0.000704812
0.0178907
-0.000901915
0.0179844
-0.00110804
0.0181687
-0.00132594
0.0184323
-0.00156944
0.0188228
-0.0018368
0.0194372
-0.00209944
0.0203798
-0.00202444
0.0206194
0.0158132
-0.000510354
0.0179619
-0.000699731
0.0180801
-0.000893845
0.0181785
-0.00109594
0.0183708
-0.00130791
0.0186443
-0.00154228
0.0190571
-0.00179292
0.0196878
-0.00199013
0.020577
-0.00180872
0.020438
0.0140045
-0.000507424
0.0181437
-0.000694401
0.0182671
-0.000885556
0.0183697
-0.00108376
0.018569
-0.00128984
0.0188504
-0.00151423
0.0192815
-0.00174548
0.0199191
-0.00188942
0.020721
-0.00162943
0.020178
0.012375
-0.000504275
0.0183235
-0.000688827
0.0184516
-0.000876904
0.0185577
-0.00107099
0.018763
-0.00127082
0.0190502
-0.0014843
0.019495
-0.00169396
0.0201287
-0.00178907
0.0208161
-0.00146574
0.0198547
0.0109093
-0.000500931
0.0185012
-0.00068302
0.0186337
-0.000867832
0.0187426
-0.00105738
0.0189526
-0.00125033
0.0192432
-0.00145145
0.0196961
-0.0016376
0.0203149
-0.00168601
0.0208645
-0.00131082
0.0194795
0.00959848
-0.000497459
0.018677
-0.000677091
0.0188134
-0.000858617
0.0189241
-0.00104354
0.0191375
-0.00122959
0.0194292
-0.00141835
0.0198849
-0.00158185
0.0204784
-0.00158574
0.0208684
-0.00116506
0.0190588
0.00843341
-0.000493789
0.0188508
-0.00067086
0.0189904
-0.000848886
0.0191021
-0.00102863
0.0193173
-0.00120665
0.0196072
-0.00138039
0.0200586
-0.00151611
0.0206141
-0.00147867
0.0208309
-0.00102069
0.0186008
0.00741273
-0.000490232
0.0190228
-0.000664967
0.0191652
-0.000839946
0.0192771
-0.00101533
0.0194927
-0.00118692
0.0197788
-0.00134927
0.020221
-0.00146279
0.0207276
-0.00139055
0.0207587
-0.000887694
0.0180979
0.00652503
-0.00048626
0.0191935
-0.00065761
0.0193365
-0.000828484
0.019448
-0.000996643
0.0196608
-0.00115725
0.0199394
-0.00129727
0.020361
-0.00137027
0.0208006
-0.00125068
0.0206391
-0.000728792
0.0175761
0.00579624
-0.000200394
0.0186484
-0.018768
-9.06573e-05
0.0186837
-0.0187935
1.76457e-05
0.0187504
-0.0188587
0.000107649
0.0188498
-0.0189398
0.000184331
0.0190239
-0.0191006
0.000240516
0.01927
-0.0193262
0.000241682
0.0195617
-0.0195628
0.000185642
0.019878
-0.0198219
1.45591e-05
0.0200587
-0.0198876
0.0161978
-0.0161833
-0.000197468
0.0185226
-8.30262e-05
0.0185693
2.91759e-05
0.0186382
0.000126884
0.0187521
0.000211629
0.0189391
0.000276153
0.0192055
0.000286901
0.0195509
0.000232609
0.0199322
6.34622e-05
0.0202278
0.0162613
-0.000195514
0.0183934
-7.64024e-05
0.0184502
3.96758e-05
0.0185221
0.000143615
0.0186481
0.000235278
0.0188475
0.00030732
0.0191335
0.000328934
0.0195293
0.000280748
0.0199804
0.000119902
0.0203887
0.0163812
-0.000193637
0.0182609
-7.0468e-05
0.018327
4.97248e-05
0.0184019
0.000159392
0.0185384
0.00025786
0.018749
0.000338715
0.0190526
0.000373706
0.0194943
0.000336008
0.0200181
0.000187796
0.0205369
0.016569
-0.000191617
0.0181255
-6.44816e-05
0.0181999
6.00362e-05
0.0182774
0.000175585
0.0184229
0.000281473
0.0186431
0.000372628
0.0189615
0.000423648
0.0194433
0.000400252
0.0200415
0.00026816
0.020669
0.0168371
-0.000189311
0.0179871
-5.81739e-05
0.0180687
7.08466e-05
0.0181483
0.000192573
0.0183012
0.00030651
0.0185292
0.000408901
0.0188591
0.00047792
0.0193743
0.000472917
0.0200465
0.000365035
0.0207768
0.0172022
-0.000186736
0.0178456
-5.1604e-05
0.0179336
8.19566e-05
0.0180148
0.000209924
0.0181732
0.000332143
0.018407
0.000446236
0.018745
0.000535093
0.0192854
0.000553678
0.0200279
0.000478814
0.0208517
0.017681
-0.000183906
0.0177013
-4.48126e-05
0.0177945
9.33151e-05
0.0178767
0.000227554
0.018039
0.000358247
0.0182763
0.000484778
0.0186184
0.000594924
0.0191753
0.000642891
0.01998
0.000624326
0.0208703
0.0183053
-0.000180981
0.017554
-3.80975e-05
0.0176516
0.000104384
0.0177342
0.000244566
0.0178988
0.000383397
0.0181374
0.000521954
0.0184799
0.000654299
0.0190429
0.000738141
0.0198961
0.000798386
0.02081
0.0191037
-0.000177676
-3.08379e-05
0.000116251
0.000262846
0.000410565
0.000562886
0.000721992
0.000847043
0.00102683
0.00353216
3.37629e-06
2.28054e-12
0.00353615
-3.99357e-06
-3.09804e-12
0.00354486
-8.71066e-06
8.38182e-12
0.00351544
2.94237e-05
-5.73323e-12
0.00351002
5.41715e-06
-2.94488e-13
0.00343191
7.81064e-05
-2.10559e-12
0.00341268
1.92358e-05
6.34249e-12
0.00303999
0.000372687
-7.85093e-12
0.00272234
0.000317652
3.54671e-12
0.00272234
1.87032e-13
0.00353209
6.8237e-06
0.0035363
-8.20498e-06
0.0035446
-1.70102e-05
0.00351537
5.86462e-05
0.00350902
1.17747e-05
0.00343156
0.000155561
0.00340745
4.33442e-05
0.00303519
0.00074495
0.00269629
0.000656552
0.00541863
0.00353197
1.03863e-05
0.00353653
-1.27627e-05
0.0035442
-2.46816e-05
0.00351545
8.73963e-05
0.00350772
1.95063e-05
0.00343182
0.000231462
0.00340147
7.36922e-05
0.00303316
0.00111326
0.00267744
0.00101227
0.00809607
0.00353182
1.41018e-05
0.00353684
-1.77836e-05
0.00354369
-3.15311e-05
0.00351565
0.000115437
0.00350617
2.89801e-05
0.00343262
0.000305018
0.00339502
0.00011129
0.00303416
0.00147411
0.00266574
0.0013807
0.0107618
0.00353165
1.7989e-05
0.00353721
-2.33502e-05
0.0035431
-3.74171e-05
0.00351595
0.000142587
0.0035045
4.04287e-05
0.00343393
0.000375586
0.00338844
0.000156783
0.00303842
0.00182413
0.00266048
0.00175863
0.0134223
0.00353148
2.20473e-05
0.00353764
-2.95102e-05
0.00354247
-4.2251e-05
0.00351633
0.000168727
0.0035028
5.39591e-05
0.00343567
0.000442716
0.00338194
0.000210514
0.00304613
0.00215994
0.00266126
0.00214351
0.0160836
0.00353133
2.6254e-05
0.00353809
-3.62719e-05
0.00354184
-4.60042e-05
0.00351675
0.000193819
0.00350119
6.9522e-05
0.0034377
0.000506205
0.00337581
0.000272403
0.00305738
0.00247836
0.00266731
0.00253358
0.0187509
0.00353122
3.05632e-05
0.00353856
-4.3604e-05
0.00354126
-4.87094e-05
0.00351718
0.000217903
0.0034998
8.69035e-05
0.00343987
0.000566135
0.00337049
0.000341777
0.00307208
0.00277678
0.00267756
0.00292811
0.0214284
0.00353119
3.49054e-05
0.00353902
-5.14365e-05
0.00354077
-5.04579e-05
0.00351758
0.000241092
0.00349875
0.000105739
0.003442
0.000622879
0.00336662
0.000417158
0.00308939
0.00305401
0.00269063
0.00332687
0.024119
0.00353183
3.86083e-05
0.00353857
-5.81757e-05
0.00354157
-5.34613e-05
0.00351666
0.00026601
0.00349984
0.000122557
0.00344234
0.000680372
0.00336753
0.000491974
0.00310604
0.0033155
0.00271008
0.00372283
0.0268291
0.00353183
-3.49054e-05
3.86083e-05
0.00353857
5.14365e-05
-5.81758e-05
0.00354157
5.04579e-05
-5.34613e-05
0.00351666
-0.000241092
0.00026601
0.00349984
-0.000105739
0.000122557
0.00344234
-0.000622879
0.000680372
0.00336753
-0.000417158
0.000491974
0.00310604
-0.00305401
0.0033155
0.00271008
-0.00332687
0.00372283
-0.024119
0.0268291
0.00353119
-3.05632e-05
0.00353902
4.3604e-05
0.00354077
4.87094e-05
0.00351758
-0.000217903
0.00349875
-8.69035e-05
0.003442
-0.000566135
0.00336662
-0.000341777
0.00308939
-0.00277678
0.00269063
-0.00292811
-0.0214284
0.00353122
-2.6254e-05
0.00353856
3.62719e-05
0.00354126
4.60041e-05
0.00351718
-0.000193819
0.0034998
-6.9522e-05
0.00343987
-0.000506205
0.00337049
-0.000272403
0.00307208
-0.00247836
0.00267756
-0.00253358
-0.0187509
0.00353133
-2.20473e-05
0.00353809
2.95102e-05
0.00354184
4.2251e-05
0.00351675
-0.000168727
0.00350119
-5.39591e-05
0.0034377
-0.000442716
0.00337581
-0.000210514
0.00305738
-0.00215994
0.00266731
-0.00214351
-0.0160836
0.00353148
-1.7989e-05
0.00353764
2.33502e-05
0.00354247
3.7417e-05
0.00351633
-0.000142587
0.0035028
-4.04287e-05
0.00343567
-0.000375586
0.00338194
-0.000156783
0.00304613
-0.00182413
0.00266126
-0.00175863
-0.0134223
0.00353165
-1.41018e-05
0.00353721
1.77836e-05
0.0035431
3.1531e-05
0.00351595
-0.000115437
0.0035045
-2.89801e-05
0.00343393
-0.000305018
0.00338844
-0.00011129
0.00303842
-0.00147411
0.00266048
-0.0013807
-0.0107618
0.00353182
-1.03864e-05
0.00353684
1.27627e-05
0.00354369
2.46816e-05
0.00351565
-8.73963e-05
0.00350617
-1.95063e-05
0.00343262
-0.000231462
0.00339502
-7.36922e-05
0.00303416
-0.00111326
0.00266574
-0.00101227
-0.00809607
0.00353197
-6.82371e-06
0.00353653
8.20499e-06
0.0035442
1.70102e-05
0.00351545
-5.86462e-05
0.00350772
-1.17747e-05
0.00343182
-0.000155561
0.00340147
-4.33442e-05
0.00303316
-0.00074495
0.00267744
-0.000656552
-0.00541863
0.00353209
-3.3763e-06
0.0035363
3.99358e-06
0.0035446
8.71064e-06
0.00351537
-2.94237e-05
0.00350902
-5.41715e-06
0.00343156
-7.81064e-05
0.00340745
-1.92358e-05
0.00303519
-0.000372687
0.00269629
-0.000317652
-0.00272234
0.00353216
0.00353615
0.00354486
0.00351544
0.00351002
0.00343191
0.00341268
0.00303999
0.00272234
-0.000177676
-0.017554
0.017404
-3.08379e-05
-0.0176516
0.0175048
0.000116251
-0.0177342
0.0175871
0.000262846
-0.0178988
0.0177522
0.000410565
-0.0181374
0.0179897
0.000562886
-0.0184799
0.0183276
0.000721992
-0.0190429
0.0188838
0.000847043
-0.0198961
0.0197711
0.00102683
-0.02081
0.0206302
-0.0191037
0.0201305
-0.000180981
-0.0177013
-3.80975e-05
-0.0177945
0.000104384
-0.0178767
0.000244566
-0.018039
0.000383397
-0.0182763
0.000521954
-0.0186184
0.000654299
-0.0191753
0.000738141
-0.01998
0.000798386
-0.0208703
-0.0183053
-0.000183906
-0.0178456
-4.48127e-05
-0.0179336
9.33151e-05
-0.0180148
0.000227554
-0.0181732
0.000358247
-0.018407
0.000484778
-0.018745
0.000594924
-0.0192854
0.000642891
-0.0200279
0.000624326
-0.0208517
-0.017681
-0.000186736
-0.0179871
-5.1604e-05
-0.0180687
8.19566e-05
-0.0181483
0.000209924
-0.0183012
0.000332143
-0.0185292
0.000446236
-0.0188591
0.000535093
-0.0193743
0.000553678
-0.0200465
0.000478814
-0.0207768
-0.0172022
-0.000189311
-0.0181255
-5.81739e-05
-0.0181999
7.08466e-05
-0.0182774
0.000192573
-0.0184229
0.00030651
-0.0186431
0.000408901
-0.0189615
0.00047792
-0.0194433
0.000472917
-0.0200415
0.000365035
-0.020669
-0.0168371
-0.000191617
-0.0182609
-6.44816e-05
-0.018327
6.00361e-05
-0.0184019
0.000175585
-0.0185384
0.000281473
-0.018749
0.000372628
-0.0190526
0.000423648
-0.0194943
0.000400252
-0.0200181
0.00026816
-0.0205369
-0.016569
-0.000193637
-0.0183934
-7.0468e-05
-0.0184502
4.97248e-05
-0.0185221
0.000159392
-0.0186481
0.00025786
-0.0188475
0.000338715
-0.0191335
0.000373706
-0.0195293
0.000336008
-0.0199804
0.000187796
-0.0203887
-0.0163812
-0.000195514
-0.0185226
-7.64025e-05
-0.0185693
3.96759e-05
-0.0186382
0.000143615
-0.0187521
0.000235278
-0.0189391
0.000307319
-0.0192055
0.000328934
-0.0195509
0.000280748
-0.0199322
0.000119902
-0.0202278
-0.0162613
-0.000197468
-0.0186484
-8.30261e-05
-0.0186837
2.91758e-05
-0.0187504
0.000126884
-0.0188498
0.000211629
-0.0190239
0.000276153
-0.01927
0.000286901
-0.0195617
0.000232609
-0.019878
6.34622e-05
-0.0200587
-0.0161978
-0.000200394
-0.018768
-9.06573e-05
-0.0187935
1.76457e-05
-0.0188587
0.000107649
-0.0189398
0.00018433
-0.0191006
0.000240516
-0.0193262
0.000241682
-0.0195628
0.000185642
-0.0198219
1.45591e-05
-0.0198876
-0.0161833
-0.00048626
-0.0190228
0.0191935
-0.00065761
-0.0191652
0.0193365
-0.000828484
-0.0192771
0.019448
-0.000996643
-0.0194927
0.0196608
-0.00115725
-0.0197788
0.0199394
-0.00129727
-0.020221
0.020361
-0.00137027
-0.0207276
0.0208006
-0.00125068
-0.0207587
0.0206391
-0.000728792
-0.0180979
0.0175761
-0.00652503
0.00579624
-0.000490232
-0.0188508
-0.000664967
-0.0189904
-0.000839946
-0.0191021
-0.00101533
-0.0193173
-0.00118692
-0.0196072
-0.00134927
-0.0200586
-0.00146279
-0.0206141
-0.00139055
-0.0208309
-0.000887694
-0.0186008
-0.00741273
-0.000493789
-0.018677
-0.00067086
-0.0188134
-0.000848886
-0.0189241
-0.00102863
-0.0191375
-0.00120665
-0.0194292
-0.00138039
-0.0198849
-0.00151611
-0.0204784
-0.00147867
-0.0208684
-0.00102069
-0.0190588
-0.00843341
-0.000497459
-0.0185012
-0.000677091
-0.0186337
-0.000858617
-0.0187426
-0.00104354
-0.0189526
-0.00122959
-0.0192432
-0.00141835
-0.0196961
-0.00158185
-0.0203149
-0.00158574
-0.0208645
-0.00116506
-0.0194795
-0.00959848
-0.000500931
-0.0183235
-0.00068302
-0.0184516
-0.000867831
-0.0185577
-0.00105738
-0.018763
-0.00125033
-0.0190502
-0.00145145
-0.019495
-0.0016376
-0.0201287
-0.00168601
-0.0208161
-0.00131082
-0.0198547
-0.0109093
-0.000504275
-0.0181437
-0.000688827
-0.0182671
-0.000876904
-0.0183697
-0.00107099
-0.018569
-0.00127082
-0.0188504
-0.0014843
-0.0192815
-0.00169396
-0.0199191
-0.00178907
-0.020721
-0.00146574
-0.020178
-0.012375
-0.000507424
-0.0179619
-0.000694401
-0.0180801
-0.000885556
-0.0181785
-0.00108376
-0.0183708
-0.00128984
-0.0186443
-0.00151423
-0.0190571
-0.00174548
-0.0196878
-0.00188942
-0.020577
-0.00162943
-0.020438
-0.0140045
-0.000510354
-0.017778
-0.000699731
-0.0178907
-0.000893845
-0.0179844
-0.00109594
-0.0181687
-0.00130791
-0.0184323
-0.00154228
-0.0188228
-0.00179292
-0.0194372
-0.00199013
-0.0203798
-0.00180872
-0.0206194
-0.0158132
-0.000513041
-0.0175921
-0.000704812
-0.017699
-0.000901915
-0.0177873
-0.00110804
-0.0179625
-0.00132594
-0.0182144
-0.00156944
-0.0185793
-0.0018368
-0.0191698
-0.00209944
-0.0201172
-0.00202444
-0.0206944
-0.0178376
-0.000515525
-0.000709708
-0.000909913
-0.00112026
-0.00134499
-0.00159669
-0.00188268
-0.00222876
-0.0022929
-0.00334552
-0.00010103
-0.00314923
-0.000196292
-0.00291583
-0.000233406
-0.00259306
-0.000322764
-0.00223224
-0.000360821
-0.00176126
-0.000470986
-0.00125285
-0.000508402
-0.000628961
-0.000623893
-0.000424963
-0.000203998
-0.000424963
-0.00334667
-0.000201679
-0.00315124
-0.000391724
-0.00291906
-0.000465584
-0.00259818
-0.000643642
-0.00223973
-0.000719275
-0.00177176
-0.000938959
-0.00126591
-0.00101424
-0.000643871
-0.00124593
-0.000432864
-0.000415006
-0.000857827
-0.00334912
-0.000301391
-0.00315573
-0.00058511
-0.00292649
-0.000694826
-0.00261002
-0.000960113
-0.00225722
-0.00107207
-0.00179633
-0.00139985
-0.00129719
-0.00151339
-0.000678456
-0.00186467
-0.000452082
-0.000641379
-0.00130991
-0.0033528
-0.000399637
-0.00316259
-0.000775312
-0.00293791
-0.00091951
-0.00262825
-0.00126978
-0.00228419
-0.00141613
-0.0018343
-0.00184974
-0.00134572
-0.00200197
-0.000731811
-0.00247858
-0.000482414
-0.000890777
-0.00179232
-0.00335763
-0.000495919
-0.00317167
-0.000961272
-0.00295306
-0.00113813
-0.00265243
-0.0015704
-0.00231997
-0.00174859
-0.00188476
-0.00228495
-0.00141047
-0.00247625
-0.000803638
-0.00308541
-0.000523507
-0.00117091
-0.00231583
-0.00336353
-0.000589785
-0.00318278
-0.00114202
-0.0029716
-0.00134932
-0.00268201
-0.00185999
-0.00236373
-0.00206687
-0.00194656
-0.00270212
-0.00149013
-0.00293269
-0.00089325
-0.00368229
-0.000575116
-0.00148904
-0.00289095
-0.00337039
-0.000680826
-0.00319571
-0.0013167
-0.00299314
-0.00155188
-0.00271634
-0.00213679
-0.00241448
-0.00236873
-0.00201838
-0.00309822
-0.00158314
-0.00336792
-0.000999976
-0.00426546
-0.000637018
-0.001852
-0.00352796
-0.00337808
-0.00076869
-0.00321021
-0.00148458
-0.00301726
-0.00174483
-0.00275471
-0.00239934
-0.00247113
-0.00265232
-0.00209869
-0.00347066
-0.00168779
-0.00377881
-0.00112299
-0.00483026
-0.000709065
-0.00226593
-0.00423703
-0.00338648
-0.000853084
-0.00322602
-0.00164505
-0.00304349
-0.00192735
-0.00279634
-0.00264649
-0.00253249
-0.00291617
-0.00218585
-0.0038173
-0.00180218
-0.00416249
-0.00126143
-0.00537101
-0.000791121
-0.00273623
-0.00502815
-0.00339536
-0.000933867
-0.00324307
-0.00179734
-0.00307099
-0.00209943
-0.00284098
-0.00287651
-0.00259666
-0.00316048
-0.00227915
-0.00413481
-0.00192363
-0.004518
-0.00141369
-0.00588096
-0.000882612
-0.00326731
-0.00591076
0.0165024
0.000293826
0.0164652
-0.000338498
0.0165335
0.000712958
0.016523
-0.00125609
0.0166211
0.000549687
0.0167609
-0.00171708
0.0168755
-9.83077e-06
0.017381
-0.00371162
0.0176484
-0.00167236
-0.00591226
0.0165085
0.000249788
0.0164604
-0.00029044
0.0165316
0.000641844
0.0165028
-0.00122732
0.0166014
0.000451036
0.0166895
-0.00180512
0.0168057
-0.000126063
0.0172904
-0.00419627
0.017498
-0.00187999
-0.00720773
0.0165125
0.000201798
0.0164575
-0.000235463
0.0165299
0.000569378
0.0164843
-0.00118169
0.0165833
0.000352059
0.0166368
-0.00185861
0.016734
-0.000223311
0.0171799
-0.00464216
0.0173607
-0.00206075
-0.00870571
0.0165157
0.000150572
0.0164544
-0.00017417
0.016529
0.000494744
0.0164613
-0.00111395
0.0165591
0.000254269
0.0165597
-0.00185922
0.0166516
-0.000315215
0.0170353
-0.00502591
0.0171739
-0.00219926
-0.0104716
0.0165161
9.89756e-05
0.0164533
-0.000111443
0.0165309
0.000417182
0.0164367
-0.00101974
0.0165335
0.000157436
0.016482
-0.00180767
0.016575
-0.000408231
0.0168507
-0.00530161
0.0169731
-0.0023217
-0.0125991
0.0165137
4.97359e-05
0.0164535
-5.12733e-05
0.0165343
0.000336405
0.0164113
-0.000896703
0.0165055
6.31812e-05
0.0163875
-0.00168966
0.0164768
-0.000497489
0.0165792
-0.00540397
0.0167335
-0.002476
-0.0151918
0.0165076
6.56833e-06
0.0164548
1.59018e-06
0.016538
0.00025314
0.0163871
-0.000745752
0.0164763
-2.60825e-05
0.0162891
-0.00150241
0.0163657
-0.000574108
0.0162745
-0.00531272
0.0164313
-0.00263282
-0.0183234
0.0164956
-2.45638e-05
0.0164576
3.95449e-05
0.0165371
0.000173695
0.0163696
-0.00057827
0.0164431
-9.95795e-05
0.0161906
-0.00124995
0.0162459
-0.000629396
0.015883
-0.00494974
0.0161603
-0.00291019
-0.021985
0.0164796
-3.97082e-05
0.0164605
5.86567e-05
0.0165292
0.000104981
0.0163629
-0.000411999
0.0164049
-0.000141561
0.0161068
-0.000951834
0.0161266
-0.00064922
0.0153687
-0.00419185
0.0156772
-0.00321866
-0.0261953
0.0164634
0.0164638
0.0165154
0.0163694
0.0163504
0.0160789
0.0159217
0.0150453
0.0155495
0.0164634
3.97082e-05
0.0164638
-5.86567e-05
0.0165154
-0.000104981
0.0163694
0.000411999
0.0163504
0.000141561
0.0160789
0.000951834
0.0159217
0.00064922
0.0150453
0.00419185
0.0155495
0.00321866
0.0261953
0.0164796
2.45638e-05
0.0164605
-3.95448e-05
0.0165292
-0.000173695
0.0163629
0.00057827
0.0164049
9.95795e-05
0.0161068
0.00124995
0.0161266
0.000629396
0.0153687
0.00494974
0.0156772
0.00291019
0.021985
0.0164956
-6.56834e-06
0.0164576
-1.59017e-06
0.0165371
-0.00025314
0.0163696
0.000745752
0.0164431
2.60825e-05
0.0161906
0.00150241
0.0162459
0.000574108
0.015883
0.00531272
0.0161603
0.00263282
0.0183234
0.0165076
-4.97359e-05
0.0164548
5.12733e-05
0.016538
-0.000336405
0.0163871
0.000896703
0.0164763
-6.31812e-05
0.0162891
0.00168966
0.0163657
0.000497489
0.0162745
0.00540397
0.0164313
0.002476
0.0151918
0.0165137
-9.89756e-05
0.0164535
0.000111443
0.0165343
-0.000417182
0.0164113
0.00101974
0.0165055
-0.000157436
0.0163875
0.00180767
0.0164768
0.000408231
0.0165792
0.00530161
0.0167335
0.0023217
0.0125991
0.0165161
-0.000150572
0.0164533
0.00017417
0.0165309
-0.000494744
0.0164367
0.00111395
0.0165335
-0.000254269
0.016482
0.00185922
0.016575
0.000315215
0.0168507
0.00502591
0.0169731
0.00219926
0.0104716
0.0165157
-0.000201798
0.0164544
0.000235463
0.016529
-0.000569378
0.0164613
0.00118169
0.0165591
-0.000352059
0.0165597
0.00185861
0.0166516
0.000223311
0.0170353
0.00464216
0.0171739
0.00206075
0.00870571
0.0165125
-0.000249788
0.0164575
0.00029044
0.0165299
-0.000641844
0.0164843
0.00122732
0.0165833
-0.000451036
0.0166368
0.00180512
0.016734
0.000126063
0.0171799
0.00419627
0.0173607
0.00187999
0.00720773
0.0165085
-0.000293826
0.0164604
0.000338498
0.0165316
-0.000712958
0.0165028
0.00125609
0.0166014
-0.000549687
0.0166895
0.00171708
0.0168057
9.83076e-06
0.0172904
0.00371162
0.017498
0.00167236
0.00591226
0.0165024
0.0164652
0.0165335
0.016523
0.0166211
0.0167609
0.0168755
0.017381
0.0176484
-0.0159411
-0.00125359
-0.0153686
-0.00236986
-0.0147219
-0.00274611
-0.0139215
-0.00367691
-0.0130713
-0.00401064
-0.0120367
-0.0051694
-0.0108262
-0.00572857
-0.00894353
-0.0077636
-0.00581986
-0.00639097
-0.00593438
-0.0161607
-0.00148346
-0.0157724
-0.0027582
-0.0153669
-0.00315164
-0.0149168
-0.00412695
-0.0145128
-0.00441468
-0.014127
-0.00555519
-0.0137855
-0.00607007
-0.0134369
-0.00811224
-0.0133578
-0.00647
-0.00171615
-0.0163446
-0.00164165
-0.0160928
-0.00300998
-0.0158516
-0.00339287
-0.0156278
-0.00435071
-0.0155026
-0.00453988
-0.0155236
-0.00553421
-0.0157179
-0.00587576
-0.0162723
-0.00755783
-0.0173183
-0.00542407
0.00160468
-0.0164726
-0.0017536
-0.0162998
-0.00318283
-0.016139
-0.00355366
-0.0160171
-0.00447263
-0.016007
-0.00454992
-0.0161969
-0.00534438
-0.016597
-0.00547564
-0.0174454
-0.0067094
-0.018648
-0.00422146
0.00375728
-0.0165527
-0.0018393
-0.0164178
-0.0033178
-0.016286
-0.00368542
-0.0161955
-0.00456312
-0.0162139
-0.00453153
-0.0164459
-0.00511236
-0.0168835
-0.00503808
-0.0177645
-0.00582843
-0.0188951
-0.00309081
0.00522318
-0.0166022
-0.00191033
-0.0164845
-0.00343551
-0.0163612
-0.00380872
-0.0162773
-0.00464702
-0.0162973
-0.00451154
-0.0165345
-0.00487512
-0.0169719
-0.00460065
-0.0178179
-0.0049825
-0.0188432
-0.00206544
0.00631935
-0.0166345
-0.00197227
-0.016526
-0.003544
-0.0164062
-0.00392854
-0.0163237
-0.00472955
-0.0163383
-0.00449693
-0.0165642
-0.00464923
-0.0169781
-0.00418673
-0.017774
-0.00418661
-0.0187413
-0.00109808
0.00723885
-0.0166564
-0.00202794
-0.0165545
-0.00364585
-0.0164389
-0.00404417
-0.01636
-0.00480842
-0.0163725
-0.0044844
-0.0165887
-0.00443304
-0.0169821
-0.00379341
-0.0177193
-0.00344937
-0.0186037
-0.00021365
0.00808309
-0.0166698
-0.00207936
-0.0165731
-0.00374246
-0.0164627
-0.00415463
-0.0163894
-0.00488169
-0.0164018
-0.00447206
-0.016606
-0.00422881
-0.01697
-0.00342936
-0.0176555
-0.00276389
-0.0185128
0.000643637
0.00890679
-0.0166745
-0.0165832
-0.0164756
-0.0164118
-0.0164277
-0.0166369
-0.0169884
-0.0176159
-0.0183771
-0.0166745
0.00207936
-0.0165832
0.00374246
-0.0164756
0.00415463
-0.0164118
0.00488169
-0.0164277
0.00447206
-0.0166369
0.00422881
-0.0169884
0.00342936
-0.0176159
0.00276389
-0.0183771
-0.000643637
-0.00890679
-0.0166698
0.00202794
-0.0165731
0.00364585
-0.0164627
0.00404417
-0.0163894
0.00480842
-0.0164018
0.0044844
-0.016606
0.00443304
-0.01697
0.00379341
-0.0176555
0.00344937
-0.0185128
0.00021365
-0.00808309
-0.0166564
0.00197227
-0.0165545
0.003544
-0.0164389
0.00392854
-0.01636
0.00472955
-0.0163725
0.00449693
-0.0165887
0.00464923
-0.0169821
0.00418673
-0.0177193
0.00418661
-0.0186037
0.00109808
-0.00723885
-0.0166345
0.00191033
-0.016526
0.00343551
-0.0164062
0.00380872
-0.0163237
0.00464702
-0.0163383
0.00451154
-0.0165642
0.00487512
-0.0169781
0.00460065
-0.017774
0.0049825
-0.0187413
0.00206544
-0.00631935
-0.0166022
0.0018393
-0.0164845
0.0033178
-0.0163612
0.00368542
-0.0162773
0.00456312
-0.0162973
0.00453153
-0.0165345
0.00511236
-0.0169719
0.00503808
-0.0178179
0.00582843
-0.0188432
0.00309081
-0.00522318
-0.0165527
0.0017536
-0.0164178
0.00318283
-0.016286
0.00355366
-0.0161955
0.00447263
-0.0162139
0.00454992
-0.0164459
0.00534438
-0.0168835
0.00547564
-0.0177645
0.0067094
-0.0188951
0.00422146
-0.00375728
-0.0164726
0.00164165
-0.0162998
0.00300998
-0.016139
0.00339287
-0.0160171
0.00435071
-0.016007
0.00453988
-0.0161969
0.00553421
-0.016597
0.00587576
-0.0174454
0.00755783
-0.018648
0.00542407
-0.00160468
-0.0163446
0.00148346
-0.0160928
0.0027582
-0.0158516
0.00315164
-0.0156278
0.00412695
-0.0155026
0.00441468
-0.0155236
0.00555519
-0.0157179
0.00607007
-0.0162723
0.00811224
-0.0173183
0.00647
0.00171615
-0.0161607
0.00125359
-0.0157724
0.00236986
-0.0153669
0.00274611
-0.0149168
0.00367691
-0.0145128
0.00401064
-0.014127
0.0051694
-0.0137855
0.00572857
-0.0134369
0.0077636
-0.0133578
0.00639097
0.00593438
-0.0159411
-0.0153686
-0.0147219
-0.0139215
-0.0130713
-0.0120367
-0.0108262
-0.00894353
-0.00581986
)
;

boundaryField
{
    inlet
    {
        type            calculated;
        value           nonuniform List<scalar> 
40
(
-0.00353553
-0.00353553
-0.00353553
-0.00353553
-0.00353553
-0.00353553
-0.00353553
-0.00353553
-0.00353553
-0.00353553
-0.00353553
-0.00353553
-0.00353553
-0.00353553
-0.00353553
-0.00353553
-0.00353553
-0.00353553
-0.00353553
-0.00353553
-0.0164645
-0.0164645
-0.0164645
-0.0164645
-0.0164645
-0.0164645
-0.0164645
-0.0164645
-0.0164645
-0.0164645
-0.0164645
-0.0164645
-0.0164645
-0.0164645
-0.0164645
-0.0164645
-0.0164645
-0.0164645
-0.0164645
-0.0164645
)
;
    }
    outlet
    {
        type            calculated;
        value           nonuniform List<scalar> 
40
(
0.00347615
0.00347088
0.00346595
0.00346143
0.0034574
0.00345392
0.00345104
0.00344883
0.00344732
0.00344655
0.00344655
0.00344732
0.00344883
0.00345104
0.00345392
0.0034574
0.00346143
0.00346595
0.00347088
0.00347615
0.0162608
0.0163906
0.0165028
0.0165846
0.0166385
0.0166732
0.0166964
0.016712
0.0167212
0.0167239
0.0167239
0.0167212
0.016712
0.0166964
0.0166732
0.0166385
0.0165846
0.0165028
0.0163906
0.0162608
)
;
    }
    polygon
    {
        type            calculated;
        value           uniform 0;
    }
    top
    {
        type            symmetryPlane;
        value           uniform 0;
    }
    bottom
    {
        type            symmetryPlane;
        value           uniform 0;
    }
    outside
    {
        type            calculated;
        value           nonuniform List<scalar> 
80
(
0.000327477
0.000327077
0.000326472
0.00032562
0.000324522
0.000323198
0.00032169
0.000319964
0.000318207
0.0003156
0.000319988
0.000323213
0.000324792
0.000326048
0.000327046
0.000327754
0.00032817
0.000328279
0.000328194
0.000327685
0.000327685
0.000328194
0.000328279
0.00032817
0.000327754
0.000327046
0.000326048
0.000324792
0.000323213
0.000319988
0.0003156
0.000318207
0.000319964
0.00032169
0.000323198
0.000324522
0.00032562
0.000326472
0.000327077
0.000327477
-0.000331712
0.000375697
-0.000781298
0.00126663
-0.000647826
0.00157731
-0.000104844
0.0032062
0.00140494
0.00479267
-0.000331712
0.000375697
-0.000781298
0.00126663
-0.000647826
0.00157731
-0.000104844
0.0032062
0.00140494
0.00479267
-0.0021288
-0.00383371
-0.0042623
-0.00494545
-0.0044562
-0.00401956
-0.00307788
-0.00213643
0.00140488
0.00972318
-0.0021288
-0.00383371
-0.0042623
-0.00494545
-0.0044562
-0.00401956
-0.00307788
-0.00213643
0.00140488
0.00972318
)
;
    }
}


// ************************************************************************* //
