/*--------------------------------*- C++ -*----------------------------------*\
  =========                 |
  \\      /  F ield         | OpenFOAM: The Open Source CFD Toolbox
   \\    /   O peration     | Website:  https://openfoam.org
    \\  /    A nd           | Version:  10
     \\/     M anipulation  |
\*---------------------------------------------------------------------------*/
FoamFile
{
    format      ascii;
    class       volVectorField;
    location    "10";
    object      U;
}
// * * * * * * * * * * * * * * * * * * * * * * * * * * * * * * * * * * * * * //

dimensions      [0 1 -1 0 0 0 0];

internalField   nonuniform List<vector> 
1200
(
(0.983202 -0.00768394 4.20196e-21)
(0.938618 -0.0147977 -1.2313e-20)
(0.89822 -0.0173357 4.84754e-19)
(0.844805 -0.0237627 1.03509e-19)
(0.769442 -0.0262432 2.85084e-19)
(0.713599 -0.0343612 3.00292e-18)
(0.591436 -0.0377002 -1.71442e-18)
(0.523913 -0.0490039 -1.71766e-18)
(0.300882 -0.0257954 1.35923e-17)
(0.228619 -0.0476433 1.99811e-17)
(0.981711 -0.00698242 1.93909e-20)
(0.934948 -0.0134707 -8.02961e-21)
(0.892118 -0.0158268 2.05334e-19)
(0.834709 -0.0217335 9.30171e-20)
(0.753895 -0.0240654 2.55825e-19)
(0.691407 -0.0315043 3.75365e-18)
(0.559879 -0.0344666 1.12014e-18)
(0.484085 -0.0443677 -4.74883e-18)
(0.251404 -0.0217959 7.09383e-18)
(0.221555 -0.0399989 -1.58037e-17)
(0.980317 -0.00624937 3.9296e-20)
(0.931503 -0.0120731 -2.15762e-20)
(0.886368 -0.0142282 1.57297e-20)
(0.825152 -0.0195629 1.09791e-19)
(0.739148 -0.0217281 1.94056e-19)
(0.670315 -0.0284282 2.76551e-18)
(0.530039 -0.0310626 8.83548e-19)
(0.446816 -0.0396256 7.97573e-18)
(0.20753 -0.0179823 4.7046e-18)
(0.215061 -0.0335604 -1.2049e-17)
(0.97904 -0.00548525 9.15395e-20)
(0.928338 -0.0106097 -2.7502e-20)
(0.881069 -0.0125392 -1.71736e-19)
(0.816311 -0.0172589 8.13932e-20)
(0.725479 -0.0192277 1.12514e-19)
(0.650734 -0.0251446 2.98267e-18)
(0.502465 -0.0274437 9.77186e-19)
(0.412685 -0.0347024 8.58359e-18)
(0.169297 -0.0146311 5.46592e-18)
(0.209043 -0.0278385 -1.22193e-17)
(0.9779 -0.00469299 1.99912e-19)
(0.925505 -0.00908674 -5.13062e-20)
(0.876315 -0.0107663 -4.98049e-19)
(0.808354 -0.0148317 9.79151e-20)
(0.713161 -0.0165685 -3.94927e-20)
(0.633065 -0.0216568 1.02982e-18)
(0.477686 -0.0236095 1.474e-18)
(0.382237 -0.0296175 1.33809e-17)
(0.136687 -0.0116933 9.08275e-18)
(0.203513 -0.022639 -1.92559e-17)
(0.976915 -0.00387596 8.48143e-20)
(0.923053 -0.00751104 -7.13737e-20)
(0.872195 -0.00891884 -1.1397e-18)
(0.801442 -0.0122947 9.04931e-20)
(0.702447 -0.0137683 -2.81277e-19)
(0.617681 -0.0179885 2.93073e-18)
(0.456189 -0.0195939 2.55969e-18)
(0.355975 -0.0244167 6.95344e-18)
(0.109643 -0.00911204 1.74538e-17)
(0.198556 -0.0179184 -3.66949e-17)
(0.976102 -0.00303783 3.45668e-20)
(0.921029 -0.0058903 -8.34914e-20)
(0.868788 -0.00700791 -1.16286e-18)
(0.795716 -0.00966403 6.3979e-20)
(0.693565 -0.0108478 5.03891e-19)
(0.604921 -0.014167 2.955e-18)
(0.438413 -0.0154265 1.17023e-18)
(0.334351 -0.0191252 4.38868e-18)
(0.088099 -0.00679453 5.41349e-18)
(0.194311 -0.013584 -2.57793e-17)
(0.975476 -0.00218261 8.58151e-21)
(0.919469 -0.00423316 -6.89327e-20)
(0.866162 -0.00504613 -5.94101e-19)
(0.7913 -0.00695825 3.77921e-22)
(0.686712 -0.00782974 1.14283e-19)
(0.595071 -0.0102225 4.35166e-18)
(0.424729 -0.0111357 4.44231e-19)
(0.317756 -0.0137725 3.77632e-18)
(0.0719889 -0.00477564 -3.70065e-18)
(0.190935 -0.00955338 2.24419e-17)
(0.975049 -0.00131467 -1.12842e-21)
(0.918408 -0.00254869 -7.2198e-20)
(0.864375 -0.00304732 -3.49533e-19)
(0.788293 -0.0041965 9.00108e-20)
(0.682044 -0.00474386 -4.54376e-19)
(0.588363 -0.0061952 4.4374e-18)
(0.415432 -0.00674392 -1.53257e-19)
(0.306501 -0.00831123 4.68267e-18)
(0.0612646 -0.00273364 1.51011e-17)
(0.18858 -0.00567852 3.47351e-17)
(0.974832 -0.00043895 8.20824e-23)
(0.917869 -0.000847677 -1.14679e-19)
(0.863467 -0.00102031 -2.85684e-19)
(0.786767 -0.00139337 5.23816e-20)
(0.679677 -0.00160508 -8.19838e-20)
(0.584963 -0.0020894 3.22859e-18)
(0.410732 -0.00234293 -8.00294e-19)
(0.300819 -0.00296131 7.74225e-18)
(0.0558998 -0.00113056 1.05936e-17)
(0.187359 -0.00202783 1.58942e-17)
(1.1609 0.0921569 -1.78312e-18)
(1.16776 0.102952 1.42019e-17)
(1.17333 0.105085 -2.47138e-18)
(1.18449 0.116426 1.99201e-17)
(1.20047 0.121668 -5.19279e-18)
(1.22345 0.136578 -1.48793e-17)
(1.26079 0.144409 -1.17374e-17)
(1.32156 0.175535 -1.11586e-17)
(1.36372 0.166167 -2.47197e-17)
(1.29456 0.177373 -5.49015e-17)
(1.16199 0.0920239 1.77835e-18)
(1.16905 0.101692 1.57295e-17)
(1.17471 0.103295 -5.34442e-18)
(1.18602 0.113492 2.5545e-17)
(1.20207 0.117519 -5.95926e-18)
(1.22565 0.130432 -1.344e-17)
(1.26278 0.134796 7.98994e-19)
(1.32364 0.161212 -8.50836e-18)
(1.33955 0.122655 1.21832e-17)
(1.10367 0.130049 -8.79733e-19)
(1.16294 0.0918238 -7.79073e-18)
(1.17029 0.100378 -5.96966e-19)
(1.17624 0.101434 8.36856e-18)
(1.18799 0.110451 2.97725e-17)
(1.20463 0.113144 -4.86263e-18)
(1.22968 0.123925 -1.14453e-17)
(1.26798 0.124404 1.49534e-17)
(1.32674 0.144294 -1.01653e-17)
(1.32492 0.0918304 -1.48367e-17)
(0.947085 0.0972696 -1.32632e-19)
(1.16375 0.0915531 -8.68922e-18)
(1.1714 0.0989974 1.08906e-17)
(1.17763 0.0994785 5.71377e-18)
(1.18983 0.107265 3.71438e-17)
(1.20701 0.108486 -8.30081e-18)
(1.23337 0.116949 -7.54403e-18)
(1.27237 0.11335 1.83122e-17)
(1.32568 0.12567 -2.50292e-18)
(1.30189 0.0654854 -1.45441e-17)
(0.836988 0.0703504 1.81541e-18)
(1.16442 0.0912178 3.87707e-18)
(1.17232 0.0975628 9.68468e-18)
(1.17876 0.0974527 1.42708e-17)
(1.1913 0.103984 3.19922e-17)
(1.20878 0.103655 3.39483e-18)
(1.23595 0.109703 -6.22878e-18)
(1.2748 0.102032 4.81771e-19)
(1.32069 0.106576 -2.33956e-17)
(1.27131 0.0419112 -9.53992e-18)
(0.734926 0.0469598 -1.19943e-18)
(1.16493 0.0908232 1.22755e-19)
(1.17306 0.096085 1.0498e-17)
(1.17963 0.0953707 2.14895e-17)
(1.19238 0.100625 2.71704e-17)
(1.20996 0.0986637 5.97162e-18)
(1.2375 0.102143 -4.19923e-18)
(1.2753 0.0902286 -6.39451e-18)
(1.31231 0.0868836 -2.0457e-17)
(1.23673 0.0202698 -1.43243e-17)
(0.640844 0.0263136 4.62873e-17)
(1.16532 0.0903808 1.00657e-17)
(1.17362 0.0945895 2.65677e-18)
(1.18028 0.0932809 2.87637e-17)
(1.19316 0.097285 2.36271e-17)
(1.21071 0.0937148 -7.45062e-18)
(1.23834 0.0946896 -8.49325e-18)
(1.2747 0.0787424 1.07974e-17)
(1.30237 0.0678223 -1.79592e-17)
(1.20153 0.000105947 1.65289e-17)
(0.558092 0.00698244 3.77508e-17)
(1.16556 0.0898804 9.03895e-18)
(1.17401 0.0930474 -7.05096e-18)
(1.18069 0.0911167 2.87653e-17)
(1.19363 0.0938065 1.72614e-17)
(1.21099 0.0884607 -1.03475e-17)
(1.23829 0.0865517 8.45426e-18)
(1.27211 0.0659165 7.64992e-18)
(1.28819 0.0467206 -1.64718e-17)
(1.16128 -0.0209985 1.67374e-17)
(0.485712 -0.0123598 3.00235e-17)
(1.16572 0.0893742 5.23774e-18)
(1.1743 0.0915761 -6.197e-18)
(1.18097 0.0891121 1.48682e-17)
(1.19388 0.0906773 2.3558e-17)
(1.21097 0.0839132 2.93509e-18)
(1.23772 0.0798104 2.83103e-18)
(1.2692 0.0558546 6.87419e-18)
(1.2758 0.0303136 -1.3584e-17)
(1.12652 -0.0390478 1.55925e-17)
(0.425402 -0.0330501 2.09152e-17)
(1.1657 0.0887279 1.30688e-17)
(1.17432 0.0898765 -4.84472e-18)
(1.18098 0.0866807 1.31587e-17)
(1.19381 0.0866911 2.95143e-17)
(1.21057 0.0776491 2.35512e-18)
(1.23631 0.069629 1.5574e-17)
(1.26332 0.039122 4.61289e-18)
(1.25468 0.00257615 -1.186e-17)
(1.07359 -0.0686869 1.44578e-17)
(0.360781 -0.0525426 1.56548e-17)
(1.13892 0.0910721 1.53249e-17)
(1.14078 0.114832 -8.69209e-18)
(1.14483 0.125252 4.89862e-18)
(1.15063 0.149268 -6.30147e-18)
(1.16154 0.17093 -5.45233e-18)
(1.17638 0.205901 -4.15097e-17)
(1.1938 0.242151 3.73136e-17)
(1.21254 0.313995 -1.51135e-17)
(1.21963 0.381565 7.66484e-19)
(0.991138 0.432496 2.03939e-18)
(1.14419 0.0914952 1.38497e-17)
(1.14705 0.113915 -7.00652e-18)
(1.15179 0.123505 6.33878e-18)
(1.15908 0.146403 -8.31363e-18)
(1.17153 0.166542 -6.87422e-18)
(1.18847 0.200497 -6.30657e-18)
(1.20947 0.235534 3.1166e-17)
(1.23195 0.306348 6.95341e-19)
(1.24516 0.378423 1.10408e-18)
(1.00137 0.419293 2.549e-18)
(1.14731 0.091836 1.1547e-17)
(1.15078 0.112918 -6.33952e-18)
(1.15557 0.121658 -7.98652e-19)
(1.1636 0.143412 2.6562e-18)
(1.17649 0.162003 -2.30408e-18)
(1.19447 0.194666 -2.35799e-17)
(1.21857 0.228176 3.10103e-17)
(1.24544 0.296945 1.02507e-17)
(1.26676 0.372805 2.52511e-18)
(1.01649 0.405349 1.47123e-18)
(1.14929 0.0921124 1.10526e-17)
(1.1533 0.111882 -4.60365e-18)
(1.15813 0.119771 -1.01784e-17)
(1.16677 0.140345 1.39313e-18)
(1.18023 0.157343 -1.34394e-17)
(1.1994 0.188398 -3.46588e-18)
(1.22682 0.219959 1.46995e-17)
(1.25887 0.285719 2.86919e-17)
(1.28843 0.364235 2.14103e-18)
(1.0368 0.390038 -6.42913e-19)
(1.15113 0.0923184 6.10265e-18)
(1.1557 0.110783 -7.36132e-18)
(1.16072 0.117815 -9.17424e-18)
(1.17004 0.137151 2.05186e-18)
(1.18433 0.152489 -1.22186e-17)
(1.20484 0.181649 -1.70492e-17)
(1.23552 0.21085 8.85235e-18)
(1.273 0.27273 1.88385e-17)
(1.31003 0.35226 1.1118e-18)
(1.06109 0.372846 2.59528e-19)
(1.15306 0.0924472 1.74115e-17)
(1.15819 0.109603 4.28469e-18)
(1.16345 0.115766 -7.69412e-18)
(1.17342 0.133804 -1.39352e-18)
(1.18851 0.147416 -1.18641e-17)
(1.2102 0.174441 -1.08033e-17)
(1.24368 0.200847 2.20084e-17)
(1.28649 0.258132 3.55963e-17)
(1.33201 0.336874 3.44965e-18)
(1.09392 0.353479 -3.34634e-18)
(1.15497 0.0925029 8.06869e-18)
(1.1606 0.10835 7.60642e-19)
(1.16607 0.113647 -6.95387e-18)
(1.17658 0.130348 1.03604e-17)
(1.19229 0.142216 -1.02876e-17)
(1.2149 0.166936 -2.40015e-17)
(1.25071 0.190199 2.17837e-17)
(1.29877 0.2421 3.25151e-17)
(1.35066 0.316453 -5.60859e-19)
(1.12906 0.330384 4.52113e-18)
(1.15672 0.092482 -2.27182e-18)
(1.16279 0.107023 1.02756e-17)
(1.16839 0.111446 -6.01034e-18)
(1.1793 0.126769 5.47192e-18)
(1.19544 0.136844 -8.88523e-18)
(1.21863 0.159072 -2.13661e-17)
(1.25615 0.178621 8.05254e-18)
(1.30901 0.224814 2.611e-17)
(1.37105 0.291718 1.09919e-17)
(1.18502 0.303957 -1.89473e-17)
(1.1583 0.0924147 -1.64374e-18)
(1.16472 0.105676 9.34205e-18)
(1.17041 0.109279 -4.57432e-18)
(1.18163 0.12325 1.65275e-17)
(1.19805 0.131633 -7.84619e-18)
(1.22168 0.151387 -1.85683e-17)
(1.26048 0.167218 -1.07255e-17)
(1.31765 0.207324 2.80367e-17)
(1.37927 0.258542 -1.74444e-17)
(1.22771 0.269914 -6.12039e-17)
(1.15966 0.0922357 -1.31525e-18)
(1.16638 0.10421 5.76633e-18)
(1.17206 0.106895 -4.92061e-18)
(1.18335 0.119403 1.21142e-17)
(1.19978 0.125865 -5.49113e-18)
(1.22316 0.142866 -1.59436e-17)
(1.2619 0.153695 -9.27461e-18)
(1.32188 0.188622 1.14099e-17)
(1.39731 0.219807 -7.64527e-18)
(1.32723 0.232056 -5.01476e-17)
(1.03215 2.69787e-05 -6.80773e-20)
(0.96492 -2.79588e-05 1.72178e-19)
(1.03717 -8.81974e-05 -9.62597e-19)
(0.96571 0.000299201 4.25113e-19)
(1.02609 4.50002e-05 -3.49314e-18)
(0.955165 0.000828303 -1.26159e-18)
(0.992395 0.000201391 -1.70612e-18)
(0.929442 0.0039841 4.82262e-18)
(0.804571 0.00350066 -1.65932e-17)
(0.738629 0.0242247 1.69216e-18)
(1.03213 9.00376e-05 -6.30442e-20)
(0.964908 -0.000106315 3.34066e-19)
(1.03723 -0.000240134 -1.87402e-18)
(0.965562 0.000817941 8.15393e-19)
(1.02628 0.000152899 -4.86583e-18)
(0.954751 0.00217879 -7.55076e-19)
(0.992983 0.000561921 -2.20002e-18)
(0.928001 0.0104258 5.92791e-18)
(0.807458 0.00894841 -6.22537e-18)
(0.740241 0.0743972 -5.21338e-18)
(1.03209 0.000151354 -8.0985e-20)
(0.964891 -0.000180153 5.85505e-19)
(1.03734 -0.000387572 -6.9332e-19)
(0.965284 0.00135401 7.26202e-19)
(1.02667 0.000278076 -3.74996e-18)
(0.953972 0.00362183 -3.3586e-19)
(0.994255 0.00107919 -3.95657e-18)
(0.925492 0.0174229 2.41139e-18)
(0.81299 0.0156802 -9.93539e-19)
(0.743156 0.122789 -1.74376e-17)
(1.03202 0.000216127 -1.61158e-19)
(0.964881 -0.00026542 4.5522e-19)
(1.0375 -0.000518518 9.30182e-20)
(0.964909 0.00186523 7.97357e-19)
(1.02723 0.000432829 -4.74066e-18)
(0.952899 0.00496453 -1.48269e-19)
(0.996139 0.00169052 -7.16928e-18)
(0.922124 0.0239728 4.34789e-19)
(0.821086 0.0221231 3.69451e-18)
(0.747339 0.17066 -5.22497e-17)
(1.03191 0.000283379 -2.7795e-19)
(0.964896 -0.000358226 -5.40915e-20)
(1.03766 -0.000632644 9.19945e-19)
(0.964478 0.00236034 8.62139e-19)
(1.0279 0.000620242 -3.20453e-18)
(0.951634 0.00626407 -2.90809e-19)
(0.998521 0.00244548 -6.0339e-19)
(0.918175 0.0303974 -4.38e-19)
(0.831595 0.0288867 5.33833e-18)
(0.752722 0.218182 -3.19582e-17)
(1.03176 0.000353544 -6.36822e-19)
(0.964959 -0.000461389 -4.04099e-19)
(1.03781 -0.000727591 2.42173e-18)
(0.964046 0.00283453 9.99222e-19)
(1.02862 0.000843905 -3.71632e-18)
(0.950305 0.00749171 -1.47808e-19)
(1.00122 0.00333903 5.49191e-18)
(0.913936 0.0365239 -1.26047e-18)
(0.844297 0.0356674 7.77719e-18)
(0.759256 0.265386 -2.0167e-17)
(1.03154 0.000426272 4.41436e-19)
(0.965095 -0.000574809 -6.22888e-19)
(1.0379 -0.000802753 2.46224e-18)
(0.963671 0.00328733 3.06377e-19)
(1.02931 0.0011033 -1.22315e-18)
(0.949056 0.00864786 1.00751e-18)
(1.00402 0.00437801 1.54138e-18)
(0.909777 0.0423291 -2.79544e-18)
(0.858833 0.0425295 1.42999e-17)
(0.76689 0.31238 -1.21179e-17)
(1.03125 0.000501078 -1.50455e-19)
(0.965331 -0.000697987 -2.46663e-19)
(1.03789 -0.000858415 1.13469e-18)
(0.963414 0.00371799 1.28668e-19)
(1.02988 0.00139664 5.61578e-19)
(0.948039 0.00972971 1.35189e-18)
(1.00668 0.00554841 -1.6862e-18)
(0.906172 0.0477469 -5.25083e-18)
(0.874618 0.0493519 2.95927e-17)
(0.775589 0.359258 -6.98422e-18)
(1.03088 0.000578008 -9.65995e-19)
(0.965691 -0.000834016 1.26878e-19)
(1.03777 -0.000890246 5.39874e-19)
(0.963333 0.00412405 -8.61046e-20)
(1.03027 0.00172754 2.82433e-18)
(0.9474 0.0107309 3.49098e-19)
(1.00897 0.0068488 5.97602e-18)
(0.903722 0.0527265 -7.82928e-18)
(0.890684 0.0559094 1.52176e-17)
(0.785574 0.405925 -4.32735e-18)
(1.03041 0.000649075 -5.2303e-19)
(0.9662 -0.000966532 1.69832e-21)
(1.03749 -0.000918651 2.2556e-19)
(0.963478 0.00454594 -1.15863e-19)
(1.03041 0.00204982 1.53628e-18)
(0.947266 0.0117771 -2.30169e-20)
(1.01068 0.0082584 3.56357e-18)
(0.903146 0.0576461 -5.85619e-18)
(0.905456 0.0650761 7.68948e-18)
(0.800277 0.453278 -2.66858e-18)
(1.03041 -0.000649075 -5.17502e-19)
(0.9662 0.000966532 -6.96071e-20)
(1.03749 0.00091865 3.96121e-20)
(0.963478 -0.00454594 -1.30225e-20)
(1.03041 -0.00204982 3.17511e-20)
(0.947266 -0.0117771 1.10298e-19)
(1.01068 -0.0082584 -2.01845e-18)
(0.903146 -0.0576461 -3.77662e-19)
(0.905456 -0.0650761 -3.00824e-17)
(0.800277 -0.453278 -1.20321e-17)
(1.03088 -0.000578009 -1.06763e-18)
(0.965691 0.000834016 -4.81189e-20)
(1.03777 0.000890246 -1.33791e-20)
(0.963333 -0.00412405 -1.24251e-20)
(1.03027 -0.00172754 4.23323e-20)
(0.9474 -0.0107309 -1.25583e-20)
(1.00897 -0.0068488 -3.85108e-18)
(0.903722 -0.0527265 -3.39076e-18)
(0.890684 -0.0559094 -1.66833e-17)
(0.785574 -0.405925 -1.44444e-17)
(1.03125 -0.000501078 -4.44058e-19)
(0.965331 0.000697987 8.40254e-20)
(1.03789 0.000858415 5.2311e-22)
(0.963414 -0.00371799 -9.47614e-22)
(1.02988 -0.00139664 6.92624e-20)
(0.948039 -0.00972971 -6.32872e-19)
(1.00668 -0.00554841 3.89994e-18)
(0.906172 -0.0477469 -1.5013e-18)
(0.874618 -0.0493519 -1.43719e-17)
(0.775589 -0.359258 -1.93231e-17)
(1.03154 -0.000426272 -1.48323e-19)
(0.965095 0.000574809 3.17854e-19)
(1.0379 0.000802753 1.27816e-20)
(0.963671 -0.00328733 1.97858e-20)
(1.02931 -0.0011033 1.37329e-20)
(0.949056 -0.00864786 -1.16769e-18)
(1.00402 -0.00437801 1.178e-18)
(0.909777 -0.0423291 5.18158e-18)
(0.858833 -0.0425295 -2.1453e-17)
(0.76689 -0.31238 -1.06588e-17)
(1.03176 -0.000353544 4.74809e-20)
(0.964959 0.000461389 -1.48452e-21)
(1.03781 0.000727591 4.45226e-20)
(0.964046 -0.00283453 3.89011e-20)
(1.02862 -0.000843905 -8.8347e-21)
(0.950305 -0.00749171 -3.73965e-19)
(1.00122 -0.00333903 2.39246e-19)
(0.913936 -0.0365239 3.70447e-18)
(0.844297 -0.0356674 -3.95744e-17)
(0.759256 -0.265386 -1.16206e-17)
(1.03191 -0.000283379 2.51856e-19)
(0.964896 0.000358226 -3.17414e-19)
(1.03766 0.000632643 -1.89062e-20)
(0.964478 -0.00236034 6.8218e-20)
(1.0279 -0.000620242 -1.84305e-19)
(0.951634 -0.00626407 1.77015e-19)
(0.998521 -0.00244548 -1.21969e-19)
(0.918175 -0.0303974 8.80464e-19)
(0.831595 -0.0288867 -3.24092e-17)
(0.752722 -0.218182 1.18591e-17)
(1.03202 -0.000216127 6.03713e-19)
(0.964881 0.00026542 -1.09731e-19)
(1.0375 0.000518517 -7.86557e-20)
(0.964909 -0.00186523 1.26114e-19)
(1.02723 -0.000432829 -4.56309e-19)
(0.952899 -0.00496453 8.61159e-19)
(0.996139 -0.00169052 -4.909e-19)
(0.922124 -0.0239728 3.58883e-18)
(0.821086 -0.0221231 -4.30778e-17)
(0.747339 -0.17066 2.91803e-17)
(1.03209 -0.000151354 -6.04494e-19)
(0.964891 0.000180153 -5.66178e-20)
(1.03734 0.000387572 -8.23552e-20)
(0.965284 -0.00135401 2.54441e-19)
(1.02667 -0.000278076 -9.55493e-19)
(0.953972 -0.00362183 2.26992e-19)
(0.994255 -0.00107919 -9.33228e-19)
(0.925492 -0.0174229 4.21672e-18)
(0.81299 -0.0156802 -2.6476e-17)
(0.743156 -0.122789 2.0587e-17)
(1.03213 -9.00376e-05 -2.64833e-19)
(0.964908 0.000106315 -1.69612e-21)
(1.03723 0.000240134 -2.56134e-19)
(0.965562 -0.00081794 4.44044e-19)
(1.02628 -0.000152899 -2.01793e-18)
(0.954751 -0.00217879 -2.1917e-19)
(0.992983 -0.000561922 -1.04026e-18)
(0.928001 -0.0104258 4.544e-18)
(0.807458 -0.00894841 -2.48472e-17)
(0.740241 -0.0743972 2.84814e-17)
(1.03215 -2.69787e-05 -1.18485e-19)
(0.96492 2.79589e-05 7.40297e-20)
(1.03717 8.81971e-05 -5.30072e-19)
(0.96571 -0.000299201 7.35159e-19)
(1.02609 -4.50002e-05 -4.21182e-18)
(0.955165 -0.000828303 -6.7324e-19)
(0.992395 -0.000201391 -1.1482e-18)
(0.929442 -0.0039841 4.89048e-18)
(0.804571 -0.00350066 -3.543e-17)
(0.738629 -0.0242247 8.98566e-18)
(1.15966 -0.0922357 -5.4643e-18)
(1.16638 -0.10421 -1.45659e-17)
(1.17206 -0.106895 -6.78136e-18)
(1.18335 -0.119403 -1.34373e-17)
(1.19978 -0.125865 -4.58844e-18)
(1.22316 -0.142866 -1.82017e-17)
(1.2619 -0.153695 3.51463e-17)
(1.32188 -0.188622 6.27087e-18)
(1.39731 -0.219807 -5.01051e-18)
(1.32723 -0.232056 5.16331e-18)
(1.1583 -0.0924147 4.90071e-18)
(1.16472 -0.105676 -5.27221e-18)
(1.17041 -0.109279 -2.7111e-18)
(1.18163 -0.12325 -1.60786e-17)
(1.19805 -0.131633 -9.68108e-18)
(1.22168 -0.151387 1.90496e-17)
(1.26048 -0.167218 3.31454e-17)
(1.31765 -0.207324 -2.62009e-17)
(1.37927 -0.258542 -3.39822e-18)
(1.22771 -0.269914 1.6162e-19)
(1.15672 -0.092482 1.95908e-18)
(1.16279 -0.107023 -9.07191e-18)
(1.16839 -0.111446 -3.97699e-18)
(1.1793 -0.126769 -1.84525e-17)
(1.19544 -0.136844 4.89764e-18)
(1.21863 -0.159072 8.74593e-18)
(1.25615 -0.178621 2.05626e-17)
(1.30901 -0.224814 5.25628e-18)
(1.37105 -0.291718 -6.02577e-18)
(1.18502 -0.303957 5.00018e-18)
(1.15497 -0.0925029 3.17901e-18)
(1.1606 -0.10835 -9.22999e-18)
(1.16607 -0.113647 -2.93279e-18)
(1.17658 -0.130348 -2.06146e-17)
(1.19229 -0.142216 9.81957e-19)
(1.2149 -0.166936 -2.54913e-18)
(1.25071 -0.190199 1.08577e-17)
(1.29877 -0.2421 -3.05918e-17)
(1.35066 -0.316453 2.36279e-17)
(1.12906 -0.330384 5.01919e-17)
(1.15306 -0.0924472 1.48905e-17)
(1.15819 -0.109603 -2.22252e-17)
(1.16345 -0.115766 -1.56344e-17)
(1.17342 -0.133804 -2.34145e-17)
(1.18851 -0.147416 -1.00225e-17)
(1.2102 -0.174441 7.38481e-19)
(1.24368 -0.200847 1.57194e-17)
(1.28649 -0.258132 2.16152e-17)
(1.33201 -0.336874 1.47955e-17)
(1.09392 -0.353479 4.22828e-18)
(1.15113 -0.0923184 3.4178e-18)
(1.1557 -0.110783 -1.09009e-17)
(1.16072 -0.117815 -1.76418e-18)
(1.17004 -0.137151 -2.61653e-17)
(1.18433 -0.152489 -2.07054e-17)
(1.20484 -0.181649 -3.94592e-19)
(1.23552 -0.21085 1.64047e-17)
(1.273 -0.27273 2.42818e-17)
(1.31003 -0.35226 2.08839e-17)
(1.06109 -0.372846 5.78715e-17)
(1.14929 -0.0921124 8.15351e-18)
(1.1533 -0.111882 -6.35785e-18)
(1.15813 -0.119771 -7.30151e-18)
(1.16677 -0.140345 -3.02129e-17)
(1.18023 -0.157343 -2.04932e-17)
(1.1994 -0.188398 -3.50851e-20)
(1.22682 -0.219959 1.9728e-17)
(1.25887 -0.285719 2.71955e-17)
(1.28843 -0.364235 2.24698e-17)
(1.0368 -0.390038 5.44043e-17)
(1.14731 -0.091836 7.66399e-18)
(1.15078 -0.112918 1.62813e-18)
(1.15557 -0.121658 -6.77322e-18)
(1.1636 -0.143412 -2.15304e-17)
(1.17649 -0.162003 -2.39527e-17)
(1.19447 -0.194666 1.15969e-18)
(1.21857 -0.228176 3.83351e-17)
(1.24544 -0.296945 5.0397e-17)
(1.26676 -0.372805 2.47446e-17)
(1.01649 -0.405349 3.91651e-17)
(1.14419 -0.0914952 -9.84674e-19)
(1.14705 -0.113915 -3.66138e-19)
(1.15179 -0.123505 -7.46783e-18)
(1.15908 -0.146403 -2.862e-17)
(1.17153 -0.166542 -2.70264e-17)
(1.18847 -0.200497 1.18082e-18)
(1.20947 -0.235534 3.80385e-17)
(1.23195 -0.306348 5.01761e-17)
(1.24516 -0.378423 5.71003e-18)
(1.00137 -0.419293 5.17524e-17)
(1.13892 -0.0910721 -7.89981e-18)
(1.14078 -0.114832 9.93559e-18)
(1.14483 -0.125252 -8.27179e-18)
(1.15063 -0.149268 -3.06208e-17)
(1.16154 -0.17093 -1.86038e-17)
(1.17638 -0.205901 1.6648e-18)
(1.1938 -0.242151 6.04081e-17)
(1.21254 -0.313995 5.81834e-17)
(1.21963 -0.381565 -7.35119e-18)
(0.991138 -0.432496 3.65361e-17)
(1.1657 -0.0887279 1.39658e-17)
(1.17432 -0.0898765 -5.31967e-18)
(1.18098 -0.0866807 -3.91133e-18)
(1.19381 -0.0866911 -2.62575e-18)
(1.21057 -0.0776491 -9.2833e-18)
(1.23631 -0.069629 1.05905e-17)
(1.26332 -0.039122 -3.23875e-17)
(1.25468 -0.00257615 -4.13783e-18)
(1.07359 0.0686869 -5.7774e-17)
(0.360781 0.0525426 2.86043e-17)
(1.16572 -0.0893742 1.55381e-17)
(1.1743 -0.0915761 -5.84994e-18)
(1.18097 -0.0891121 -3.99522e-18)
(1.19388 -0.0906773 1.09921e-17)
(1.21097 -0.0839132 -1.1789e-17)
(1.23772 -0.0798104 1.33146e-17)
(1.2692 -0.0558546 -2.04238e-17)
(1.2758 -0.0303136 -1.93515e-18)
(1.12652 0.0390478 -3.70712e-17)
(0.425402 0.0330501 3.67424e-17)
(1.16556 -0.0898804 1.80635e-17)
(1.17401 -0.0930474 -6.85158e-18)
(1.18069 -0.0911167 1.94558e-17)
(1.19363 -0.0938065 9.13192e-18)
(1.21099 -0.0884607 -3.02142e-21)
(1.23829 -0.0865517 1.55267e-17)
(1.27211 -0.0659165 -2.76612e-17)
(1.28819 -0.0467206 -1.12051e-18)
(1.16128 0.0209985 -5.25353e-17)
(0.485712 0.0123598 -1.38036e-17)
(1.16532 -0.0903808 9.3201e-18)
(1.17362 -0.0945895 -8.69187e-18)
(1.18028 -0.0932809 1.76906e-18)
(1.19316 -0.097285 -1.57858e-18)
(1.21071 -0.0937148 -1.99084e-17)
(1.23834 -0.0946896 3.16927e-18)
(1.2747 -0.0787424 -1.06437e-17)
(1.30237 -0.0678223 2.03297e-18)
(1.20153 -0.000105947 -5.41126e-17)
(0.558092 -0.00698244 -2.41902e-17)
(1.16493 -0.0908232 1.43061e-17)
(1.17306 -0.096085 -1.03869e-17)
(1.17963 -0.0953707 8.50571e-18)
(1.19238 -0.100625 1.63026e-17)
(1.20996 -0.0986637 -1.72617e-17)
(1.2375 -0.102143 -7.01936e-18)
(1.2753 -0.0902286 -1.09045e-18)
(1.31231 -0.0868836 4.54199e-18)
(1.23673 -0.0202698 -3.05085e-17)
(0.640844 -0.0263136 2.53203e-17)
(1.16442 -0.0912178 1.593e-17)
(1.17232 -0.0975628 -5.37925e-20)
(1.17876 -0.0974527 -5.6497e-18)
(1.1913 -0.103984 2.08554e-19)
(1.20878 -0.103655 -2.1334e-17)
(1.23595 -0.109703 -4.17209e-18)
(1.2748 -0.102032 -4.31687e-18)
(1.32069 -0.106576 -1.72454e-17)
(1.27131 -0.0419112 -1.65573e-17)
(0.734926 -0.0469598 2.84943e-17)
(1.16375 -0.0915531 7.08463e-18)
(1.1714 -0.0989974 -3.32696e-18)
(1.17763 -0.0994785 -1.05555e-18)
(1.18983 -0.107265 7.05933e-18)
(1.20701 -0.108486 -8.36047e-18)
(1.23337 -0.116949 -5.19374e-18)
(1.27237 -0.11335 -3.01899e-18)
(1.32568 -0.12567 -1.15179e-17)
(1.30189 -0.0654854 -2.94222e-17)
(0.836988 -0.0703504 3.54425e-17)
(1.16294 -0.0918238 4.30343e-19)
(1.17029 -0.100378 -3.6442e-18)
(1.17624 -0.101434 -3.66951e-18)
(1.18799 -0.110451 6.13979e-18)
(1.20463 -0.113144 -1.46734e-17)
(1.22968 -0.123925 -2.24909e-17)
(1.26798 -0.124404 -3.15727e-18)
(1.32674 -0.144294 -1.31226e-17)
(1.32492 -0.0918304 -3.1895e-17)
(0.947085 -0.0972696 3.80906e-17)
(1.16199 -0.0920239 3.22619e-18)
(1.16905 -0.101692 -3.65232e-18)
(1.17471 -0.103295 -4.51049e-18)
(1.18602 -0.113492 -5.06768e-18)
(1.20207 -0.117519 -1.25477e-17)
(1.22565 -0.130432 -4.21387e-18)
(1.26278 -0.134796 1.51036e-17)
(1.32364 -0.161212 -1.31278e-17)
(1.33955 -0.122655 -1.23012e-17)
(1.10367 -0.130049 4.38308e-17)
(1.1609 -0.0921569 -8.30582e-18)
(1.16776 -0.102952 -1.48484e-17)
(1.17333 -0.105085 7.47902e-18)
(1.18449 -0.116426 -1.52668e-17)
(1.20047 -0.121668 -1.60161e-17)
(1.22345 -0.136578 2.49922e-18)
(1.26079 -0.144409 1.1662e-17)
(1.32156 -0.175535 -1.42855e-17)
(1.36372 -0.166167 -7.527e-19)
(1.29456 -0.177373 -8.92072e-18)
(0.974832 0.00043895 -1.81248e-21)
(0.917869 0.000847677 -2.05661e-19)
(0.863467 0.00102031 -3.89571e-19)
(0.786767 0.00139337 1.08742e-21)
(0.679677 0.00160508 9.93887e-20)
(0.584963 0.0020894 3.48379e-18)
(0.410732 0.00234293 -1.84882e-18)
(0.300819 0.00296131 1.44574e-17)
(0.0558998 0.00113056 1.2222e-17)
(0.187359 0.00202783 6.10786e-18)
(0.975049 0.00131467 -3.24696e-21)
(0.918408 0.00254869 1.15088e-19)
(0.864375 0.00304732 -7.40186e-19)
(0.788293 0.0041965 -4.31916e-21)
(0.682044 0.00474386 1.60142e-19)
(0.588363 0.0061952 2.19546e-18)
(0.415432 0.00674392 -5.96139e-19)
(0.306501 0.00831123 1.1864e-17)
(0.0612646 0.00273364 2.08894e-17)
(0.18858 0.00567852 -1.38674e-18)
(0.975476 0.00218261 -1.52647e-20)
(0.919469 0.00423316 2.76264e-20)
(0.866162 0.00504613 -2.28629e-19)
(0.7913 0.00695825 -3.6208e-20)
(0.686712 0.00782974 2.0671e-19)
(0.595071 0.0102225 1.96165e-18)
(0.424729 0.0111357 1.09382e-19)
(0.317756 0.0137725 1.53859e-17)
(0.0719889 0.00477564 1.01912e-17)
(0.190935 0.00955338 -8.42786e-18)
(0.976102 0.00303783 -2.68743e-20)
(0.921029 0.00589031 -2.85486e-20)
(0.868788 0.00700791 1.69678e-19)
(0.795716 0.00966403 3.77889e-20)
(0.693565 0.0108478 3.16327e-19)
(0.604921 0.014167 -5.44191e-19)
(0.438413 0.0154265 5.65234e-19)
(0.334351 0.0191252 9.38971e-18)
(0.088099 0.00679453 5.12957e-18)
(0.194311 0.013584 -2.06011e-17)
(0.976915 0.00387596 -6.18058e-20)
(0.923053 0.00751104 -1.10433e-19)
(0.872195 0.00891884 6.923e-19)
(0.801442 0.0122947 5.71607e-21)
(0.702447 0.0137683 6.02113e-19)
(0.617681 0.0179885 8.61971e-20)
(0.456189 0.0195939 1.06196e-18)
(0.355975 0.0244167 8.78902e-18)
(0.109643 0.00911204 3.43424e-18)
(0.198556 0.0179184 -4.15169e-17)
(0.9779 0.00469299 -1.16761e-19)
(0.925505 0.00908674 -2.96228e-19)
(0.876315 0.0107663 3.5161e-19)
(0.808354 0.0148317 -1.51545e-20)
(0.713161 0.0165685 -8.54624e-20)
(0.633065 0.0216568 6.55795e-19)
(0.477686 0.0236095 1.63649e-18)
(0.382237 0.0296175 1.17986e-17)
(0.136687 0.0116933 4.50545e-18)
(0.203513 0.022639 -3.2734e-17)
(0.97904 0.00548525 -2.35093e-19)
(0.928338 0.0106097 -1.97651e-19)
(0.881069 0.0125392 1.99608e-19)
(0.816311 0.0172589 -5.39217e-20)
(0.725479 0.0192277 -8.30562e-19)
(0.650734 0.0251446 1.31753e-18)
(0.502465 0.0274437 2.75758e-18)
(0.412685 0.0347024 2.01739e-17)
(0.169297 0.0146311 8.33639e-18)
(0.209043 0.0278385 -4.18472e-17)
(0.980317 0.00624937 -1.4626e-19)
(0.931503 0.0120731 -2.63138e-19)
(0.886368 0.0142282 1.62444e-19)
(0.825152 0.0195629 -3.25029e-20)
(0.739148 0.0217281 -8.70534e-19)
(0.670315 0.0284282 -7.83091e-19)
(0.530039 0.0310626 4.48014e-18)
(0.446816 0.0396256 2.09827e-17)
(0.20753 0.0179823 1.66082e-17)
(0.215061 0.0335604 -2.23643e-17)
(0.981711 0.00698242 -1.39597e-19)
(0.934948 0.0134707 -1.21755e-20)
(0.892118 0.0158268 2.19428e-19)
(0.834709 0.0217335 -3.19373e-20)
(0.753895 0.0240654 -1.3752e-18)
(0.691407 0.0315043 -3.16235e-18)
(0.559879 0.0344666 3.93426e-18)
(0.484085 0.0443677 1.48044e-17)
(0.251404 0.0217959 2.66213e-18)
(0.221555 0.0399989 -1.69452e-17)
(0.983202 0.00768394 -2.33051e-19)
(0.938618 0.0147977 1.95098e-19)
(0.89822 0.0173357 -8.0291e-19)
(0.844805 0.0237627 -2.2703e-21)
(0.769442 0.0262432 -1.37704e-18)
(0.713599 0.0343612 -3.56647e-18)
(0.591436 0.0377002 4.69303e-18)
(0.523913 0.0490039 1.6551e-17)
(0.300882 0.0257954 -8.05201e-18)
(0.228619 0.0476433 -2.03532e-17)
(0.999977 0.00581332 -3.95265e-21)
(1.00279 -0.00660862 2.35103e-20)
(1.00001 0.0137007 -3.46887e-20)
(1.00569 -0.0224839 9.8825e-21)
(1.00415 0.0112659 -2.65382e-20)
(1.01327 -0.0282431 1.50696e-19)
(1.02201 0.00171927 -6.66699e-19)
(1.03248 -0.0575434 3.73469e-18)
(1.07219 -0.025445 -2.12145e-17)
(1.08231 -0.0862701 -2.03796e-18)
(1.00065 0.00469305 8.67312e-22)
(1.00262 -0.00546398 -1.32684e-20)
(0.999936 0.0117618 1.29944e-20)
(1.00505 -0.0220058 2.58264e-20)
(1.00285 0.00851188 -6.2926e-20)
(1.01128 -0.0320263 1.22744e-19)
(1.01752 -0.00199555 6.78593e-19)
(1.02795 -0.0725472 -4.12452e-18)
(1.06559 -0.032853 1.88026e-17)
(1.07197 -0.1204 -3.05434e-18)
(1.00147 0.00409237 8.69906e-21)
(1.00212 -0.00476799 -7.98689e-21)
(1.00029 0.0108498 -1.83014e-20)
(1.00418 -0.0214301 8.96395e-20)
(1.00189 0.00727807 -4.30178e-19)
(1.00942 -0.0323018 1.95295e-18)
(1.0139 -0.00267289 -1.2138e-18)
(1.02231 -0.077077 -6.34117e-18)
(1.05826 -0.0344746 7.02046e-19)
(1.06342 -0.13714 -1.71734e-17)
(1.00277 0.00309304 9.60687e-21)
(1.001 -0.00360347 2.07058e-20)
(1.00133 0.00939357 -9.48026e-21)
(1.00262 -0.0204381 3.87905e-20)
(1.00116 0.00530676 -1.68985e-19)
(1.00635 -0.0332807 4.81011e-19)
(1.00898 -0.00502614 -1.31836e-18)
(1.01553 -0.0867042 3.33868e-18)
(1.04835 -0.038099 -1.74948e-17)
(1.05154 -0.169389 1.73347e-17)
(1.00463 0.00222444 1.33038e-20)
(0.99902 -0.00254786 5.25101e-20)
(1.00341 0.00810668 -1.99446e-19)
(1.00041 -0.0189927 5.80505e-20)
(1.00083 0.00365032 -2.61126e-19)
(1.00284 -0.0327011 2.12362e-19)
(1.00407 -0.00633279 -1.18264e-18)
(1.00752 -0.0916973 3.43181e-18)
(1.0359 -0.0403678 -5.00795e-18)
(1.04031 -0.202758 2.6084e-17)
(1.00743 0.00128768 -1.42825e-19)
(0.995784 -0.00139527 8.78726e-19)
(1.00688 0.00669427 -2.80669e-18)
(0.997011 -0.0171194 -1.08756e-19)
(1.0016 0.00197355 -3.47764e-18)
(0.997887 -0.031339 1.50624e-19)
(0.99873 -0.00792321 -4.43571e-18)
(0.998274 -0.0961933 -1.87716e-19)
(1.01884 -0.0414307 2.77198e-19)
(1.02883 -0.244526 2.02196e-18)
(1.01156 0.000483031 -1.79604e-18)
(0.990779 -0.000435311 -1.71295e-19)
(1.01223 0.00524973 -2.19248e-19)
(0.991822 -0.0146201 2.99797e-20)
(1.00423 0.000265874 -1.65709e-19)
(0.991048 -0.028415 -2.10045e-20)
(0.99453 -0.00985794 3.02274e-21)
(0.987171 -0.0949742 -1.73387e-18)
(0.996423 -0.0471566 9.35181e-18)
(1.01493 -0.289912 -3.57603e-17)
(1.01716 -0.000254279 -7.84235e-20)
(0.983641 0.000497577 -2.58918e-20)
(1.01985 0.00369098 -2.92028e-20)
(0.983842 -0.0117579 -6.3425e-21)
(1.01043 -0.00117592 -9.06264e-20)
(0.980163 -0.0247763 -7.95686e-20)
(0.994401 -0.0102767 3.7998e-19)
(0.970734 -0.0937148 -1.50638e-18)
(0.969402 -0.0455209 6.16428e-18)
(1.00764 -0.366506 -2.096e-17)
(1.02353 -0.000606268 7.96851e-21)
(0.975226 0.000875117 2.35367e-20)