/*--------------------------------*- C++ -*----------------------------------*\
  =========                 |
  \\      /  F ield         | OpenFOAM: The Open Source CFD Toolbox
   \\    /   O peration     | Website:  https://openfoam.org
    \\  /    A nd           | Version:  7
     \\/     M anipulation  |
\*---------------------------------------------------------------------------*/
FoamFile
{
    version     2.0;
    format      ascii;
    class       surfaceScalarField;
    location    "74";
    object      phi;
}
// * * * * * * * * * * * * * * * * * * * * * * * * * * * * * * * * * * * * * //

dimensions      [0 3 -1 0 0 0 0];

internalField   nonuniform List<scalar> 
321
(
0.000535939
9.29656e-05
0.000527294
9.15615e-05
0.000518829
8.9717e-05
0.000510579
8.7467e-05
8.48496e-05
0.000334481
-0.000105113
0.000330567
-9.83191e-05
0.000326902
-9.14344e-05
0.000323482
-8.45184e-05
0.000320297
-7.76313e-05
0.000317335
-7.08335e-05
0.000314578
-6.41872e-05
-5.77546e-05
0.000394337
-0.000148309
0.000388175
-0.000145951
0.000382147
-0.000142896
0.000376279
-0.000139204
0.000370595
-0.000134937
0.000365115
-0.000130162
0.000359857
-0.000124942
0.000354835
-0.000119341
0.00035006
-0.000113421
0.000345541
-0.00010724
0.000341283
-0.000100855
0.000337288
-9.43239e-05
0.000333554
-8.77006e-05
0.000330077
-8.10413e-05
0.000326848
-7.44025e-05
0.000323856
-6.78417e-05
0.000321087
-6.14173e-05
-5.51887e-05
0.000402107
-0.000141883
0.00039579
-0.000139634
0.000389611
-0.000136717
0.000383598
-0.000133191
0.000377775
-0.000129114
0.000372162
-0.000124549
0.000366779
-0.000119558
0.000361638
-0.000114201
0.000356754
-0.000108536
0.000352133
-0.000102619
0.000347783
-9.65052e-05
0.000343705
-9.02465e-05
0.0003399
-8.38953e-05
0.000336363
-7.75043e-05
0.000333087
-7.11266e-05
0.000330062
-6.48162e-05
0.000327273
-5.86284e-05
-5.26195e-05
0.000409546
-0.000135304
0.000403079
-0.000133167
0.000396755
-0.000130393
0.000390602
-0.000127037
0.000384643
-0.000123156
0.000378902
-0.000118807
0.000373395
-0.000114051
0.000368139
-0.000108945
0.000363147
-0.000103543
0.000358426
-9.78989e-05
0.000353985
-9.20636e-05
0.000349825
-8.6087e-05
0.000345948
-8.0018e-05
0.00034235
-7.3906e-05
0.000339024
-6.7801e-05
0.000335962
-6.17538e-05
0.00033315
-5.58163e-05
-5.00417e-05
0.000416649
-0.000128578
0.000410038
-0.000126556
0.000403574
-0.000123929
0.000397285
-0.000120748
0.000391196
-0.000117067
0.00038533
-0.000112941
0.000379704
-0.000108426
0.000374336
-0.000103577
0.000369238
-9.84449e-05
0.00036442
-9.30807e-05
0.000359888
-8.75322e-05
0.000355648
-8.18461e-05
0.000351698
-7.60686e-05
0.000348038
-7.02458e-05
0.000344661
-6.44244e-05
0.00034156
-5.8652e-05
0.000338721
-5.29776e-05
-4.7451e-05
0.000423411
-0.00012171
0.000416662
-0.000119807
0.000410063
-0.00011733
0.000403644
-0.000114329
0.000397429
-0.000110852
0.000391442
-0.000106954
0.000385702
-0.000102686
0.000380225
-9.80998e-05
0.000375025
-9.32444e-05
0.000370111
-8.8167e-05
0.000365492
-8.29127e-05
0.000361171
-7.75252e-05
0.00035715
-7.20477e-05
0.000353427
-6.65232e-05
0.000349998
-6.09954e-05
0.000346855
-5.55089e-05
0.000343987
-5.01092e-05
-4.48434e-05
0.000429825
-0.000114707
0.000422944
-0.000112926
0.000416217
-0.000110603
0.000409673
-0.000107785
0.000403338
-0.000104518
0.000397236
-0.000100851
0.000391385
-9.68355e-05
0.000385803
-9.2518e-05
0.000380504
-8.7945e-05
0.000375498
-8.31608e-05
0.000370793
-7.82074e-05
0.000366393
-7.31258e-05
0.000362302
-6.79562e-05
0.000358517
-6.27386e-05
0.000355035
-5.75137e-05
0.000351849
-5.2323e-05
0.000348949
-4.72091e-05
-4.22157e-05
0.000435886
-0.000107577
0.00042888
-0.00010592
0.00042203
-0.000103754
0.000415368
-0.000101122
0.000408918
-9.80681e-05
0.000402705
-9.46385e-05
0.000396749
-9.08794e-05
0.000391067
-8.68357e-05
0.000385672
-8.25506e-05
0.000380577
-7.80653e-05
0.000375789
-7.34191e-05
0.000371313
-6.86501e-05
0.000367152
-6.37956e-05
0.000363306
-5.88927e-05
0.000359772
-5.39792e-05
0.000356542
-4.90935e-05
0.000353609
-4.42754e-05
-3.95655e-05
0.000441587
-0.000100328
0.000434463
-9.87958e-05
0.000427499
-9.67896e-05
0.000420724
-9.43472e-05
0.000414166
-9.151e-05
0.000407848
-8.83209e-05
0.000401792
-8.48228e-05
0.000396014
-8.10575e-05
0.000390528
-7.70652e-05
0.000385347
-7.28842e-05
0.000380479
-6.85508e-05
0.000375929
-6.41005e-05
0.000371701
-5.95677e-05
0.000367795
-5.49866e-05
0.000364208
-5.03922e-05
0.000360935
-4.58201e-05
0.000357966
-4.13069e-05
-3.68904e-05
0.000446927
0.000439693
0.000432621
0.00042574
0.00041908
0.000412664
0.000406512
0.000400643
0.000395071
0.000389809
0.000384864
0.000380243
0.00037595
0.000371985
0.000368346
0.000365029
0.000362024
)
;

boundaryField
{
    inlet
    {
        type            calculated;
        value           nonuniform 0();
    }
    outlet
    {
        type            calculated;
        value           nonuniform 0();
    }
    polygon
    {
        type            calculated;
        value           nonuniform 0();
    }
    top
    {
        type            symmetryPlane;
        value           uniform 0;
    }
    bottom
    {
        type            symmetryPlane;
        value           uniform 0;
    }
    outside
    {
        type            calculated;
        value           nonuniform 0();
    }
    procBoundary45to37
    {
        type            processor;
        value           nonuniform List<scalar> 
19
(
-8.41828e-05
-8.29173e-05
-8.12515e-05
-7.92172e-05
0.000502578
-7.68487e-05
-8.19045e-05
-7.86713e-05
-7.51885e-05
-7.14935e-05
-6.76214e-05
-6.3606e-05
-5.94798e-05
-5.52745e-05
-5.10217e-05
-4.67535e-05
-4.25025e-05
-3.83027e-05
-3.41888e-05
)
;
    }
    procBoundary45to38
    {
        type            processor;
        value           nonuniform List<scalar> 2(-0.000544722 -0.000454289);
    }
    procBoundary45to44
    {
        type            processor;
        value           nonuniform List<scalar> 10(0.000312009 0.000318521 0.000324704 0.000330572 0.00033613 0.000341379 0.000346322 0.000350958 0.000355291 0.000359323);
    }
    procBoundary45to46
    {
        type            processor;
        value           nonuniform List<scalar> 8(-0.000400604 -0.000408532 -0.000416125 -0.000423376 -0.000430279 -0.000436828 -0.000443015 -0.000448837);
    }
    procBoundary45to52
    {
        type            processor;
        value           uniform 6.03235e-05;
    }
    procBoundary45to53
    {
        type            processor;
        value           nonuniform List<scalar> 
18
(
0.000154576
0.000152113
0.000148924
0.000145071
0.000140621
0.000135641
0.0001302
0.000124363
0.000118195
-0.000338647
0.000111759
0.00010928
0.000102233
9.50986e-05
8.79385e-05
8.08163e-05
7.37961e-05
6.69434e-05
)
;
    }
}


// ************************************************************************* //
