/*--------------------------------*- C++ -*----------------------------------*\
  =========                 |
  \\      /  F ield         | OpenFOAM: The Open Source CFD Toolbox
   \\    /   O peration     | Website:  https://openfoam.org
    \\  /    A nd           | Version:  7
     \\/     M anipulation  |
\*---------------------------------------------------------------------------*/
FoamFile
{
    version     2.0;
    format      ascii;
    class       surfaceScalarField;
    location    "34";
    object      phi;
}
// * * * * * * * * * * * * * * * * * * * * * * * * * * * * * * * * * * * * * //

dimensions      [0 3 -1 0 0 0 0];

internalField   nonuniform List<scalar> 
7840
(
-0.00147481
0.00976923
-0.00939999
-0.00183968
0.00973299
-0.00936812
-0.00220437
0.00967643
-0.00931174
-0.00256857
0.00963213
-0.00926792
-0.00293397
0.00958283
-0.00921743
-0.0033005
0.0095413
-0.00917477
-0.00367009
0.00949746
-0.00912787
-0.00404369
0.00945868
-0.00908508
-0.00442319
0.00941962
-0.00904012
-0.00480975
0.009387
-0.00900045
-0.0052089
0.00935299
-0.00895383
-0.0056212
0.00933431
-0.00892201
-0.00606305
0.00930825
-0.00886641
-0.00652494
0.00932332
-0.00886142
-0.00700836
0.0092725
-0.00878907
-0.00733734
0.00914842
-0.00881943
-0.00719655
0.00843585
-0.00857665
-0.00579176
0.0069804
-0.00838519
-0.0031773
0.0040161
-0.00663057
0.00109027
-0.00426757
-0.00150105
0.0101395
-0.00186842
0.0101004
-0.00223608
0.0100441
-0.0026039
0.00999995
-0.00297323
0.00995216
-0.00334467
0.00991273
-0.00371989
0.00987268
-0.00410055
0.00983934
-0.00448923
0.0098083
-0.00488845
0.00978623
-0.00530471
0.00976925
-0.00574273
0.00977233
-0.00621152
0.00977705
-0.00666784
0.00977963
-0.00698601
0.00959066
-0.00683361
0.00899602
-0.00585867
0.00746091
-0.00382346
0.0049452
-0.00144271
0.00163535
-0.00035244
-0.0015262
0.010511
-0.00189559
0.0104697
-0.00226592
0.0104144
-0.00263696
0.010371
-0.00301047
0.0103257
-0.0033872
0.0102895
-0.00376909
0.0102546
-0.00415776
0.010228
-0.00455604
0.0102066
-0.00496722
0.0101974
-0.00539741
0.0101994
-0.00584514
0.0102201
-0.00627999
0.0102119
-0.00657311
0.0100727
-0.00647504
0.0094926
-0.00563088
0.00815185
-0.00390638
0.00573641
-0.00162676
0.00266558
-9.15818e-05
0.000100174
-0.000444022
-0.00155018
0.0108836
-0.00192139
0.010841
-0.00229392
0.010787
-0.00266763
0.0107447
-0.00304417
0.0107022
-0.00342424
0.0106695
-0.00380991
0.0106402
-0.00420351
0.0106216
-0.0046091
0.0106122
-0.00503084
0.0106191
-0.00546831
0.0106369
-0.00589338
0.0106451
-0.00621358
0.0105321
-0.00622307
0.0100822
-0.00564353
0.00891306
-0.00427715
0.00678548
-0.00236083
0.00382009
-0.000731684
0.00103643
-5.83875e-05
-0.000573122
-0.00050241
-0.00157276
0.0112573
-0.00194563
0.0112138
-0.00232019
0.0111615
-0.00269665
0.0111212
-0.00307682
0.0110824
-0.00346204
0.0110547
-0.00385489
0.0110331
-0.00425755
0.0110243
-0.00467186
0.0110265
-0.00509603
0.0110433
-0.00551258
0.0110535
-0.00585559
0.0109881
-0.00597332
0.0106498
-0.00562285
0.00973176
-0.00458771
0.00787792
-0.00292172
0.00511949
-0.00122238
0.00212075
-0.000163144
-2.28032e-05
0.000113881
-0.000850147
-0.000388529
-0.00159403
0.0116318
-0.00196845
0.0115883
-0.00234482
0.0115379
-0.00272353
0.0114999
-0.00310597
0.0114648
-0.00349317
0.0114419
-0.00388669
0.0114266
-0.00428836
0.0114259
-0.00469955
0.0114377
-0.00511184
0.0114556
-0.00548299
0.0114246
-0.00569925
0.0112044
-0.00556308
0.0105137
-0.00485181
0.00902049
-0.00350442
0.00653053
-0.00187318
0.00348826
-0.000627042
0.000874604
-6.66669e-05
-0.000583178
6.23009e-06
-0.000923044
-0.000382299
-0.00161378
0.0120071
-0.00198942
0.0119639
-0.00236727
0.0119157
-0.00274818
0.0118808
-0.00313362
0.0118503
-0.00352555
0.0118339
-0.00392612
0.0118272
-0.0043368
0.0118366
-0.00475167
0.0118525
-0.00514025
0.0118442
-0.00542212
0.0117065
-0.00544758
0.0112299
-0.00502037
0.0100864
-0.00400072
0.00800085
-0.00253058
0.00506039
-0.0011529
0.00211058
-0.000341892
6.35952e-05
-3.43872e-05
-0.000890683
6.93564e-06
-0.000964366
-0.000375363
-0.00163237
0.0123831
-0.00200926
0.0123408
-0.00238857
0.0122951
-0.00277134
0.0122635
-0.00315829
0.0122372
-0.00355032
0.0122259
-0.003947
0.0122239
-0.0043448
0.0122344
-0.00472828
0.012236
-0.00505121
0.0121671
-0.00521158
0.0118668
-0.00504206
0.0110603
-0.00436467
0.00940906
-0.00315712
0.00679329
-0.00176604
0.00366931
-0.000732017
0.00107656
-0.000212674
-0.000455748
-3.82124e-05
-0.00106514
-2.17413e-05
-0.000980837
-0.000397104
-0.00164925
0.0127593
-0.00202679
0.0127183
-0.00240677
0.012675
-0.00279102
0.0126478
-0.00317973
0.0126259
-0.00357482
0.012621
-0.0039763
0.0126253
-0.00437894
0.0126371
-0.00475562
0.0126127
-0.00502972
0.0124412
-0.00505685
0.011894
-0.00465784
0.0106613
-0.00373389
0.00848511
-0.00244058
0.00549998
-0.00123159
0.00246032
-0.000461678
0.000306645
-0.000101558
-0.000815868
5.23574e-06
-0.00117194
5.39244e-06
-0.000980994
-0.000391712
-0.00166492
0.0131352
-0.00204447
0.0130979
-0.0024258
0.0130564
-0.00281209
0.0130341
-0.00320165
0.0130155
-0.00359533
0.0130147
-0.00398703
0.013017
-0.00435845
0.0130085
-0.00465846
0.0129127
-0.00478537
0.0125681
-0.00459819
0.0117068
-0.00398068
0.0100438
-0.00294914
0.00745357
-0.00175324
0.00430408
-0.00078664
0.00149372
-0.000223265
-0.000256729
2.59315e-05
-0.00106506
5.87903e-05
-0.0012048
1.40138e-05
-0.000936218
-0.000377698
-0.000618131
0.011552
-0.0117743
-0.000403756
0.0114584
-0.0116727
-0.000194343
0.0113588
-0.0115682
3.26953e-06
0.0112313
-0.0114289
0.000191844
0.0111129
-0.0113015
0.000366095
0.0109644
-0.0111386
0.000526372
0.0108156
-0.0109759
0.000668309
0.0106354
-0.0107773
0.000788986
0.0104366
-0.0105573
0.000884177
0.0101966
-0.0102918
0.000948638
0.00991778
-0.00998224
0.000977499
0.00957445
-0.00960331
0.00096219
0.0091705
-0.00915519
0.000904982
0.00866904
-0.00861183
0.000796494
0.00811475
-0.00800626
0.000644042
0.00740917
-0.00725672
0.000441366
0.0067083
-0.00650562
0.000178058
0.00574864
-0.00548533
-6.73363e-06
0.00458899
-0.0044042
0.00218173
-0.00218847
-0.000642873
0.0113265
-0.000426189
0.0112417
-0.000214186
0.0111468
-1.37823e-05
0.0110309
0.000177763
0.0109214
0.00035508
0.0107871
0.000518429
0.0106523
0.000663379
0.0104904
0.000787216
0.0103128
0.000885418
0.0100984
0.000952882
0.00985032
0.000984784
0.00954255
0.000974606
0.00918067
0.000920837
0.00872281
0.000820936
0.00821465
0.000667583
0.00756252
0.00048503
0.00689085
0.000229933
0.00600373
7.37263e-05
0.0047452
0.00225546
-0.000667552
0.0110982
-0.000447673
0.0110218
-0.000232734
0.0109319
-2.89442e-05
0.0108271
0.00016619
0.0107263
0.000347375
0.0106059
0.000514757
0.0104849
0.000663821
0.0103414
0.000791693
0.0101849
0.000893335
0.00999676
0.000963046
0.00978061
0.000994937
0.00951066
0.00098082
0.00919479
0.000916458
0.00878717
0.000798572
0.00833254
0.000618812
0.00774228
0.000403716
0.00710595
0.000120063
0.00628739
-3.65687e-05
0.00490183
0.00221889
-0.000691695
0.0108668
-0.000468287
0.0107984
-0.000249988
0.0107136
-4.23583e-05
0.0106195
0.000156794
0.0105271
0.000342439
0.0104203
0.000514597
0.0103127
0.000668798
0.0101872
0.000802222
0.0100515
0.000909667
0.00988932
0.000985654
0.00970462
0.00102342
0.00947289
0.00101621
0.00920201
0.000954425
0.00884895
0.000841656
0.00844531
0.000650006
0.00793393
0.000434122
0.00732183
0.000154814
0.0065667
-1.62902e-05
0.00507293
0.0022026
-0.000715484
0.0106321
-0.000488314
0.0105712
-0.000266385
0.0104916
-5.45666e-05
0.0104077
0.000149008
0.0103235
0.000339658
0.0102296
0.000517396
0.010135
0.000677933
0.0100266
0.000818651
0.00991074
0.000934172
0.0097738
0.00101931
0.00961948
0.00106614
0.00942606
0.0010687
0.00919944
0.00101505
0.00890261
0.000909343
0.00855101
0.000732452
0.00811082
0.000506377
0.00754791
0.00023039
0.00684268
2.6047e-05
0.00527728
0.00222865
-0.000738414
0.0103938
-0.000507005
0.0103398
-0.000280831
0.0102655
-6.40836e-05
0.0101909
0.000144808
0.0101146
0.000341605
0.0100328
0.000526424
0.00995017
0.000695184
0.00985789
0.00084574
0.00976018
0.000972516
0.00964702
0.00107126
0.00952073
0.00113159
0.00936574
0.0011504
0.00918063
0.00110571
0.0089473
0.00100773
0.008649
0.00080108
0.00831747
0.000563956
0.00778503
0.000241643
0.007165
2.50747e-05
0.00549384
0.00225372
-0.000761275
0.0101517
-0.000525679
0.0101042
-0.000295295
0.0100351
-7.36882e-05
0.00996931
0.00014049
0.00990046
0.000343341
0.00982995
0.000535173
0.00975833
0.000712317
0.00968074
0.000872989
0.00959951
0.00101142
0.00950859
0.00112367
0.00940848
0.00119929
0.00929012
0.00123561
0.00914431
0.00121522
0.00896769
0.00114793
0.00871628
0.00102474
0.00844066
0.000822697
0.00798708
0.000568792
0.0074189
0.000226145
0.00583649
0.00247987
-0.00078244
0.00990535
-0.0005418
0.00986357
-0.000305989
0.00979926
-7.81487e-05
0.00974147
0.000142918
0.00967939
0.000353821
0.00961905
0.000555265
0.00955689
0.00074386
0.00949215
0.000918231
0.00942514
0.0010728
0.00935402
0.00120542
0.00927586
0.00130452
0.00919102
0.00136779
0.00908104
0.00136729
0.00896818
0.0013041
0.00877947
0.00110812
0.00863665
0.000846566
0.00824864
0.000434557
0.00783091
0.000160902
0.00611015
0.00264077
-0.000804894
0.00965517
-0.000560404
0.00961908
-0.000320574
0.00955943
-8.81848e-05
0.00950908
0.000137944
0.00945326
0.000354465
0.00940253
0.000562397
0.00934896
0.000758278
0.00929626
0.000941124
0.00924229
0.0011061
0.00918905
0.00125135
0.00913061
0.00136671
0.00907566
0.00145119
0.00899656
0.00148883
0.00893055
0.001495
0.00877329
0.00148216
0.00864948
0.00142111
0.00830968
0.00126859
0.00798344
0.000772334
0.0066064
0.0034131
-0.000823053
-0.000572096
-0.000324408
-8.32513e-05
0.000152576
0.000380334
0.000601425
0.000812607
0.00101478
0.00120338
0.00138015
0.00153381
0.00166396
0.00173308
0.0017173
0.00154735
0.00128039
0.000878638
0.000854469
-0.000823053
-0.00965517
0.00939999
-0.000572096
-0.00961908
0.00936812
-0.000324408
-0.00955943
0.00931174
-8.32513e-05
-0.00950908
0.00926792
0.000152576
-0.00945326
0.00921743
0.000380334
-0.00940253
0.00917477
0.000601425
-0.00934896
0.00912787
0.000812607
-0.00929626
0.00908508
0.00101478
-0.00924229
0.00904012
0.00120338
-0.00918905
0.00900045
0.00138015
-0.00913061
0.00895383
0.00153381
-0.00907566
0.00892201
0.00166396
-0.00899656
0.00886641
0.00173308
-0.00893055
0.00886142
0.0017173
-0.00877329
0.00878907
0.00154735
-0.00864948
0.00881943
0.00128039
-0.00830968
0.00857665
0.000878638
-0.00798344
0.00838519
0.000854469
-0.0066064
0.00663057
-0.0034131
0.00426757
-0.000804894
-0.00990535
-0.000560404
-0.00986357
-0.000320574
-0.00979926
-8.81848e-05
-0.00974147
0.000137944
-0.00967939
0.000354465
-0.00961905
0.000562397
-0.00955689
0.000758278
-0.00949215
0.000941124
-0.00942514
0.0011061
-0.00935402
0.00125135
-0.00927586
0.00136671
-0.00919102
0.00145119
-0.00908104
0.00148883
-0.00896818
0.001495
-0.00877947
0.00148216
-0.00863665
0.00142111
-0.00824864
0.00126859
-0.00783091
0.000772334
-0.00611015
-0.00264077
-0.00078244
-0.0101517
-0.0005418
-0.0101042
-0.000305989
-0.0100351
-7.81487e-05
-0.00996931
0.000142918
-0.00990046
0.000353821
-0.00982995
0.000555265
-0.00975833
0.00074386
-0.00968074
0.000918231
-0.00959951
0.0010728
-0.00950859
0.00120542
-0.00940848
0.00130452
-0.00929012
0.00136779
-0.00914431
0.00136729
-0.00896769
0.0013041
-0.00871628
0.00110812
-0.00844066
0.000846566
-0.00798708
0.000434557
-0.0074189
0.000160902
-0.00583649
-0.00247987
-0.000761275
-0.0103938
-0.000525679
-0.0103398
-0.000295295
-0.0102655
-7.36882e-05
-0.0101909
0.00014049
-0.0101146
0.000343341
-0.0100328
0.000535173
-0.00995017
0.000712317
-0.00985789
0.000872989
-0.00976018
0.00101142
-0.00964702
0.00112367
-0.00952073
0.00119929
-0.00936574
0.00123561
-0.00918063
0.00121522
-0.0089473
0.00114793
-0.008649
0.00102474
-0.00831747
0.000822697
-0.00778503
0.000568792
-0.007165
0.000226145
-0.00549384
-0.00225372
-0.000738414
-0.0106321
-0.000507005
-0.0105712
-0.000280831
-0.0104916
-6.40836e-05
-0.0104077
0.000144808
-0.0103235
0.000341605
-0.0102296
0.000526424
-0.010135
0.000695184
-0.0100266
0.00084574
-0.00991074
0.000972516
-0.0097738
0.00107126
-0.00961948
0.00113159
-0.00942606
0.0011504
-0.00919944
0.00110571
-0.00890261
0.00100773
-0.00855101
0.00080108
-0.00811082
0.000563956
-0.00754791
0.000241643
-0.00684268
2.50747e-05
-0.00527728
-0.00222865
-0.000715484
-0.0108668
-0.000488314
-0.0107984
-0.000266385
-0.0107136
-5.45666e-05
-0.0106195
0.000149008
-0.0105271
0.000339658
-0.0104203
0.000517396
-0.0103127
0.000677933
-0.0101872
0.000818651
-0.0100515
0.000934172
-0.00988932
0.00101931
-0.00970462
0.00106614
-0.00947289
0.0010687
-0.00920201
0.00101505
-0.00884895
0.000909343
-0.00844531
0.000732452
-0.00793393
0.000506377
-0.00732183
0.00023039
-0.0065667
2.6047e-05
-0.00507293
-0.0022026
-0.000691695
-0.0110982
-0.000468287
-0.0110218
-0.000249988
-0.0109319
-4.23583e-05
-0.0108271
0.000156794
-0.0107263
0.000342439
-0.0106059
0.000514597
-0.0104849
0.000668798
-0.0103414
0.000802222
-0.0101849
0.000909667
-0.00999676
0.000985654
-0.00978061
0.00102342
-0.00951066
0.00101621
-0.00919479
0.000954425
-0.00878717
0.000841656
-0.00833254
0.000650006
-0.00774228
0.000434122
-0.00710595
0.000154814
-0.00628739
-1.62902e-05
-0.00490183
-0.00221889
-0.000667552
-0.0113265
-0.000447673
-0.0112417
-0.000232734
-0.0111468
-2.89442e-05
-0.0110309
0.00016619
-0.0109214
0.000347375
-0.0107871
0.000514757
-0.0106523
0.000663821
-0.0104904
0.000791693
-0.0103128
0.000893335
-0.0100984
0.000963046
-0.00985032
0.000994937
-0.00954255
0.00098082
-0.00918067
0.000916458
-0.00872281
0.000798572
-0.00821465
0.000618812
-0.00756252
0.000403716
-0.00689085
0.000120063
-0.00600373
-3.65687e-05
-0.0047452
-0.00225546
-0.000642873
-0.011552
-0.000426189
-0.0114584
-0.000214186
-0.0113588
-1.37823e-05
-0.0112313
0.000177763
-0.0111129
0.00035508
-0.0109644
0.000518429
-0.0108156
0.000663379
-0.0106354
0.000787216
-0.0104366
0.000885418
-0.0101966
0.000952882
-0.00991778
0.000984784
-0.00957445
0.000974606
-0.0091705
0.000920837
-0.00866904
0.000820936
-0.00811475
0.000667583
-0.00740917
0.00048503
-0.0067083
0.000229933
-0.00574864
7.37263e-05
-0.00458899
-0.00218173
-0.000618131
-0.0117743
-0.000403756
-0.0116727
-0.000194343
-0.0115682
3.26953e-06
-0.0114289
0.000191844
-0.0113015
0.000366095
-0.0111386
0.000526372
-0.0109759
0.000668309
-0.0107773
0.000788986
-0.0105573
0.000884177
-0.0102918
0.000948638
-0.00998224
0.000977499
-0.00960331
0.00096219
-0.00915519
0.000904982
-0.00861183
0.000796494
-0.00800626
0.000644042
-0.00725672
0.000441366
-0.00650562
0.000178058
-0.00548533
-6.73363e-06
-0.0044042
-0.00218847
-0.00166492
-0.0127593
0.0131352
-0.00204447
-0.0127183
0.0130979
-0.0024258
-0.012675
0.0130564
-0.00281209
-0.0126478
0.0130341
-0.00320165
-0.0126259
0.0130155
-0.00359533
-0.012621
0.0130147
-0.00398703
-0.0126253
0.013017
-0.00435845
-0.0126371
0.0130085
-0.00465846
-0.0126127
0.0129127
-0.00478537
-0.0124412
0.0125681
-0.00459819
-0.011894
0.0117068
-0.00398068
-0.0106613
0.0100438
-0.00294914
-0.00848511
0.00745357
-0.00175324
-0.00549998
0.00430408
-0.00078664
-0.00246032
0.00149372
-0.000223265
-0.000306645
-0.000256729
2.59315e-05
0.000815868
-0.00106506
5.87903e-05
0.00117194
-0.0012048
1.40138e-05
0.000980994
-0.000936218
0.000391712
-0.000377698
-0.00164925
-0.0123831
-0.00202679
-0.0123408
-0.00240677
-0.0122951
-0.00279102
-0.0122635
-0.00317973
-0.0122372
-0.00357482
-0.0122259
-0.0039763
-0.0122239
-0.00437894
-0.0122344
-0.00475562
-0.012236
-0.00502972
-0.0121671
-0.00505685
-0.0118668
-0.00465784
-0.0110603
-0.00373389
-0.00940906
-0.00244058
-0.00679329
-0.00123159
-0.00366931
-0.000461678
-0.00107656
-0.000101558
0.000455748
5.23574e-06
0.00106514
5.39244e-06
0.000980837
0.000397104
-0.00163237
-0.0120071
-0.00200926
-0.0119639
-0.00238857
-0.0119157
-0.00277134
-0.0118808
-0.00315829
-0.0118503
-0.00355032
-0.0118339
-0.003947
-0.0118272
-0.0043448
-0.0118366
-0.00472828
-0.0118525
-0.00505121
-0.0118442
-0.00521158
-0.0117065
-0.00504206
-0.0112299
-0.00436467
-0.0100864
-0.00315712
-0.00800085
-0.00176604
-0.00506039
-0.000732017
-0.00211058
-0.000212674
-6.35952e-05
-3.82124e-05
0.000890683
-2.17413e-05
0.000964366
0.000375363
-0.00161378
-0.0116318
-0.00198942
-0.0115883
-0.00236727
-0.0115379
-0.00274818
-0.0114999
-0.00313362
-0.0114648
-0.00352555
-0.0114419
-0.00392612
-0.0114266
-0.0043368
-0.0114259
-0.00475167
-0.0114377
-0.00514025
-0.0114556
-0.00542212
-0.0114246
-0.00544758
-0.0112044
-0.00502037
-0.0105137
-0.00400072
-0.00902049
-0.00253058
-0.00653053
-0.0011529
-0.00348826
-0.000341892
-0.000874604
-3.43872e-05
0.000583178
6.93564e-06
0.000923044
0.000382299
-0.00159403
-0.0112573
-0.00196845
-0.0112138
-0.00234482
-0.0111615
-0.00272353
-0.0111212
-0.00310597
-0.0110824
-0.00349317
-0.0110547
-0.00388669
-0.0110331
-0.00428836
-0.0110243
-0.00469955
-0.0110265
-0.00511184
-0.0110433
-0.00548299
-0.0110535
-0.00569925
-0.0109881
-0.00556308
-0.0106498
-0.00485181
-0.00973176
-0.00350442
-0.00787792
-0.00187318
-0.00511949
-0.000627042
-0.00212075
-6.66669e-05
2.28032e-05
6.23009e-06
0.000850147
0.000388529
-0.00157276
-0.0108836
-0.00194563
-0.010841
-0.00232019
-0.010787
-0.00269665
-0.0107447
-0.00307682
-0.0107022
-0.00346204
-0.0106695
-0.00385489
-0.0106402
-0.00425755
-0.0106216
-0.00467186
-0.0106122
-0.00509603
-0.0106191
-0.00551258
-0.0106369
-0.00585559
-0.0106451
-0.00597332
-0.0105321
-0.00562285
-0.0100822
-0.00458771
-0.00891306
-0.00292172
-0.00678548
-0.00122238
-0.00382009
-0.000163144
-0.00103643
0.000113881
0.000573122
0.00050241
-0.00155018
-0.010511
-0.00192139
-0.0104697
-0.00229392
-0.0104144
-0.00266763
-0.010371
-0.00304417
-0.0103257
-0.00342424
-0.0102895
-0.00380991
-0.0102546
-0.00420351
-0.010228
-0.0046091
-0.0102066
-0.00503084
-0.0101974
-0.00546831
-0.0101994
-0.00589338
-0.0102201
-0.00621358
-0.0102119
-0.00622307
-0.0100727
-0.00564353
-0.0094926
-0.00427715
-0.00815185
-0.00236083
-0.00573641
-0.000731684
-0.00266558
-5.83875e-05
-0.000100174
0.000444022
-0.0015262
-0.0101395
-0.00189559
-0.0101004
-0.00226592
-0.0100441
-0.00263696
-0.00999995
-0.00301047
-0.00995216
-0.0033872
-0.00991273
-0.00376909
-0.00987268
-0.00415776
-0.00983934
-0.00455604
-0.0098083
-0.00496722
-0.00978623
-0.00539741
-0.00976925
-0.00584514
-0.00977233
-0.00627999
-0.00977705
-0.00657311
-0.00977963
-0.00647504
-0.00959066
-0.00563088
-0.00899602
-0.00390638
-0.00746091
-0.00162676
-0.0049452
-9.15818e-05
-0.00163535
0.00035244
-0.00150105
-0.00976923
-0.00186842
-0.00973299
-0.00223608
-0.00967643
-0.0026039
-0.00963213
-0.00297323
-0.00958283
-0.00334467
-0.0095413
-0.00371989
-0.00949746
-0.00410055
-0.00945868
-0.00448923
-0.00941962
-0.00488845
-0.009387
-0.00530471
-0.00935299
-0.00574273
-0.00933431
-0.00621152
-0.00930825
-0.00666784
-0.00932332
-0.00698601
-0.0092725
-0.00683361
-0.00914842
-0.00585867
-0.00843585
-0.00382346
-0.0069804
-0.00144271
-0.0040161
-0.00109027
-0.00147481
-0.00183968
-0.00220437
-0.00256857
-0.00293397
-0.0033005
-0.00367009
-0.00404369
-0.00442319
-0.00480975
-0.0052089
-0.0056212
-0.00606305
-0.00652494
-0.00700836
-0.00733734
-0.00719655
-0.00579176
-0.0031773
-0.00453507
-0.0113784
-0.00493282
-0.011275
-0.00533863
-0.0111624
-0.00573831
-0.0110292
-0.00614992
-0.0108899
-0.00655355
-0.010735
-0.00696156
-0.0105679
-0.00735459
-0.0103843
-0.00772808
-0.0101838
-0.00806344
-0.00995644
-0.00834486
-0.00970082
-0.00853563
-0.00941254
-0.00860353
-0.00908729
-0.00849787
-0.00871749
-0.00820233
-0.0083018
-0.00761877
-0.00784028
-0.00678088
-0.00734351
-0.00545433
-0.00681189
-0.00352673
-0.00633179
-0.0057152
3.3497e-13
-0.00350778
-0.0110699
-0.00380134
-0.0109814
-0.00408364
-0.0108801
-0.00435351
-0.0107594
-0.00461464
-0.0106288
-0.00486246
-0.0104872
-0.00509747
-0.0103329
-0.00531629
-0.0101655
-0.00551673
-0.00998333
-0.00568694
-0.00978623
-0.0058141
-0.00957366
-0.00588007
-0.00934658
-0.00586102
-0.00910634
-0.00572197
-0.00885655
-0.00542388
-0.00859988
-0.00492265
-0.00834151
-0.00417698
-0.00808918
-0.0031388
-0.00785006
-0.00181625
-0.00765434
-0.00753145
2.49615e-13
-0.0028831
-0.0108023
-0.00313802
-0.0107265
-0.00337546
-0.0106427
-0.00359171
-0.0105431
-0.00378152
-0.010439
-0.00394276
-0.010326
-0.00407085
-0.0102048
-0.00416123
-0.0100751
-0.00420749
-0.00993707
-0.00420348
-0.00979024
-0.00414223
-0.0096349
-0.00401725
-0.00947156
-0.0038219
-0.00930169
-0.00355065
-0.0091278
-0.00319597
-0.00895455
-0.00274935
-0.00878814
-0.0022033
-0.00863523
-0.00154963
-0.00850373
-0.000799157
-0.00840482
-0.00833061
2.49752e-13
-0.00208072
-0.0106008
-0.00226823
-0.010539
-0.00244048
-0.0104704
-0.00259596
-0.0103876
-0.0027349
-0.0103
-0.0028549
-0.010206
-0.00295307
-0.0101066
-0.00302556
-0.0100026
-0.00306811
-0.00989453
-0.00307488
-0.00978347
-0.00303929
-0.0096705
-0.00295384
-0.00955701
-0.00281097
-0.00944456
-0.00260376
-0.00933501
-0.00232792
-0.00923039
-0.00198269
-0.00913337
-0.00157049
-0.00904743
-0.00109703
-0.00897719
-0.000574562
-0.00892729
-0.00890517
2.49637e-13
-0.00167635
-0.0104445
-0.0018167
-0.0103986
-0.00193995
-0.0103472
-0.00204257
-0.010285
-0.00212309
-0.0102195
-0.00217967
-0.0101494
-0.0022106
-0.0100757
-0.00221443
-0.00999877
-0.00218986
-0.00991911
-0.00213607
-0.00983726
-0.0020525
-0.00975407
-0.00193888
-0.00967063
-0.00179498
-0.00958846
-0.00162052
-0.00950947
-0.00141505
-0.00943586
-0.00117854
-0.00936989
-0.000912335
-0.00931363
-0.000620998
-0.00926853
-0.000312006
-0.00923628
-0.00921718
2.37632e-13
-0.00116655
-0.0103244
-0.00127804
-0.0102871
-0.00137857
-0.0102466
-0.0014662
-0.0101974
-0.00153976
-0.0101459
-0.00159767
-0.0100915
-0.00163827
-0.0100351
-0.00165963
-0.00997741
-0.00165964
-0.0099191
-0.00163603
-0.00986086
-0.00158666
-0.00980344
-0.00150971
-0.00974758
-0.00140413
-0.00969404
-0.00126995
-0.00964364
-0.00110854
-0.00959727
-0.000922417
-0.00955601
-0.000714967
-0.00952108
-0.000489559
-0.00949394
-0.000250149
-0.00947569
-0.00946732
1.96534e-13
-0.000923048
-0.0102392
-0.000996475
-0.0102137
-0.00105858
-0.0101845
-0.0011068
-0.0101492
-0.00114084
-0.0101119
-0.00115994
-0.0100724
-0.00116381
-0.0100312
-0.00115237
-0.00998885
-0.00112579
-0.00994568
-0.00108446
-0.0099022
-0.00102888
-0.00985902
-0.000959601
-0.00981686
-0.000877099
-0.00977654
-0.000781751
-0.00973899
-0.000673941
-0.00970509
-0.000554365
-0.00967559
-0.000424366
-0.00965107
-0.000286425
-0.00963188
-0.000143725
-0.00961839
-0.00961105
1.78209e-13
-0.000637904
-0.0101712
-0.000701346
-0.0101503
-0.000757977
-0.0101279
-0.000806499
-0.0101006
-0.000845933
-0.0100725
-0.000875353
-0.0100429
-0.00089381
-0.0100128
-0.000900349
-0.00998231
-0.000894041
-0.00995199
-0.000874062
-0.00992218
-0.000839822
-0.00989326
-0.000791103
-0.00986557
-0.000728182
-0.00983947
-0.000651892
-0.00981528
-0.000563577
-0.0097934
-0.00046489
-0.00977427
-0.000357573
-0.00975839
-0.000243186
-0.00974626
-0.000123346
-0.00973823
-0.0097344
1.33391e-13
-0.000491113
-0.0101261
-0.000528857
-0.0101125
-0.000559876
-0.0100969
-0.000582616
-0.0100779
-0.000597194
-0.0100579
-0.000603394
-0.0100367
-0.000601335
-0.0100148
-0.000591259
-0.00999238
-0.000573541
-0.0099697
-0.000548633
-0.00994709
-0.000517001
-0.00992489
-0.000479067
-0.00990351
-0.000435163
-0.00988337
-0.000385552
-0.00986489
-0.000330505
-0.00984845
-0.000270464
-0.00983432
-0.000206174
-0.00982268
-0.000138791
-0.00981365
-6.96609e-05
-0.00980736
-0.00980406
1.42993e-13
-0.000345712
-0.0100886
-0.000380945
-0.0100773
-0.000412388
-0.0100654
-0.000439271
-0.010051
-0.000460908
-0.0100363
-0.000476732
-0.0100209
-0.000486184
-0.0100054
-0.000488746
-0.00998982
-0.000483965
-0.00997448
-0.000471508
-0.00995955
-0.000451222
-0.00994518
-0.000423201
-0.00993153
-0.000387814
-0.00991876
-0.0003457
-0.00990701
-0.000297697
-0.00989645
-0.000244719
-0.00988729
-0.000187646
-0.00987975
-0.000127258
-0.00987404
-6.43628e-05
-0.00987026
-0.00986842
1.55656e-13
-0.000253968
-0.0100651
-0.000273173
-0.0100581
-0.000288557
-0.0100501
-0.000299263
-0.0100403
-0.000305483
-0.01003
-0.000307214
-0.0100192
-0.000304644
-0.0100079
-0.000298026
-0.00999644
-0.000287664
-0.00998484
-0.000273884
-0.00997333
-0.000256982
-0.00996208
-0.000237201
-0.00995131
-0.000214709
-0.00994125
-0.000189629
-0.00993209
-0.000162091
-0.00992399
-0.000132314
-0.00991707
-0.000100672
-0.0099114
-6.76995e-05
-0.00990701
-3.39831e-05
-0.00990397
-0.0099024
1.43002e-13
-0.000186995
-0.0100446
-0.00020645
-0.0100386
-0.000223918
-0.0100326
-0.000238951
-0.0100253
-0.000251113
-0.0100179
-0.000260038
-0.0100103
-0.000265382
-0.0100026
-0.000266836
-0.00999499
-0.000264145
-0.00998754
-0.000257143
-0.00998033
-0.000245789
-0.00997343
-0.000230188
-0.00996691
-0.000210604
-0.00996083
-0.000187437
-0.00995525
-0.000161171
-0.00995025
-0.00013231
-0.00994593
-0.000101319
-0.00994239
-6.86223e-05
-0.00993971
-3.46628e-05
-0.00993793
-0.00993707
1.15309e-13
-0.000126575
-0.0100324
-0.000136259
-0.010029
-0.000143803
-0.010025
-0.000148769
-0.0100203
-0.000151319
-0.0100153
-0.000151528
-0.01001
-0.000149559
-0.0100046
-0.00014561
-0.00999893
-0.000139895
-0.00999325
-0.000132622
-0.0099876
-0.000123967
-0.00998209
-0.000114056
-0.00997682
-0.000102964
-0.00997192
-9.0734e-05
-0.00996748
-7.74117e-05
-0.00996358
-6.30923e-05
-0.00996025
-4.79488e-05
-0.00995753
-3.22241e-05
-0.00995543
-1.61744e-05
-0.00995398
-0.00995324
1.00297e-13
-0.000100871
-0.0100211
-0.000111656
-0.0100182
-0.000121445
-0.0100153
-0.00012997
-0.0100118
-0.000136971
-0.0100083
-0.000142201
-0.0100048
-0.000145445
-0.0100013
-0.000146504
-0.00999788
-0.000145221
-0.00999453
-0.000141498
-0.00999132
-0.000135315
-0.00998827
-0.000126746
-0.00998539
-0.000115954
-0.00998272
-0.000103177
-0.00998026
-8.8693e-05
-0.00997806
-7.27833e-05
-0.00997616
-5.57081e-05
-0.0099746
-3.77073e-05
-0.00997343
-1.90353e-05
-0.00997266
-0.00997227
7.5886e-14
-5.86911e-05
-0.0100149
-6.35136e-05
-0.0100133
-6.71327e-05
-0.0100116
-6.93537e-05
-0.0100096
-7.0292e-05
-0.0100074
-7.00431e-05
-0.0100051
-6.87313e-05
-0.0100026
-6.65008e-05
-0.0100001
-6.34971e-05
-0.00999754
-5.98514e-05
-0.00999497
-5.5666e-05
-0.00999246
-5.10048e-05
-0.00999005
-4.58956e-05
-0.00998782
-4.03429e-05
-0.00998581
-3.43522e-05
-0.00998405
-2.7954e-05
-0.00998256
-2.12187e-05
-0.00998134
-1.42484e-05
-0.0099804
-7.14892e-06
-0.00997976
-0.00997942
5.05511e-14
-5.34152e-05
-0.0100087
-5.94184e-05
-0.0100073
-6.49486e-05
-0.0100061
-6.98358e-05
-0.0100047
-7.39412e-05
-0.0100033
-7.70912e-05
-0.0100019
-7.91552e-05
-0.0100006
-7.99994e-05
-0.00999926
-7.95222e-05
-0.00999801
-7.76588e-05
-0.00999683
-7.43957e-05
-0.00999572
-6.97754e-05
-0.00999467
-6.38946e-05
-0.00999371
-5.68914e-05
-0.00999282
-4.89256e-05
-0.00999202
-4.01575e-05
-0.00999133
-3.07358e-05
-0.00999076
-2.07999e-05
-0.00999034
-1.04974e-05
-0.00999006
-0.00998992
4.58832e-14
-2.23791e-05
-0.0100057
-2.46635e-05
-0.0100051
-2.62556e-05
-0.0100045
-2.71202e-05
-0.0100038
-2.73177e-05
-0.0100031
-2.69592e-05
-0.0100023
-2.61259e-05
-0.0100014
-2.4928e-05
-0.0100005
-2.34627e-05
-0.00999948
-2.18147e-05
-0.00999848
-2.00437e-05
-0.00999749
-1.81811e-05
-0.00999654
-1.62319e-05
-0.00999565
-1.41841e-05
-0.00999486
-1.20236e-05
-0.00999418
-9.74865e-06
-0.0099936
-7.37685e-06
-0.00999313
-4.94098e-06
-0.00999277
-2.47482e-06
-0.00999252
-0.0099924
1.74296e-14
-2.61895e-05
-0.0100023
-2.93889e-05
-0.0100019
-3.24128e-05
-0.0100015
-3.5125e-05
-0.0100011
-3.74894e-05
-0.0100007
-3.93634e-05
-0.0100004
-4.06854e-05
-0.0100001
-4.13557e-05
-0.00999979
-4.13126e-05
-0.00999952
-4.05098e-05
-0.00999928
-3.89359e-05
-0.00999906
-3.6612e-05
-0.00999886
-3.35923e-05
-0.00999867
-2.9954e-05
-0.0099985
-2.57868e-05
-0.00999835
-2.118e-05
-0.00999821
-1.62168e-05
-0.0099981
-1.09758e-05
-0.00999801
-5.53926e-06
-0.00999796
-0.00999794
-6.20725e-15
-2.28501e-06
-0.0100013
-2.98597e-06
-0.0100012
-3.29872e-06
-0.0100012
-3.32426e-06
-0.0100011
-3.03393e-06
-0.010001
-2.58445e-06
-0.0100008
-1.99469e-06
-0.0100007
-1.37225e-06
-0.0100004
-7.70802e-07
-0.0100001
-2.5146e-07
-0.0099998
1.54282e-07
-0.00999947
4.3225e-07
-0.00999914
5.91564e-07
-0.00999883
6.52976e-07
-0.00999856
6.42346e-07
-0.00999833
5.80457e-07
-0.00999815
4.79422e-07
-0.009998
3.4447e-07
-0.00999788
1.80898e-07
-0.0099978
-0.00999775
5.61393e-14
-9.80758e-06
-1.09643e-05
-1.21458e-05
-1.3221e-05
-1.42372e-05
-1.50851e-05
-1.57492e-05
-1.61609e-05
-1.62855e-05
-1.6088e-05
-1.55568e-05
-1.46962e-05
-1.353e-05
-1.20933e-05
-1.04278e-05
-8.57437e-06
-6.57003e-06
-4.44888e-06
-2.24586e-06
6.58666e-15
0.00560739
-0.0077853
0.00551398
-0.00781653
0.00540271
-0.0078562
0.00527263
-0.00790348
0.00512279
-0.00795566
0.00495241
-0.00800944
0.00476049
-0.00806168
0.00454585
-0.00810935
0.00430727
-0.00814931
0.00404361
-0.00817833
0.00375388
-0.00819296
0.00343727
-0.00818943
0.00309326
-0.0081636
0.00272167
-0.00811101
0.00232284
-0.0080275
0.00189784
-0.00791115
0.00144871
-0.00776647
0.000978889
-0.00760998
0.000493617
-0.00747229
-0.0073904
-3.94052e-12
0.00564009
-0.0076692
0.00551268
-0.00768911
0.005373
-0.00771652
0.00521959
-0.00775007
0.00505079
-0.00778686
0.00486492
-0.00782357
0.00466036
-0.00785712
0.00443559
-0.00788457
0.00418934
-0.00790306
0.00392061
-0.00790959
0.00362863
-0.00790098
0.00331291
-0.00787371
0.00297318
-0.00782388
0.00260952
-0.00774734
0.00222235
-0.00764033
0.00181265
-0.00750144
0.00138202
-0.00733584
0.000933156
-0.00716112
0.000470398
-0.00700953
-0.00692001
-2.95661e-12
0.00572926
-0.00753566
0.00559009
-0.00754995
0.00544248
-0.00756891
0.00528326
-0.00759085
0.00510941
-0.00761301
0.00491851
-0.00763267
0.00470869
-0.0076473
0.0044785
-0.00765438
0.00422674
-0.00765131
0.00395248
-0.00763533
0.00365499
-0.00760349
0.0033338
-0.00755252
0.00298875
-0.00747883
0.00262007
-0.00737865
0.00222845
-0.00724872
0.00181517
-0.00708816
0.00138217
-0.00690284
0.000932257
-0.00671121
0.000469608
-0.00654688
-0.0064504
-2.66676e-12
0.00586657
-0.00738925
0.00571408
-0.00739746
0.005553
-0.00740783
0.0053804
-0.00741825
0.00519409
-0.0074267
0.0049923
-0.00743088
0.00477336
-0.00742837