/*--------------------------------*- C++ -*----------------------------------*\
  =========                 |
  \\      /  F ield         | OpenFOAM: The Open Source CFD Toolbox
   \\    /   O peration     | Website:  https://openfoam.org
    \\  /    A nd           | Version:  7
     \\/     M anipulation  |
\*---------------------------------------------------------------------------*/
FoamFile
{
    version     2.0;
    format      ascii;
    class       volVectorField;
    location    "15";
    object      U;
}
// * * * * * * * * * * * * * * * * * * * * * * * * * * * * * * * * * * * * * //

dimensions      [0 1 -1 0 0 0 0];

internalField   nonuniform List<vector> 
75
(
(0.868478 -0.0149056 1.42872e-20)
(0.783443 -0.0183217 -2.03787e-21)
(0.764611 -0.0171344 4.30402e-19)
(0.691108 -0.0241263 -3.69299e-20)
(0.632858 -0.0250189 2.76808e-19)
(0.989572 -0.0341322 1.64675e-22)
(0.978598 -0.0369527 -9.97154e-22)
(0.979226 -0.0303449 -2.32998e-20)
(0.977344 -0.0371615 7.34416e-20)
(0.982339 -0.031062 7.26428e-19)
(0.997464 -0.0338951 6.95135e-18)
(1.02 -0.0191532 -3.91361e-18)
(0.989258 -0.0329446 -1.56042e-21)
(0.97755 -0.0360615 -4.96276e-20)
(0.978309 -0.0300576 -7.00796e-19)
(0.976114 -0.0378522 8.38984e-20)
(0.98071 -0.0330521 2.23817e-19)
(0.995415 -0.0385549 1.14168e-18)
(1.01818 -0.0274883 -6.06451e-19)
(0.988297 -0.032169 -6.17671e-21)
(0.975648 -0.0354067 -5.74357e-20)
(0.976762 -0.029761 -7.6642e-19)
(0.974284 -0.0380558 1.46958e-19)
(0.978938 -0.0338106 7.60792e-19)
(0.9939 -0.0402596 7.929e-18)
(1.01805 -0.0303368 1.47627e-18)
(0.986477 -0.031195 2.83533e-21)
(0.972753 -0.0346991 -3.21088e-21)
(0.974389 -0.0295396 -4.41937e-20)
(0.971522 -0.0384472 1.01098e-19)
(0.976213 -0.0352231 8.37732e-19)
(0.991003 -0.0437881 8.06757e-18)
(1.01558 -0.0372414 -3.80912e-18)
(0.983205 -0.0301413 7.7717e-21)
(0.968079 -0.0339377 2.67731e-21)
(0.970241 -0.0292985 3.10028e-21)
(0.966664 -0.0387476 1.02183e-19)
(0.971172 -0.0363483 8.53912e-19)
(0.985548 -0.0464742 7.61384e-18)
(1.00998 -0.0422593 -4.92707e-18)
(0.977141 -0.0289726 -2.0685e-21)
(0.959508 -0.0331043 -8.96541e-21)
(0.961815 -0.0290198 -2.87062e-20)
(0.956447 -0.0389621 7.85269e-20)
(0.95962 -0.0374654 8.12231e-19)
(0.972192 -0.0493177 7.64058e-18)
(0.993426 -0.0481199 -4.88009e-18)
(0.966054 -0.0275625 -9.32105e-21)
(0.943217 -0.0320354 -9.0505e-20)
(0.944619 -0.0285536 -1.15023e-18)
(0.934876 -0.0388664 1.16628e-19)
(0.934122 -0.0382973 1.69303e-19)
(0.942075 -0.0517174 9.35314e-19)
(0.954874 -0.0536768 -1.33694e-18)
(0.947441 -0.0256464 1.07899e-20)
(0.914486 -0.0303529 -2.53474e-20)
(0.912947 -0.0275161 -9.23592e-20)
(0.893715 -0.0378895 6.3282e-20)
(0.883823 -0.0381269 5.37946e-19)
(0.88013 -0.052435 6.34765e-18)
(0.872043 -0.0566586 -2.99672e-18)
(0.920335 -0.0227992 -1.7551e-21)
(0.87077 -0.027462 -1.01063e-20)
(0.863641 -0.0253038 -7.11631e-20)
(0.827645 -0.0351928 -4.37086e-21)
(0.801721 -0.0361187 -2.59575e-19)
(0.776042 -0.0505017 -4.44877e-18)
(0.731212 -0.0569506 1.51947e-17)
(0.887541 -0.0184946 -3.19723e-21)
(0.81603 -0.0226359 -8.55074e-20)
(0.801472 -0.0210259 -1.45052e-18)
(0.742406 -0.0295042 1.1625e-19)
(0.695776 -0.0303386 3.61127e-19)
(0.640087 -0.0423889 5.86755e-18)
(0.549298 -0.0471887 1.01594e-18)
)
;

boundaryField
{
    inlet
    {
        type            uniformFixedValue;
        uniformValue    constant (1 0 0);
        value           nonuniform 0();
    }
    outlet
    {
        type            pressureInletOutletVelocity;
        value           nonuniform List<vector> 
11
(
(0.868478 -0.0149056 1.42872e-20)
(0.989572 -0.0341322 1.64675e-22)
(0.989258 -0.0329446 -1.56042e-21)
(0.988297 -0.032169 -6.17671e-21)
(0.986477 -0.031195 2.83533e-21)
(0.983205 -0.0301413 7.7717e-21)
(0.977141 -0.0289726 -2.0685e-21)
(0.966054 -0.0275625 -9.32105e-21)
(0.947441 -0.0256464 1.07899e-20)
(0.920335 -0.0227992 -1.7551e-21)
(0.887541 -0.0184946 -3.19723e-21)
)
;
    }
    polygon
    {
        type            fixedValue;
        value           nonuniform 0();
    }
    top
    {
        type            symmetryPlane;
    }
    bottom
    {
        type            symmetryPlane;
    }
    outside
    {
        type            zeroGradient;
    }
    procBoundary15to10
    {
        type            processor;
        value           nonuniform List<vector> 5((1.0482 -0.0442846 -4.03031e-17) (1.004 -0.0543032 -6.53325e-18) (0.898363 -0.0596146 -3.71656e-17) (0.712316 -0.0644502 -5.65667e-18) (0.47193 -0.0503892 9.90906e-19));
    }
    procBoundary15to11
    {
        type            processor;
        value           nonuniform List<vector> 8((0.862035 -0.0135713 3.5394e-20) (0.772357 -0.0167019 -3.42232e-21) (0.752046 -0.0156559 1.98625e-19) (0.673457 -0.0220381 -1.0286e-19) (0.559797 -0.0351371 3.40924e-18) (0.611121 -0.0228753 2.7163e-19) (0.559797 -0.0351371 3.40924e-18) (0.446257 -0.0392947 -4.20201e-18));
    }
    procBoundary15to14
    {
        type            processor;
        value           nonuniform List<vector> 5((1.06307 -0.00102334 -2.87636e-17) (1.06502 -0.0134711 -1.69087e-19) (1.06805 -0.017116 2.9257e-17) (1.06863 -0.0277541 -3.12282e-17) (1.0654 -0.0353059 -3.8364e-17));
    }
}


// ************************************************************************* //
