/*--------------------------------*- C++ -*----------------------------------*\
  =========                 |
  \\      /  F ield         | OpenFOAM: The Open Source CFD Toolbox
   \\    /   O peration     | Website:  https://openfoam.org
    \\  /    A nd           | Version:  7
     \\/     M anipulation  |
\*---------------------------------------------------------------------------*/
FoamFile
{
    version     2.0;
    format      ascii;
    class       volScalarField;
    location    "10";
    object      p;
}
// * * * * * * * * * * * * * * * * * * * * * * * * * * * * * * * * * * * * * //

dimensions      [0 2 -2 0 0 0 0];

internalField   nonuniform List<scalar> 
75
(
-0.152603
-0.150903
-0.159823
-0.168119
-0.185031
-0.209235
-0.15934
-0.158834
-0.168734
-0.178841
-0.197835
-0.224915
-0.163408
-0.163563
-0.173436
-0.184267
-0.203451
-0.231532
-0.165775
-0.166458
-0.176161
-0.187463
-0.206837
-0.235899
-0.16781
-0.169072
-0.178782
-0.190651
-0.210595
-0.240887
-0.169964
-0.171831
-0.181638
-0.19409
-0.214651
-0.246027
-0.17213
-0.174565
-0.184429
-0.197352
-0.218328
-0.250409
-0.174136
-0.177071
-0.186911
-0.200154
-0.22132
-0.253755
-0.175912
-0.179279
-0.189019
-0.202437
-0.223598
-0.256033
-0.17747
-0.181197
-0.190765
-0.204207
-0.225149
-0.257231
-0.00684738
-0.0318236
-0.0467524
-0.0123429
-0.0455249
-0.0542876
-0.0181478
-0.0568598
-0.0651627
-0.0221308
-0.0639493
-0.0714399
-0.0293397
-0.0727033
-0.086982
)
;

boundaryField
{
    inlet
    {
        type            zeroGradient;
    }
    outlet
    {
        type            fixedValue;
        value           nonuniform 0();
    }
    polygon
    {
        type            zeroGradient;
    }
    top
    {
        type            symmetryPlane;
    }
    bottom
    {
        type            symmetryPlane;
    }
    outside
    {
        type            slip;
    }
    procBoundary13to9
    {
        type            processor;
        value           nonuniform List<scalar> 
14
(
-0.232973
-0.0393253
-0.252871
-0.262596
-0.270329
-0.278718
-0.286761
-0.293343
-0.298212
-0.301205
-0.302126
-0.000852635
-0.0126296
-0.0393253
)
;
    }
    procBoundary13to12
    {
        type            processor;
        value           nonuniform List<scalar> 5(0.00628476 -0.000520647 -0.00782169 -0.0117723 -0.018591);
    }
    procBoundary13to14
    {
        type            processor;
        value           nonuniform List<scalar> 6(-0.178809 -0.182772 -0.192001 -0.205109 -0.225282 -0.256065);
    }
}


// ************************************************************************* //
