/*--------------------------------*- C++ -*----------------------------------*\
  =========                 |
  \\      /  F ield         | OpenFOAM: The Open Source CFD Toolbox
   \\    /   O peration     | Website:  https://openfoam.org
    \\  /    A nd           | Version:  7
     \\/     M anipulation  |
\*---------------------------------------------------------------------------*/
FoamFile
{
    version     2.0;
    format      ascii;
    class       surfaceScalarField;
    location    "10";
    object      phi;
}
// * * * * * * * * * * * * * * * * * * * * * * * * * * * * * * * * * * * * * //

dimensions      [0 3 -1 0 0 0 0];

internalField   nonuniform List<scalar> 
131
(
-0.000200394
0.0186484
-0.018768
-9.06573e-05
0.0186837
-0.0187935
1.76457e-05
0.0187504
-0.0188587
0.000107649
0.0188498
-0.0189398
0.000184331
0.0190239
-0.0191006
0.01927
-0.000197468
0.0185226
-8.30262e-05
0.0185693
2.91759e-05
0.0186382
0.000126884
0.0187521
0.000211629
0.0189391
0.0192055
-0.000195514
0.0183934
-7.64024e-05
0.0184502
3.96758e-05
0.0185221
0.000143615
0.0186481
0.000235278
0.0188475
0.0191335
-0.000193637
0.0182609
-7.0468e-05
0.018327
4.97248e-05
0.0184019
0.000159392
0.0185384
0.00025786
0.018749
0.0190526
-0.000191617
0.0181255
-6.44816e-05
0.0181999
6.00362e-05
0.0182774
0.000175585
0.0184229
0.000281473
0.0186431
0.0189615
-0.000189311
0.0179871
-5.81739e-05
0.0180687
7.08466e-05
0.0181483
0.000192573
0.0183012
0.00030651
0.0185292
0.0188591
-0.000186736
0.0178456
-5.1604e-05
0.0179336
8.19566e-05
0.0180148
0.000209924
0.0181732
0.000332143
0.018407
0.018745
-0.000183906
0.0177013
-4.48126e-05
0.0177945
9.33151e-05
0.0178767
0.000227554
0.018039
0.000358247
0.0182763
0.0186184
-0.000180981
0.017554
-3.80975e-05
0.0176516
0.000104384
0.0177342
0.000244566
0.0178988
0.000383397
0.0181374
0.0184799
-0.000177676
-3.08379e-05
0.000116251
0.000262846
0.000410565
0.0168507
0.00502591
0.0169731
0.00219926
0.0104716
0.0170353
0.00464216
0.0171739
0.00206075
0.00870571
0.0171799
0.00419627
0.0173607
0.00187999
0.00720773
0.0172904
0.00371162
0.017498
0.00167236
0.00591226
0.017381
0.0176484
)
;

boundaryField
{
    inlet
    {
        type            calculated;
        value           nonuniform 0();
    }
    outlet
    {
        type            calculated;
        value           nonuniform 0();
    }
    polygon
    {
        type            calculated;
        value           nonuniform 0();
    }
    top
    {
        type            symmetryPlane;
        value           uniform 0;
    }
    bottom
    {
        type            symmetryPlane;
        value           uniform 0;
    }
    outside
    {
        type            calculated;
        value           nonuniform List<scalar> 
13
(
0.000319988
0.000323213
0.000324792
0.000326048
0.000327046
0.000327754
0.00032817
0.000328279
0.000328194
0.000327685
0.0032062
0.00140494
0.00479267
)
;
    }
    procBoundary13to9
    {
        type            processor;
        value           nonuniform List<scalar> 
14
(
0.000240516
-0.0193262
0.000276153
0.00030732
0.000338715
0.000372628
0.000408901
0.000446236
0.000484778
0.000521954
0.000562886
-0.00530161
-0.0023217
-0.0125991
)
;
    }
    procBoundary13to12
    {
        type            processor;
        value           nonuniform List<scalar> 5(-0.016575 -0.0166516 -0.016734 -0.0168057 -0.0168755);
    }
    procBoundary13to14
    {
        type            processor;
        value           nonuniform List<scalar> 6(0.017404 0.0175048 0.0175871 0.0177522 0.0179897 0.0183276);
    }
}


// ************************************************************************* //
