/*--------------------------------*- C++ -*----------------------------------*\
  =========                 |
  \\      /  F ield         | OpenFOAM: The Open Source CFD Toolbox
   \\    /   O peration     | Website:  https://openfoam.org
    \\  /    A nd           | Version:  7
     \\/     M anipulation  |
\*---------------------------------------------------------------------------*/
FoamFile
{
    version     2.0;
    format      ascii;
    class       surfaceScalarField;
    location    "20";
    object      phi;
}
// * * * * * * * * * * * * * * * * * * * * * * * * * * * * * * * * * * * * * //

dimensions      [0 3 -1 0 0 0 0];

internalField   nonuniform List<scalar> 
226
(
-0.00131196
0.000985512
-0.00108994
-0.00120229
0.00103831
-0.00114798
-0.00106447
0.00130438
-0.0014422
-0.000924876
0.00132758
-0.00146717
-0.000746626
0.00169017
-0.00186842
-0.000582707
0.00157144
-0.00173536
-0.000352295
0.00216788
-0.0023983
-0.00024489
0.00102078
-0.00112818
-0.000215679
-0.00130409
0.00087967
-0.00119281
0.000927035
-0.00105302
0.00116458
-0.000911168
0.00118572
-0.000730264
0.00150927
-0.00056328
0.00140446
-0.00032989
0.00193449
-0.000220605
0.000911491
-0.000240133
-0.001297
0.000772547
-0.00118428
0.000814322
-0.00104269
0.00102299
-0.000898845
0.00104188
-0.000715511
0.00132594
-0.000545836
0.00123479
-0.000309769
0.00169843
-0.000198971
0.000800693
-0.000247819
-0.00129071
0.000664293
-0.00117673
0.000700341
-0.00103354
0.000879801
-0.000887945
0.000896282
-0.000702472
0.00114046
-0.000530429
0.00106274
-0.000292041
0.00146004
-0.000179997
0.000688649
-0.000240644
-0.00128527
0.000555061
-0.00117019
0.000585268
-0.00102563
0.000735243
-0.000878525
0.000749173
-0.000691213
0.00095315
-0.000517135
0.000888664
-0.000276774
0.00121968
-0.000163705
0.00057558
-0.000220585
-0.00128069
0.000445012
-0.00116471
0.000469283
-0.001019
0.000589539
-0.000870634
0.000600804
-0.000681792
0.000764308
-0.000506021
0.000712893
-0.000264028
0.000977685
-0.000150112
0.000461663
-0.000189682
-0.00127701
0.000334311
-0.0011603
0.000352572
-0.00101368
0.000442922
-0.000864315
0.000451436
-0.000674257
0.00057425
-0.000497144
0.00053578
-0.000253853
0.000734395
-0.000139231
0.000347042
-0.000150027
-0.00127424
0.000223127
-0.00115699
0.000235325
-0.0010097
0.000295631
-0.0008596
0.000301333
-0.000668646
0.000383296
-0.000490549
0.000357683
-0.000246289
0.000490135
-0.000131078
0.00023183
-0.000103749
-0.0012724
0.000111632
-0.00115481
0.000117736
-0.00100709
0.000147908
-0.000856518
0.000150763
-0.000664992
0.000191771
-0.000486274
0.000178964
-0.00024137
0.000245231
-0.00012566
0.00011612
-5.30076e-05
-0.00127149
-0.00115376
-0.00100585
-0.000855088
-0.000663316
-0.000484352
-0.000239121
-0.000123001
-0.000575886
0.00227103
-0.000398198
0.00314791
0.00144281
-0.00113905
0.00135076
-0.00105074
0.00142144
-0.00093968
0.00178639
-0.000828075
0.00181454
-0.000685454
0.00231247
-0.000556116
0.00214169
-0.000374267
0.00296606
0.00136901
-0.00113171
0.00126502
-0.00104192
0.00133166
-0.00092896
0.00167342
-0.000815189
0.00170077
-0.000669761
0.00216704
-0.000537259
0.00200919
-0.000351519
0.00278032
0.00129176
-0.00112474
0.00117805
-0.00103356
0.00124048
-0.000918788
0.00155865
-0.000802964
0.00158495
-0.000654881
0.00201896
-0.000519386
0.00187369
-0.000330025
0.00259096
0.00121139
-0.00111817
-0.00102567
-0.000909216
-0.000791438
-0.000640902
-0.000502572
-0.000309909
)
;

boundaryField
{
    inlet
    {
        type            calculated;
        value           nonuniform 0();
    }
    outlet
    {
        type            calculated;
        value           nonuniform List<scalar> 
14
(
0.00141639
0.00140993
0.00140412
0.00139896
0.0013945
0.00139074
0.00138771
0.00138543
0.00138389
0.00138313
0.0012235
0.00121745
0.0012117
0.00120628
)
;
    }
    polygon
    {
        type            calculated;
        value           nonuniform 0();
    }
    top
    {
        type            symmetryPlane;
        value           uniform 0;
    }
    bottom
    {
        type            symmetryPlane;
        value           uniform 0;
    }
    outside
    {
        type            calculated;
        value           nonuniform 0();
    }
    procBoundary11to7
    {
        type            processor;
        value           nonuniform List<scalar> 9(3.16641e-11 6.34053e-11 4.77342e-11 -3.24747e-11 -8.2347e-11 -4.99948e-11 1.25701e-11 1.44801e-12 4.53716e-11);
    }
    procBoundary11to10
    {
        type            processor;
        value           nonuniform List<scalar> 
16
(
-0.00020183
0.000172619
-0.000196151
-0.000191284
-0.000187173
-0.000183764
-0.000181014
-0.000178887
-0.000177356
-0.000176401
-0.000176008
-0.000328198
-0.000300466
-0.00027427
-0.000249654
-0.000226705
)
;
    }
    procBoundary11to15
    {
        type            processor;
        value           nonuniform List<scalar> 9(-0.00239704 -0.0033256 -0.00151281 -0.00143522 -0.00150975 -0.00189745 -0.00192615 0.000701901 -0.00245509);
    }
}


// ************************************************************************* //
