/*--------------------------------*- C++ -*----------------------------------*\
  =========                 |
  \\      /  F ield         | OpenFOAM: The Open Source CFD Toolbox
   \\    /   O peration     | Website:  https://openfoam.org
    \\  /    A nd           | Version:  7
     \\/     M anipulation  |
\*---------------------------------------------------------------------------*/
FoamFile
{
    version     2.0;
    format      ascii;
    class       surfaceScalarField;
    location    "15";
    object      phi;
}
// * * * * * * * * * * * * * * * * * * * * * * * * * * * * * * * * * * * * * //

dimensions      [0 3 -1 0 0 0 0];

internalField   nonuniform List<scalar> 
132
(
-0.00174603
0.00388436
-0.00136152
0.00432529
0.00451948
-0.00288671
0.0014952
-0.00269046
0.00184149
-0.00251122
0.00172656
-0.00225829
0.00242827
-0.00200005
0.00251639
-0.0016355
0.00351981
-0.0012238
0.00391359
0.00405581
-0.00285777
0.00132659
-0.00265156
0.00163528
-0.00246164
0.00153664
-0.00219385
0.00216048
-0.00191901
0.00224155
-0.00153186
0.00313266
-0.00109601
0.00347774
0.00357449
-0.00283117
0.00115101
-0.00261578
0.00141989
-0.002416
0.00133685
-0.00213451
0.00187899
-0.0018444
0.00195144
-0.00143668
0.00272493
-0.000979512
0.00302058
0.00308046
-0.00280736
0.000969175
-0.00258378
0.00119631
-0.00237513
0.0011282
-0.00208141
0.00158527
-0.00177766
0.0016477
-0.00135175
0.00229901
-0.000876198
0.00254503
0.00257757
-0.00278679
0.000781946
-0.00255615
0.000965681
-0.00233985
0.000911902
-0.00203559
0.00128101
-0.00172014
0.00133224
-0.00127873
0.00185761
-0.000787809
0.00205411
0.00206861
-0.00276985
0.000590297
-0.00253344
0.000729278
-0.00231088
0.000689336
-0.00199802
0.000968152
-0.00167303
0.00100725
-0.00121911
0.00140369
-0.000715914
0.00155091
0.00155553
-0.00275688
0.000395307
-0.00251611
0.000488515
-0.00228882
0.000462042
-0.00196949
0.000648824
-0.00163738
0.000675139
-0.00117417
0.000940482
-0.000661899
0.00103864
0.00103941
-0.00274816
0.000198136
-0.00250454
0.000244897
-0.00227418
0.000231681
-0.00195066
0.000325308
-0.00161399
0.000338471
-0.00114489
0.00047138
-0.00062679
0.000520538
0.000520959
-0.00274388
-0.00249898
-0.0022673
-0.00194199
-0.00160352
-0.00113214
-0.000611604
)
;

boundaryField
{
    inlet
    {
        type            calculated;
        value           nonuniform 0();
    }
    outlet
    {
        type            calculated;
        value           nonuniform List<scalar> 9(0.00304776 0.00302638 0.00300675 0.00298919 0.00297402 0.0029615 0.00295187 0.00294533 0.00294202);
    }
    polygon
    {
        type            calculated;
        value           nonuniform 0();
    }
    top
    {
        type            symmetryPlane;
        value           uniform 0;
    }
    bottom
    {
        type            symmetryPlane;
        value           uniform 0;
    }
    outside
    {
        type            calculated;
        value           nonuniform 0();
    }
    procBoundary11to7
    {
        type            processor;
        value           nonuniform List<scalar> 8(-7.18394e-12 -1.20304e-11 -1.31664e-11 -2.35594e-12 -1.82431e-11 -5.24723e-12 3.09996e-12 2.54807e-11);
    }
    procBoundary11to10
    {
        type            processor;
        value           nonuniform List<scalar> 
11
(
-0.000920164
-0.00496084
-0.000760124
-0.000614692
-0.000485486
-0.000373303
-0.000278854
-0.000202838
-0.000145771
-0.000108344
-9.0645e-05
)
;
    }
    procBoundary11to15
    {
        type            processor;
        value           nonuniform List<scalar> 8(-0.00165625 -0.00203774 -0.00190579 -0.00268121 0.00208602 -0.00277463 -0.00422436 -0.0047098);
    }
}


// ************************************************************************* //
