/*--------------------------------*- C++ -*----------------------------------*\
  =========                 |
  \\      /  F ield         | OpenFOAM: The Open Source CFD Toolbox
   \\    /   O peration     | Website:  https://openfoam.org
    \\  /    A nd           | Version:  7
     \\/     M anipulation  |
\*---------------------------------------------------------------------------*/
FoamFile
{
    version     2.0;
    format      ascii;
    class       surfaceScalarField;
    location    "112";
    object      phi;
}
// * * * * * * * * * * * * * * * * * * * * * * * * * * * * * * * * * * * * * //

dimensions      [0 3 -1 0 0 0 0];

internalField   nonuniform List<scalar> 
14496
(
0.00153607
1.53499e-07
-3.43562e-07
0.0015368
6.95969e-07
-1.43323e-06
0.00153839
1.55426e-06
-3.13851e-06
0.00154066
2.30801e-06
-4.58391e-06
0.00154334
2.80375e-06
-5.485e-06
0.00154611
2.98049e-06
-5.7412e-06
0.00154863
2.82618e-06
-5.34821e-06
0.00155063
2.3682e-06
-4.37548e-06
0.0015519
1.65115e-06
-2.92116e-06
0.00155227
7.27448e-07
-1.09375e-06
0.0015516
-3.51424e-07
1.01989e-06
0.00154981
-1.57266e-06
3.36231e-06
0.00154686
-2.86654e-06
5.82132e-06
0.00154272
-4.20172e-06
8.33662e-06
0.00153742
-5.54973e-06
1.08572e-05
0.00153096
-6.88605e-06
1.33401e-05
0.0015234
-8.18996e-06
1.57498e-05
0.00151479
-9.44397e-06
1.80569e-05
0.00150518
-1.06332e-05
2.02374e-05
0.00149466
-1.17449e-05
2.22711e-05
0.00148329
-1.27677e-05
2.41406e-05
0.00147115
-1.36914e-05
2.58312e-05
0.00145832
-1.4507e-05
2.73297e-05
0.0014449
-1.52064e-05
2.8625e-05
0.00143098
-1.57828e-05
2.97074e-05
0.00141664
-1.62306e-05
3.05696e-05
0.00140198
-1.65461e-05
3.12065e-05
0.00138709
-1.67272e-05
3.16156e-05
0.00137207
-1.67743e-05
3.17977e-05
0.001357
-1.66896e-05
3.17566e-05
0.00134198
-1.64779e-05
3.14995e-05
0.00132709
-1.61461e-05
3.10366e-05
0.00131241
-1.57029e-05
3.03812e-05
0.00129802
-1.51587e-05
2.95489e-05
0.00128399
-1.45253e-05
2.85574e-05
0.00127038
-1.38156e-05
2.74263e-05
0.00125725
-1.30434e-05
2.61762e-05
0.00124464
-1.22224e-05
2.48283e-05
0.0012326
-1.13669e-05
2.34042e-05
0.00122117
-1.04908e-05
2.19253e-05
0.00121036
-9.60762e-06
2.04126e-05
0.00120021
-8.73048e-06
1.88863e-05
0.00119071
-7.87155e-06
1.73653e-05
0.00118189
-7.04208e-06
1.58675e-05
0.00117373
-6.25224e-06
1.44089e-05
0.00116624
-5.51095e-06
1.30041e-05
0.0011594
-4.82578e-06
1.16657e-05
0.0011532
-4.20291e-06
1.04045e-05
0.00114761
-3.64697e-06
9.22917e-06
0.00114263
-3.16098e-06
8.14626e-06
0.00113822
-2.74639e-06
7.16021e-06
0.00113435
-2.40305e-06
6.27338e-06
0.00113099
-2.1293e-06
5.48617e-06
0.00112811
-1.92202e-06
4.79709e-06
0.00112569
-1.77681e-06
4.20292e-06
0.00112368
-1.68808e-06
3.69894e-06
0.00112205
-1.64883e-06
3.27897e-06
0.00112076
-1.65251e-06
2.93555e-06
0.00111979
-1.69093e-06
2.66116e-06
0.0011191
-1.74924e-06
2.44308e-06
0.00111865
-1.822e-06
2.27449e-06
0.0011184
-1.89916e-06
2.14537e-06
0.00111832
-1.973e-06
2.04827e-06
0.00111839
-2.03937e-06
1.97794e-06
0.00111855
-2.09255e-06
1.92919e-06
0.00111878
-2.12649e-06
1.89685e-06
0.00111904
-2.13925e-06
1.87933e-06
0.00111929
-2.12973e-06
1.87648e-06
0.0011195
-2.09572e-06
1.88885e-06
0.00111962
-2.04268e-06
1.92318e-06
0.00111961
-1.97698e-06
1.98863e-06
0.00111942
-1.90582e-06
2.09692e-06
0.00111899
-1.84493e-06
2.26628e-06
0.00111828
-1.80313e-06
2.51332e-06
0.00111722
-1.79797e-06
2.86102e-06
0.00111573
-1.84616e-06
3.33484e-06
0.00111373
-1.96921e-06
3.96793e-06
0.00111113
-2.19701e-06
4.79932e-06
0.00110782
-2.55643e-06
5.87118e-06
0.00110366
-3.07431e-06
7.22852e-06
0.00109852
-3.78247e-06
8.92508e-06
0.00109221
-4.71597e-06
1.10233e-05
0.00108453
-5.91462e-06
1.35965e-05
0.00107522
-7.42504e-06
1.67334e-05
0.00106398
-9.30293e-06
2.05427e-05
0.00105044
-1.16171e-05
2.51613e-05
0.00103413
-1.44543e-05
3.07636e-05
0.00101448
-1.79273e-05
3.75769e-05
0.000990761
-2.21883e-05
4.59069e-05
0.000962049
-2.74286e-05
5.61406e-05
0.000927113
-3.39669e-05
6.89026e-05
0.000884485
-4.20246e-05
8.46535e-05
0.000831763
-5.26103e-05
0.000105332
0.000767106
-6.50998e-05
0.000129757
0.000684309
-8.40118e-05
0.000166809
0.000584917
-0.000101599
0.000200991
0.000451382
-0.000136716
0.000270251
0.0003046
-0.00015222
0.000299002
0.000127761
-0.000180226
0.000357065
-0.000131413
0.000259174
0.00155159
3.4275e-09
0.00155223
5.02923e-08
0.00155366
1.3057e-07
0.00155573
2.33236e-07
0.00155819
3.4285e-07
0.00156073
4.43887e-07
0.00156303
5.23057e-07
0.00156483
5.70835e-07
0.0015659
5.816e-07
0.00156607
5.55467e-07
0.00156522
5.00852e-07
0.00156324
4.01684e-07
0.00156011
2.71028e-07
0.00155579
1.15946e-07
0.0015503
-5.8354e-08
0.00154366
-2.46182e-07
0.00153591
-4.42185e-07
0.00152711
-6.4083e-07
0.00151731
-8.3679e-07
0.00150659
-1.02474e-06
0.00149502
-1.19937e-06
0.00148268
-1.3554e-06
0.00146967
-1.48772e-06
0.00145605
-1.59154e-06
0.00144193
-1.66258e-06
0.0014274
-1.69727e-06
0.00141254
-1.69301e-06
0.00139747
-1.64831e-06
0.00138225
-1.56289e-06
0.001367
-1.43775e-06
0.0013518
-1.27512e-06
0.00133673
-1.0784e-06
0.00132188
-8.51975e-07
0.00130732
-6.01073e-07
0.00129313
-3.31569e-07
0.00127936
-4.95965e-08
0.00126608
2.37755e-07
0.00125334
5.24108e-07
0.00124117
8.02797e-07
0.00122961
1.06723e-06
0.00121869
1.31119e-06
0.00120843
1.52881e-06
0.00119884
1.71473e-06
0.00118994
1.86417e-06
0.00118171
1.97301e-06
0.00117416
2.03794e-06
0.00116728
2.05648e-06
0.00116105
2.02709e-06
0.00115545
1.94921e-06
0.00115047
1.82338e-06
0.00114607
1.65121e-06
0.00114223
1.43542e-06
0.00113893
1.17977e-06
0.00113611
8.8907e-07
0.00113377
5.69016e-07
0.00113185
2.25847e-07
0.00113034
-1.32849e-07
0.00112919
-4.99361e-07
0.00112836
-8.67355e-07
0.00112783
-1.21875e-06
0.00112756
-1.54969e-06
0.00112751
-1.84927e-06
0.00112765
-2.10982e-06
0.00112794
-2.3291e-06
0.00112834
-2.50047e-06
0.00112883
-2.61606e-06
0.00112937
-2.6745e-06
0.00112991
-2.67384e-06
0.00113042
-2.60829e-06
0.00113086
-2.48252e-06
0.00113119
-2.30013e-06
0.00113135
-2.06503e-06
0.00113129
-1.78837e-06
0.00113096
-1.4724e-06
0.00113029
-1.12862e-06
0.0011292
-7.60151e-07
0.00112762
-3.88933e-07
0.00112545
-2.49662e-08
0.00112258
3.14122e-07
0.00111888
6.25306e-07
0.0011142
8.97027e-07
0.00110837
1.12126e-06
0.00110116
1.29305e-06
0.00109232
1.40897e-06
0.00108155
1.46789e-06
0.00106846
1.47107e-06
0.00105259
1.42219e-06
0.00103333
1.32713e-06
0.00100995
1.19356e-06
0.000981492
1.03115e-06
0.000946676
8.48884e-07
0.000903991
6.60657e-07
0.000850912
4.68786e-07
0.000785516
2.95708e-07
0.000701372
1.32279e-07
0.000599773
-7.50072e-10
0.000463168
-1.10971e-07
0.000311147
-1.98635e-07
0.000131175
-2.54429e-07
-2.37565e-07
0.00140569
6.12634e-07
-1.03157e-06
0.0014069
2.33309e-06
-3.54346e-06
0.00140925
4.98501e-06
-7.33169e-06
0.00141243
7.17014e-06
-1.03509e-05
0.00141606
8.49141e-06
-1.21232e-05
0.00141976
8.82402e-06
-1.25239e-05
0.00142319
8.18477e-06
-1.16115e-05
0.00142606
6.69356e-06
-9.57027e-06
0.00142818
4.50542e-06
-6.61959e-06
0.00142938
1.7863e-06
-2.98449e-06
0.00142955
-1.33113e-06
1.15556e-06
0.00142863
-4.76805e-06
5.68848e-06
0.00142658
-8.35433e-06
1.04057e-05
0.00142339
-1.20083e-05
1.51975e-05
0.00141908
-1.5658e-05
1.9972e-05
0.00141367
-1.9243e-05
2.46532e-05
0.0014072
-2.27143e-05
2.91791e-05
0.00139973
-2.60317e-05
3.34997e-05
0.00139132
-2.91627e-05
3.75744e-05
0.00138203
-3.20801e-05
4.13698e-05
0.00137194
-3.47613e-05
4.48581e-05
0.00136111
-3.71869e-05
4.80155e-05
0.00134963
-3.93401e-05
5.08217e-05
0.00133757
-4.12065e-05
5.32593e-05
0.00132503
-4.27742e-05
5.53137e-05
0.00131209
-4.40338e-05
5.69738e-05
0.00129884
-4.49791e-05
5.82321e-05
0.00128536
-4.56071e-05
5.90852e-05
0.00127175
-4.59192e-05
5.95349e-05
0.00125808
-4.59207e-05
5.9588e-05
0.00124444
-4.56211e-05
5.92567e-05
0.00123092
-4.50343e-05
5.85582e-05
0.00121758
-4.41779e-05
5.75146e-05
0.0012045
-4.30726e-05
5.61521e-05
0.00119175
-4.17423e-05
5.45002e-05
0.00117937
-4.02128e-05
5.25915e-05
0.00116742
-3.85116e-05
5.04602e-05
0.00115594
-3.66671e-05
4.81421e-05
0.00114498
-3.47082e-05
4.56731e-05
0.00113455
-3.26634e-05
4.30892e-05
0.00112469
-3.0561e-05
4.04255e-05
0.0011154
-2.84278e-05
3.77158e-05
0.0011067
-2.62895e-05
3.49924e-05
0.00109858
-2.41701e-05
3.22851e-05
0.00109105
-2.20913e-05
2.96215e-05
0.0010841
-2.00731e-05
2.70265e-05
0.00107771
-1.81327e-05
2.45224e-05
0.00107187
-1.62854e-05
2.21283e-05
0.00106655
-1.45435e-05
1.98604e-05
0.00106173
-1.29168e-05
1.77314e-05
0.0010574
-1.14125e-05
1.57513e-05
0.0010535
-1.00352e-05
1.39267e-05
0.00105003
-8.7871e-06
1.22616e-05
0.00104694
-7.6681e-06
1.07571e-05
0.0010442
-6.676e-06
9.4118e-06
0.00104179
-5.80666e-06
8.22224e-06
0.00103966
-5.05424e-06
7.18284e-06
0.00103779
-4.41157e-06
6.28635e-06
0.00103613
-3.87059e-06
5.52458e-06
0.00103466
-3.42004e-06
4.88707e-06
0.00103335
-3.0521e-06
4.36534e-06
0.00103216
-2.7571e-06
3.94979e-06
0.00103105
-2.52739e-06
3.63255e-06
0.00103
-2.35715e-06
3.40746e-06
0.00102898
-2.24146e-06
3.26985e-06
0.00102794
-2.17613e-06
3.21628e-06
0.00102685
-2.16006e-06
3.2463e-06
0.00102568
-2.1942e-06
3.36208e-06
0.00102439
-2.28157e-06
3.56882e-06
0.00102295
-2.43073e-06
3.87708e-06
0.0010213
-2.65369e-06
4.30172e-06
0.0010194
-2.96602e-06
4.86215e-06
0.00101721
-3.38971e-06
5.58417e-06
0.00101466
-3.94782e-06
6.49686e-06
0.00101169
-4.66992e-06
7.63616e-06
0.00100824
-5.59036e-06
9.0446e-06
0.00100422
-6.75093e-06
1.07734e-05
0.000999535
-8.20219e-06
1.28835e-05
0.000994091
-1.00002e-05
1.54444e-05
0.000987764
-1.22079e-05
1.85354e-05
0.000980413
-1.48998e-05
2.22507e-05
0.000971875
-1.8164e-05
2.67022e-05
0.000961956
-2.21059e-05
3.20248e-05
0.000950426
-2.68539e-05
3.83837e-05
0.00093701
-3.2567e-05
4.59833e-05
0.000921373
-3.94462e-05
5.50827e-05
0.000903109
-4.77481e-05
6.60119e-05
0.000881715
-5.78086e-05
7.92031e-05
0.000856564
-7.00744e-05
9.52252e-05
0.000826861
-8.51229e-05
0.000114826
0.000791614
-0.000103835
0.000139083
0.000749538
-0.000126983
0.000169059
0.00069889
-0.000157167
0.000207816
0.00063784
-0.000193137
0.000254187
0.000562265
-0.00024673
0.000322306
0.000473246
-0.00029668
0.000385699
0.000357297
-0.000396454
0.000512403
0.00023756
-0.000433394
0.00055313
8.4844e-05
-0.000518186
0.000670902
-0.000352489
0.000437333
0.00144786
0.00144876
0.0014506
0.00145319
0.00145619
0.00145928
0.00146211
0.00146443
0.00146602
0.00146671
0.0014664
0.00146499
0.00146246
0.00145879
0.00145399
0.00144808
0.00144112
0.00143314
0.00142422
0.00141441
0.00140379
0.00139243
0.00138042
0.00136784
0.00135477
0.00134131
0.00132754
0.00131355
0.00129943
0.00128526
0.00127114
0.00125714
0.00124335
0.00122982
0.00121664
0.00120385
0.00119151
0.00117968
0.00116837
0.00115763
0.00114749
0.00113794
0.00112902
0.00112072
0.00111303
0.00110597
0.0010995
0.00109362
0.0010883
0.00108353
0.00107928
0.00107552
0.00107222
0.00106935
0.00106687
0.00106477
0.00106299
0.00106151
0.00106031
0.00105933
0.00105855
0.00105794
0.00105746
0.00105708
0.00105677
0.00105649
0.00105621
0.00105589
0.0010555
0.00105499
0.00105433
0.00105346
0.00105233
0.0010509
0.00104909
0.00104683
0.00104405
0.00104065
0.00103652
0.00103154
0.00102556
0.00101842
0.00100991
0.000999794
0.00098777
0.000973485
0.0009565
0.000936269
0.000912101
0.000883119
0.000848186
0.000805857
0.000754022
0.000690641
0.00061072
0.000515031
0.000388827
0.000254436
9.33155e-05
0.00118898
1.63866e-06
-2.57201e-06
0.00119113
5.09807e-06
-7.25095e-06
0.00119478
1.01509e-05
-1.38035e-05
0.00119938
1.40371e-05
-1.86362e-05
0.00120439
1.62384e-05
-2.12531e-05
0.00120939
1.667e-05
-2.16626e-05
0.00121402
1.5456e-05
-2.00854e-05
0.00121803
1.28554e-05
-1.68699e-05
0.00122125
9.15394e-06
-1.23759e-05
0.00122356
4.63205e-06
-6.93957e-06
0.00122487
-4.61558e-07
-8.47517e-07
0.00122516
-6.03709e-06
5.75067e-06
0.00122439
-1.1805e-05
1.25752e-05
0.00122256
-1.76513e-05
1.94729e-05
0.00121971
-2.34646e-05
2.63179e-05
0.00121586
-2.91551e-05
3.30086e-05
0.00121104
-3.46501e-05
3.9463e-05
0.00120532
-3.98913e-05
4.56152e-05
0.00119874
-4.48313e-05
5.1412e-05
0.00119136
-4.94315e-05
5.68097e-05
0.00118325
-5.36593e-05
6.17718e-05
0.00117447
-5.74874e-05
6.62672e-05
0.00116509
-6.08921e-05
7.02694e-05
0.00115519
-6.38533e-05
7.37554e-05
0.00114484
-6.63543e-05
7.67062e-05
0.00113411
-6.83821e-05
7.9107e-05
0.00112309
-6.99279e-05
8.0948e-05
0.00111186
-7.09882e-05
8.22253e-05
0.00110048
-7.15653e-05
8.29415e-05
0.00108904
-7.16675e-05
8.31067e-05
0.00107761
-7.13095e-05
8.27382e-05
0.00106626
-7.05122e-05
8.18604e-05
0.00105506
-6.93019e-05
8.0504e-05
0.00104407
-6.77099e-05
7.87059e-05
0.00103333
-6.57717e-05
7.6507e-05
0.0010229
-6.35259e-05
7.39526e-05
0.00101283
-6.10135e-05
7.10903e-05
0.00100313
-5.82769e-05
6.79691e-05
0.000993854
-5.53589e-05
6.46388e-05
0.000985008
-5.23024e-05
6.11489e-05
0.000976609
-4.91489e-05
5.75476e-05
0.000968666
-4.59386e-05
5.38812e-05
0.000961182
-4.27095e-05
5.01937e-05
0.000954154
-3.94973e-05
4.65261e-05
0.000947572
-3.63346e-05
4.29159e-05
0.000941426
-3.32509e-05
3.93971e-05
0.000935698
-3.02725e-05
3.60002e-05
0.000930369
-2.74225e-05
3.27516e-05
0.000925416
-2.47199e-05
2.96735e-05
0.000920812
-2.21803e-05
2.67838e-05
0.000916531
-1.98157e-05
2.40966e-05
0.000912544
-1.76345e-05
2.16218e-05
0.00090882
-1.5642e-05
1.93659e-05
0.000905329
-1.38402e-05
1.73315e-05
0.000902038
-1.22283e-05
1.55185e-05
0.000898918
-1.0803e-05
1.39236e-05
0.000895935
-9.55895e-06
1.25413e-05
0.00089306
-8.48868e-06
1.13642e-05
0.00089026
-7.58372e-06
1.03834e-05
0.000887505
-6.83395e-06
9.5888e-06
0.000884765
-6.23036e-06
8.97104e-06
0.000882008
-5.76333e-06
8.52037e-06
0.000879204
-5.42484e-06
8.2286e-06
0.000876323
-5.20859e-06
8.08942e-06
0.000873335
-5.11018e-06
8.0987e-06
0.000870207
-5.12691e-06
8.25447e-06
0.000866908
-5.2592e-06
8.5581e-06
0.000863404
-5.51057e-06
9.01453e-06
0.000859659
-5.88834e-06
9.63311e-06
0.000855636
-6.4053e-06
1.04289e-05
0.000851292
-7.07924e-06
1.14227e-05
0.000846585
-7.9333e-06
1.26411e-05
0.000841464
-8.99728e-06
1.4118e-05
0.000835876
-1.03059e-05
1.58934e-05
0.000829762
-1.19014e-05
1.80155e-05
0.000823055
-1.38341e-05
2.05417e-05
0.000815678
-1.61638e-05
2.35401e-05
0.00080755
-1.89615e-05
2.70904e-05
0.000798572
-2.2309e-05
3.12861e-05
0.000788639
-2.63004e-05
3.62342e-05
0.000777624
-3.10478e-05
4.20623e-05
0.000765386
-3.66848e-05
4.89228e-05
0.00075176
-4.33727e-05
5.69991e-05
0.000736553
-5.1309e-05
6.65161e-05
0.000719539
-6.07386e-05
7.77516e-05
0.000700455
-7.19717e-05
9.10562e-05
0.000678984
-8.5402e-05
0.000106873
0.000654748
-0.000101545
0.000125781
0.000627298
-0.000121073
0.000148524
0.000596075
-0.00014488
0.000176103
0.00056046
-0.000174184
0.000209799
0.00051957
-0.000210403
0.000251293
0.000472782
-0.000256606
0.000303393
0.000418447
-0.000312587
0.000366922
0.000356399
-0.00039187
0.000453919
0.000285456
-0.000467778
0.000538721
0.00020482
-0.000612295
0.000692932
0.000125835
-0.000652299
0.000731283
1.7848e-05
-0.000793595
0.000901582
-0.000463367
0.000481215
0.00124633
0.00124788
0.0012507
0.00125439
0.0012585
0.00126265
0.00126649
0.00126978
0.00127231
0.00127396
0.00127465
0.00127431
0.00127291
0.00127045
0.00126696
0.00126246
0.00125699
0.0012506
0.00124334
0.00123528
0.00122648
0.001217
0.00120693
0.00119634
0.0011853
0.00117389
0.0011622
0.00115029
0.00113826
0.00112618
0.00111413
0.00110218
0.00109039
0.00107883
0.00106756
0.00105662
0.00104607
0.00103594
0.00102625
0.00101704
0.00100831
0.00100009
0.000992374
0.000985162
0.000978449
0.000972224
0.000966474
0.00096118
0.000956321
0.000951872
0.000947807
0.0009441
0.000940719
0.000937636
0.00093482
0.000932239
0.000929863
0.00092766
0.000925601
0.000923654
0.000921789
0.000919976
0.000918183
0.000916382
0.000914542
0.000912631
0.000910619
0.00090847
0.000906151
0.000903622
0.000900845
0.000897774
0.000894361
0.000890551
0.000886286
0.000881497
0.000876106
0.000870028
0.000863164
0.000855399
0.000846602
0.000836619
0.000825271
0.000812346
0.00079759
0.000780701
0.000761311
0.000738969
0.000713121
0.000683067
0.000647966
0.000606622
0.000557831
0.000499431
0.000429867
0.000347788
0.000247895
0.000148727
2.60341e-05
0.000928771
3.79073e-06
-5.5549e-06
0.000932197
9.85496e-06
-1.32812e-05
0.000937322
1.79095e-05
-2.3034e-05
0.000943315
2.36261e-05
-2.96194e-05
0.000949543
2.65569e-05
-3.27847e-05
0.000955576
2.68653e-05
-3.28981e-05
0.000961126
2.48868e-05
-3.04369e-05
0.000966002
2.10593e-05
-2.59357e-05
0.000970083
1.5811e-05
-1.98917e-05
0.000973289
9.52513e-06
-1.27315e-05
0.000975564
2.53428e-06
-4.80851e-06
0.000976922
-4.98704e-06
3.62829e-06
0.000977343
-1.27531e-05
1.23322e-05
0.000976841
-2.05793e-05
2.10815e-05
0.000975439
-2.83324e-05
2.9734e-05
0.000973169
-3.59006e-05
3.81709e-05
0.000970068
-4.3195e-05
4.62963e-05
0.000966178
-5.01437e-05
5.40333e-05
0.000961547
-5.66887e-05
6.13195e-05
0.000956226
-6.27824e-05
6.8104e-05
0.000950267
-6.83849e-05
7.43437e-05
0.000943727
-7.34623e-05
8.0002e-05
0.000936666
-7.79853e-05
8.5047e-05
0.000929143
-8.19288e-05
8.94512e-05
0.000921223
-8.52715e-05
9.31915e-05
0.00091297
-8.79972e-05
9.62499e-05
0.000904451
-9.0095e-05
9.86147e-05
0.00089573
-9.15608e-05
0.000100281
0.000886875
-9.2398e-05
0.000101254
0.000877947
-9.26183e-05
0.000101546
0.00086901
-9.22415e-05
0.000101179
0.000860119
-9.12955e-05
0.000100186
0.000851328
-8.98157e-05
9.86067e-05
0.000842684
-8.78436e-05
9.6487e-05
0.000834231
-8.5426e-05
9.38796e-05
0.000826003
-8.26139e-05
9.08417e-05
0.000818031
-7.9461e-05
8.74332e-05
0.000810338
-7.60228e-05
8.37158e-05
0.000802941
-7.23551e-05
7.97516e-05
0.000795852
-6.85134e-05
7.56021e-05
0.000789077
-6.45518e-05
7.13271e-05
0.000782615
-6.0522e-05
6.69839e-05
0.000776462
-5.64731e-05
6.26265e-05
0.000770608
-5.24508e-05
5.83051e-05
0.000765039
-4.84969e-05
5.40655e-05
0.000759739
-4.46491e-05
4.99492e-05
0.000754687
-4.09412e-05
4.5993e-05
0.00074986
-3.74024e-05
4.2229e-05
0.000745234
-3.40574e-05
3.86839e-05
0.00074078
-3.09259e-05
3.53794e-05
0.000736472
-2.80235e-05
3.23322e-05
0.000732278
-2.53612e-05
2.95543e-05
0.000728171
-2.2946e-05
2.70532e-05
0.00072412
-2.07811e-05
2.48324e-05
0.000720095
-1.88663e-05
2.28916e-05
0.000716065
-1.71984e-05
2.12275e-05
0.000712003
-1.57716e-05
1.9834e-05
0.000707878
-1.4578e-05
1.87027e-05
0.000703663
-1.36084e-05
1.78241e-05
0.000699328
-1.28527e-05
1.71876e-05
0.000694846
-1.2301e-05
1.67832e-05
0.000690188
-1.19434e-05
1.66008e-05
0.000685328
-1.17718e-05
1.66324e-05
0.000680236
-1.178e-05
1.68719e-05
0.000674884
-1.19643e-05
1.73162e-05
0.000669242
-1.23235e-05
1.79649e-05
0.000663281
-1.28602e-05
1.88219e-05
0.000656966
-1.35808e-05
1.98951e-05
0.000650265
-1.44968e-05
2.11984e-05
0.000643139
-1.56258e-05
2.27517e-05
0.000635548
-1.69914e-05
2.45817e-05
0.00062745
-1.86241e-05
2.67223e-05
0.000618797
-2.05616e-05
2.92151e-05
0.000609536
-2.28488e-05
3.21099e-05
0.00059961
-2.55399e-05
3.5466e-05
0.000588955
-2.86987e-05
3.93534e-05
0.000577501
-3.24007e-05
4.38543e-05
0.000565171
-3.67341e-05
4.90641e-05
0.000551879
-4.18026e-05
5.50953e-05
0.000537528
-4.77241e-05
6.20749e-05
0.000522012
-5.464e-05
7.01555e-05
0.000505213
-6.27188e-05
7.95178e-05
0.000486998
-7.21628e-05
9.03785e-05
0.000467216
-8.32195e-05
0.000103001
0.000445701
-9.6194e-05
0.000117709
0.000422265
-0.000111469
0.000134905
0.0003967
-0.000129528
0.000155093
0.000368776
-0.000150995
0.000178919
0.000338247
-0.00017667
0.0002072
0.000304862
-0.00020762
0.000241004
0.000268422
-0.000245155
0.000281595
0.000228636
-0.000291115
0.000330901
0.000186005
-0.000347917
0.000390548
0.000139645
-0.000417489
0.000463849
9.47975e-05
-0.000508172
0.00055302
4.62102e-05
-0.000600523
0.000649111
1.72764e-05
-0.000749614
0.000778548
-1.46396e-05
-0.000790023
0.000821939
-2.51276e-05
-0.000957168
0.000967656
-0.000437924
0.000412797
0.000986825
0.000989429
0.000993535
0.000998525
0.00100383
0.00100903
0.00101383
0.00101802
0.00102146
0.00102404
0.00102573
0.00102649
0.00102632
0.00102521
0.00102319
0.0010203
0.00101657
0.00101204
0.00100677
0.00100079
0.000994179
0.000986984
0.000979268
0.000971095
0.00096253
0.00095364
0.000944493
0.000935157
0.0009257
0.000916189
0.000906686
0.00089725
0.000887939
0.000878801
0.000869882
0.000861221
0.00085285
0.000844796
0.00083708
0.000829716
0.000822711
0.000816071
0.000809791
0.000803867
0.000798285
0.000793034
0.000788093
0.000783442
0.000779058
0.000774916
0.000770989
0.00076725
0.00076367
0.00076022
0.000756872
0.000753597
0.000750367
0.000747153
0.000743928
0.000740664
0.000737334
0.000733911
0.000730368
0.000726677
0.000722812
0.000718743
0.000714441
0.000709874
0.000705011
0.000699814
0.000694245
0.000688262
0.000681819
0.000674863
0.000667339
0.000659182
0.000650321
0.000640678
0.000630161
0.000618671
0.000606094
0.000592298
0.000577134
0.000560431
0.000541988
0.000521575
0.00049892
0.000473706
0.000445559
0.000414043
0.000378687
0.000338865
0.000294341
0.000243774
0.00018952
0.000127718
7.10354e-05
1.22954e-05
-4.32911e-05
-0.000887461
0.010534
-0.0103036
-0.00111853
0.010525
-0.010294
-0.00135046
0.010512
-0.01028
-0.00158365
0.0105025
-0.0102693
-0.00181822
0.0104983
-0.0102637
-0.00205457
0.0105005
-0.0102641
-0.00229316
0.0105102
-0.0102716
-0.00253457
0.010529
-0.0102876
-0.00277958
0.010559
-0.010314
-0.00302884
0.0106022
-0.010353
-0.00328138
0.0106581
-0.0104055
-0.00352917
0.0107155
-0.0104677
-0.0037428
0.0107304
-0.0105168
-0.00384428
0.010579
-0.0104775
-0.00368352
0.0100061
-0.0101668
-0.0030779
0.00864144
-0.00924707
-0.00198724
0.00615523
-0.0072459
-0.000772987
0.00279928
-0.00401353
-0.000100349
0.000219648
-0.000892286
-0.000521445
0.000421096
-0.000893247
0.0107631
-0.00112557
0.0107574
-0.00135771
0.0107441
-0.00159164
0.0107364
-0.00182675
0.0107334
-0.00206374
0.0107374
-0.00230288
0.0107493
-0.0025447
0.0107708
-0.00278946
0.0108038
-0.00303606
0.0108488
-0.00327849
0.0109005
-0.00349708
0.0109341
-0.00364241
0.0108757
-0.00361873
0.0105553
-0.00328731
0.00967465
-0.00253858
0.00789271
-0.00144851
0.00506516
-0.000479981
0.00183075
-3.54503e-05
-0.000224882
-0.000556896
-0.00091674
0.01012
-0.00993575
-0.00110126
0.0101101
-0.00992563
-0.00128691
0.0100948
-0.00990913
-0.00147398
0.0100827
-0.00989567
-0.00166268
0.0100756
-0.00988688
-0.00185333
0.0100741
-0.00988343
-0.00204635
0.0100794
-0.00988634
-0.00224227
0.0100928
-0.00989683
-0.00244182
0.0101161
-0.0099166
-0.00264587
0.010152
-0.00994796
-0.00285483
0.0102027
-0.0099937
-0.00306655
0.010268
-0.0100563
-0.00327021
0.0103358
-0.0101321
-0.0034302
0.0103593
-0.0101994
-0.00346375
0.0102112
-0.0101777
-0.00322294
0.00961741
-0.00985822
-0.00252621
0.00808338
-0.00878011
-0.00131547
0.00518885
-0.00639959
-0.000272681
0.00167076
-0.00271355
-0.000280732
8.05074e-06
-0.000925012
-0.00110883
-0.00129407
-0.00148059
-0.00166876
-0.00185878
-0.00205102
-0.00224586
-0.00244371
-0.00264468
-0.00284754
-0.00304724
-0.00322821
-0.0033464
-0.00330198
-0.00293164
-0.00209416
-0.000918838
-0.000140365
-0.000904847
0.00980469
-0.00967254
-0.0010375
0.00979422
-0.00966157
-0.00117144
0.00977624
-0.0096423
-0.0013071
0.00976135
-0.00962569
-0.00144465
0.00975064
-0.00961309
-0.00158444
0.00974514
-0.00960534
-0.00172688
0.00974563
-0.00960319
-0.00187244
0.00975337
-0.00960781
-0.00202177
0.00976994
-0.00962061
-0.00217564
0.00979764
-0.00964377
-0.00233475
0.00983932
-0.00968021
-0.00249903
0.00989794
-0.00973367
-0.00266585
0.00997278
-0.00980596
-0.00282388
0.0100553
-0.00989727
-0.00294124
0.0100975
-0.00998011
-0.00292645
0.00995627
-0.00997106
-0.00260363
0.00923849
-0.00956131
-0.00175801
0.00734837
-0.00819398
-0.000572065
0.00373289
-0.00491884
0.000333153
-0.000905218
-0.000915093
-0.0010465
-0.0011794
-0.00131373
-0.00144997
-0.00158826
-0.00172897
-0.00187243
-0.00201909
-0.00216942
-0.00232379
-0.00248213
-0.00264149
-0.00278554
-0.00286576
-0.00276771
-0.00230934
-0.00136055
-0.000341203
-0.000853671
0.0095976
-0.00952102
-0.000931199
0.0095858
-0.00950827
-0.00101039
0.00956479
-0.0094856
-0.00109143
0.00954662
-0.00946558
-0.00117483
0.00953175
-0.00944835
-0.00126088
0.00952161
-0.00943557
-0.00135
0.0095167
-0.00942758
-0.00144264
0.00951823
-0.00942558
-0.00153945
0.00952743
-0.00943062
-0.00164124
0.00954639
-0.00944461
-0.00174891
0.00957781
-0.00947013
-0.00186313
0.00962547
-0.00951125
-0.00198459
0.00969147
-0.00957002
-0.00211107
0.00978031
-0.00965382
-0.0022362
0.00987495
-0.00974982
-0.00231538
0.00993734
-0.00985816
-0.00224784
0.00972024
-0.00978777
-0.00179555
0.00874143
-0.00919372
-0.000836435
0.00584921
-0.00680832
0.00147892
-0.00231535
-0.000865486
-0.000941255
-0.00101876
-0.00109782
-0.00117916
-0.00126289
-0.00134938
-0.00143896
-0.00153213
-0.00162951
-0.00173191
-0.00184011
-0.00195459
-0.00207156
-0.00217672
-0.00221044
-0.00205151
-0.00150406
-0.000573702
-0.000767355
0.00950354
-0.00948399
-0.000788565
0.00948927
-0.00946806
-0.000811939
0.0094646
-0.00944123
-0.000837709
0.00944231
-0.00941654
-0.000866216
0.00942267
-0.00939417
-0.000897854
0.00940702
-0.00937539
-0.000933102
0.00939582
-0.00936057
-0.000972497
0.0093902
-0.00935081
-0.0010167
0.00939109
-0.00934689
-0.00106663
0.00940018
-0.00935024
-0.00112351
0.00941991
-0.00936304
-0.00118847
0.0094542
-0.00938924
-0.00126346
0.00950504
-0.00943005
-0.00134908
0.00958017
-0.00949454
-0.00144773
0.00966955
-0.00957091
-0.00154536
0.00978757
-0.00968995
-0.00160568
0.00978115
-0.00972082
-0.00144818
0.00942032
-0.00957782
-0.000855456
0.00739894
-0.00799166
0.00295016
-0.00380562
-0.000780022
-0.000799024
-0.000820027
-0.000843294
-0.000868974
-0.000897517
-0.000929284
-0.000964667
-0.0010042
-0.00104863
-0.00109885
-0.0011559
-0.00122088
-0.00129453
-0.0013748
-0.0014454
-0.00145202
-0.00122542
-0.000634808
-0.000652179
0.00952347
-0.00956062
-0.000617662
0.00950506
-0.00953958
-0.000585444
0.00947629
-0.00950851
-0.000556266
0.00944857
-0.00947775
-0.000530184
0.00942355
-0.00944963
-0.000507882
0.0094013
-0.0094236
-0.000490023
0.00938273
-0.00940059
-0.000476768
0.0093688
-0.00938206
-0.00046908
0.00936013
-0.00936781
-0.000468306
0.00935771
-0.00935849
-0.000475668
0.0093639
-0.00935654
-0.000492953
0.00938176
-0.00936448
-0.000521985
0.00941361
-0.00938458
-0.000567161
0.00946425
-0.00941908
-0.000630198
0.00952865
-0.00946562
-0.000721281
0.00962326
-0.00953218
-0.000820894
0.00966032
-0.0095607
-0.000863936
0.00958174
-0.0095387
-0.000623194
0.00822624
-0.00846698
0.00423428
-0.00485748
-0.00066465
-0.000627648
-0.00059258
-0.000560549
-0.000531164
-0.000505251
-0.000483091
-0.000465092
-0.000451856
-0.000444385
-0.000443523
-0.000450997
-0.000467433
-0.000497724
-0.000539979
-0.000606661
-0.000667168
-0.000663242
-0.000428666
-0.000516116
0.00965488
-0.00974665
-0.000428361
0.00963015
-0.0097179
-0.000342903
0.00959746
-0.00968291
-0.000260817
0.00956314
-0.00964522
-0.000181459
0.00953238
-0.00961174
-0.00010621
0.0095025
-0.00957775
-3.55586e-05
0.00947546
-0.00954612
2.89455e-05
0.00945074
-0.00951525
8.5753e-05
0.00943029
-0.00948709
0.000134826
0.00941413
-0.0094632
0.000174564
0.00940434
-0.00944408
0.000202706
0.00940257
-0.00943071
0.000216643
0.00941179
-0.00942572
0.000210929
0.00942961
-0.0094239
0.000181939
0.0094598
-0.00943081
0.000109931
0.00948546
-0.00941346
1.21956e-05
0.00949275
-0.00939502
-0.000179201
0.00938644
-0.00919504
-0.000198856
0.0084406
-0.00842094
0.00487184
-0.0050707
-0.000527095
-0.000436526
-0.000347582
-0.000262195
-0.000179451
-0.000100551
-2.56758e-05
4.30066e-05
0.000105479
0.000161124
0.000208931
0.000247026
0.000274232
0.000284768
0.000278947
0.000232232
0.000164282
1.20172e-05
-1.43656e-05
-0.000369005
0.00989184
-0.0100313
-0.000232304
0.00985719
-0.00999389
-9.59083e-05
0.00982226
-0.00995866
3.50663e-05
0.00977971
-0.00991069
0.000159704
0.00974136
-0.009866
0.000279379
0.00970305
-0.00982273
0.000393028
0.0096663
-0.00977995
0.000500145
0.00963014
-0.00973725
0.000599733
0.00959582
-0.00969541
0.000690259
0.00956437
-0.00965489
0.000770071
0.00953633
-0.00961614
0.000836859
0.00951207
-0.00957886
0.000886929
0.00949281
-0.00954288
0.000914581
0.00947175
-0.00949941
0.00090947
0.0094491
-0.00944399
0.000853918
0.00938621
-0.00933065
0.000720426
0.0092958
-0.00916231
0.000449441
0.0089575
-0.00868652
0.000128637
0.00813521
-0.0078144
0.00467663
-0.00454799
-0.00037604
-0.000236758
-9.74096e-05
3.70806e-05
0.000166704
0.000292005
0.000412186
0.000527076
0.000635804
0.000736967
0.000829209
0.000910568
0.000977656
0.00102551
0.00104381
0.00101656
0.000917345
0.000679805
0.000394071
0.00378759
3.71369e-06
-2.88616e-06
0.00378837
-1.0683e-07
-6.74131e-07
0.0037858
1.25327e-05
-9.96692e-06
0.0037857
1.00641e-05
-9.9608e-06
0.00378171
2.05339e-05
-1.65466e-05
0.00377957
2.95108e-05
-2.73702e-05
0.00377283
3.6385e-05
-2.96426e-05
0.00376628
6.82504e-05
-6.17009e-05
0.00375409
6.87755e-05
-5.65869e-05
0.00373806
0.000146585
-0.000130553
0.00371439
0.000138164
-0.000114495
0.00367786
0.000308993
-0.000272464
0.00362827
0.000294006
-0.000244413
0.0035454
0.000666568
-0.000583702
0.00343071
0.000675058
-0.000560361
0.00323128
0.00155568
-0.00135626
0.00292085
0.00177898
-0.00146855
0.00236625
0.00431925
-0.00376466
0.00136255
0.00607815
-0.00507445
0.0153561
-0.0139935
0.0037876
4.52505e-06
0.0037883
-7.99702e-07
0.00378585
1.49823e-05
0.00378565
1.02634e-05
0.00378175
2.44306e-05
0.00377953
3.17277e-05
0.0037728
4.31182e-05
0.0037662
7.48457e-05
0.00375379
8.1186e-05
0.00373777
0.000162606
0.00371326
0.000162676
0.00367684
0.000345409
0.00362478
0.000346071
0.00354226
0.000749082
0.00342082
0.0007965
0.0032231
0.0017534
0.00289591
0.00210616
0.00235802
0.00485715
0.00135196
0.00708421
0.016708
0.00432155
2.14609e-06
-1.5285e-06
0.00432178
1.13754e-06
-1.36605e-06
0.00431977
7.65634e-06
-5.64775e-06
0.0043187
9.23907e-06
-8.16502e-06
0.00431548
1.28945e-05
-9.67497e-06
0.00431181
2.41935e-05
-2.05278e-05
0.00430622
2.33829e-05
-1.77887e-05
0.0042973
5.34473e-05
-4.453e-05
0.0042869
4.51202e-05
-3.47155e-05
0.00426724
0.00011176
-9.21026e-05
0.00424654
9.19931e-05
-7.12933e-05
0.00420449
0.000231502
-0.000189449
0.00416049
0.000197062
-0.000153061
0.00406911
0.000493788
-0.000402411
0.00396721
0.000451401
-0.000349502