/*--------------------------------*- C++ -*----------------------------------*\
  =========                 |
  \\      /  F ield         | OpenFOAM: The Open Source CFD Toolbox
   \\    /   O peration     | Website:  https://openfoam.org
    \\  /    A nd           | Version:  7
     \\/     M anipulation  |
\*---------------------------------------------------------------------------*/
FoamFile
{
    version     2.0;
    format      ascii;
    class       volVectorField;
    location    "66";
    object      U;
}
// * * * * * * * * * * * * * * * * * * * * * * * * * * * * * * * * * * * * * //

dimensions      [0 1 -1 0 0 0 0];

internalField   nonuniform List<vector> 
7360
(
(-0.374799 -3.67768e-06 4.67327e-21)
(-0.374817 -2.18719e-05 1.04249e-20)
(-0.374871 -4.06928e-05 2.05609e-20)
(-0.374954 -4.75454e-05 8.5757e-20)
(-0.375036 -3.34573e-05 -4.63252e-20)
(-0.375078 5.77206e-06 9.09479e-20)
(-0.375039 7.15012e-05 5.81853e-20)
(-0.374875 0.000163145 -5.46221e-20)
(-0.374548 0.000278372 1.47572e-19)
(-0.374023 0.000414128 2.03461e-19)
(-0.373272 0.000566957 1.84053e-20)
(-0.372271 0.000733291 1.20445e-19)
(-0.371002 0.000909701 1.10971e-19)
(-0.369451 0.00109296 9.01336e-20)
(-0.367612 0.00128006 7.28079e-21)
(-0.36548 0.00146822 2.21982e-20)
(-0.363056 0.00165486 -1.56006e-19)
(-0.360344 0.00183759 1.12716e-19)
(-0.357352 0.00201421 -2.32601e-19)
(-0.354092 0.00218264 -7.33898e-19)
(-0.350577 0.00234096 5.7709e-20)
(-0.346826 0.0024874 -9.78848e-20)
(-0.342857 0.00262034 -9.37091e-19)
(-0.338693 0.00273832 2.31986e-19)
(-0.334359 0.00284012 -2.78214e-19)
(-0.329879 0.00292471 -1.73443e-18)
(-0.325282 0.00299136 -3.91112e-19)
(-0.320596 0.0030396 -1.67692e-18)
(-0.31585 0.00306931 -3.70779e-18)
(-0.311072 0.00308064 1.5079e-20)
(-0.30629 0.00307408 -1.29923e-18)
(-0.301532 0.00305036 -8.81797e-19)
(-0.296823 0.00301049 4.2424e-19)
(-0.292189 0.00295567 -1.84428e-18)
(-0.28765 0.00288728 -7.10544e-19)
(-0.283226 0.00280681 -2.28076e-19)
(-0.278936 0.00271584 -1.73056e-18)
(-0.274793 0.00261597 -6.48795e-19)
(-0.270811 0.00250879 -2.1673e-18)
(-0.266999 0.00239581 -1.05227e-18)
(-0.263366 0.00227842 -1.18041e-18)
(-0.259916 0.00215781 -5.24423e-18)
(-0.256653 0.00203498 -2.25801e-18)
(-0.253581 0.00191062 -9.99274e-19)
(-0.250699 0.00178551 -2.02675e-19)
(-0.248011 0.00166024 1.93749e-18)
(-0.245515 0.001535 -3.75887e-18)
(-0.243214 0.00140992 -2.68053e-19)
(-0.241106 0.00128524 1.1628e-18)
(-0.239191 0.0011613 -4.27656e-18)
(-0.237468 0.00103865 -1.81982e-18)
(-0.235934 0.000918081 7.67958e-19)
(-0.234584 0.000800555 2.66086e-19)
(-0.233415 0.000687208 -1.36367e-18)
(-0.232417 0.000579244 -3.13492e-19)
(-0.231582 0.000477841 -9.56989e-19)
(-0.230898 0.000384075 -6.27337e-19)
(-0.230353 0.000298835 -2.24276e-18)
(-0.229933 0.000222776 -1.20169e-18)
(-0.229624 0.00015629 -2.92076e-19)
(-0.22941 9.95089e-05 -1.39033e-18)
(-0.229277 5.22624e-05 -1.54556e-18)
(-0.22921 1.42641e-05 -6.95376e-19)
(-0.229196 -1.88823e-05 -4.78516e-20)
(-0.22922 -4.15421e-05 2.90043e-19)
(-0.229271 -5.59679e-05 4.40811e-19)
(-0.229338 -6.37337e-05 2.44337e-19)
(-0.229409 -6.53823e-05 5.97725e-20)
(-0.229475 -6.11326e-05 -2.14631e-20)
(-0.229526 -5.07682e-05 -8.56942e-20)
(-0.229553 -3.24942e-05 -3.87048e-19)
(-0.229547 -4.76959e-06 -2.98638e-19)
(-0.229497 2.63198e-05 -1.75795e-19)
(-0.229389 6.23439e-05 -8.25138e-19)
(-0.229215 0.000106702 3.49703e-19)
(-0.228961 0.000160338 -1.07695e-19)
(-0.22861 0.000224439 -6.75293e-19)
(-0.228146 0.000300562 -1.01942e-19)
(-0.227549 0.000390648 2.90041e-19)
(-0.226795 0.000497062 -5.37306e-19)
(-0.225856 0.000622723 -2.72958e-19)
(-0.2247 0.000771236 8.57717e-20)
(-0.223288 0.00094708 -3.14372e-18)
(-0.221575 0.00115589 -1.49612e-18)
(-0.219504 0.00140477 -1.50708e-18)
(-0.217009 0.00170289 4.20379e-19)
(-0.214003 0.00206207 -5.2076e-19)
(-0.21039 0.00249785 2.79894e-18)
(-0.206027 0.00303128 4.31289e-18)
(-0.200781 0.00368888 2.05536e-20)
(-0.194363 0.00451438 7.74612e-18)
(-0.186685 0.00553939 2.01404e-18)
(-0.176972 0.00690156 3.26441e-18)
(-0.165655 0.00850173 2.38407e-18)
(-0.15024 0.0109499 -1.18831e-18)
(-0.133277 0.0132016 4.28744e-20)
(-0.108493 0.0177844 3.60102e-18)
(-0.0813503 0.0197741 -3.25205e-18)
(-0.0465202 0.0235493 4.8978e-18)
(-0.0106307 0.0173661 -1.59683e-19)
(-0.378195 -1.1522e-06 -3.97012e-21)
(-0.37821 -7.08566e-06 4.21777e-21)
(-0.378259 -1.32355e-05 -2.20354e-20)
(-0.378333 -1.54564e-05 -1.57657e-20)
(-0.378405 -1.07477e-05 -2.67982e-21)
(-0.378435 2.34351e-06 -9.89619e-20)
(-0.378384 2.42323e-05 3.36029e-20)
(-0.378207 5.4808e-05 -1.37302e-20)
(-0.377867 9.33118e-05 9.29263e-20)
(-0.377328 0.000138735 -5.52568e-20)
(-0.376561 0.000189952 2.25343e-21)
(-0.375542 0.000245779 -5.68491e-20)
(-0.374254 0.000305056 -5.75928e-20)
(-0.372682 0.000366697 -6.323e-20)
(-0.370818 0.000429691 -5.98177e-20)
(-0.368659 0.000493096 -4.25931e-20)
(-0.366205 0.000556042 -6.3257e-20)
(-0.36346 0.000617719 1.65207e-19)
(-0.360433 0.000677372 -1.85598e-19)
(-0.357134 0.000734299 -4.55742e-19)
(-0.353578 0.000787844 9.52267e-20)
(-0.349783 0.0008374 -2.28057e-19)
(-0.345768 0.000882413 -2.28942e-19)
(-0.341555 0.000922386 -2.83635e-19)
(-0.33717 0.000956893 8.48924e-19)
(-0.332638 0.000985584 -1.75955e-18)
(-0.327988 0.0010082 -1.44204e-18)
(-0.323247 0.00102459 -1.54213e-18)
(-0.318445 0.00103468 -1.9884e-18)
(-0.313611 0.00103854 -4.84765e-19)
(-0.308774 0.00103632 1.42578e-19)
(-0.30396 0.00102826 1.74834e-18)
(-0.299197 0.00101471 7.98874e-19)
(-0.294508 0.000996071 -1.69493e-18)
(-0.289917 0.0009728 -3.4619e-18)
(-0.285442 0.000945407 -1.6198e-20)
(-0.281103 0.000914423 -8.02943e-19)
(-0.276913 0.000880392 5.48495e-19)
(-0.272887 0.000843853 8.74903e-19)
(-0.269032 0.000805321 -1.36806e-19)
(-0.265359 0.000765267 -1.87086e-18)
(-0.261871 0.000724104 -3.55445e-18)
(-0.258574 0.000682177 -3.93044e-18)
(-0.255469 0.000639701 1.92823e-20)
(-0.252558 0.000596814 -5.79361e-20)
(-0.249841 0.000553827 2.79076e-18)
(-0.247321 0.000510815 -2.05594e-18)
(-0.244996 0.000467828 8.72844e-19)
(-0.242868 0.000424933 6.53759e-19)
(-0.240936 0.000382246 -1.40854e-18)
(-0.239199 0.000339948 -4.91205e-19)
(-0.237654 0.000298297 9.75825e-19)
(-0.236297 0.00025762 2.28355e-18)
(-0.235125 0.000218303 -2.44532e-18)
(-0.234128 0.000180756 -2.64044e-18)
(-0.233299 0.000145387 -2.29242e-18)
(-0.232626 0.000112571 -7.72713e-19)
(-0.232097 8.26259e-05 -2.62264e-18)
(-0.231698 5.57951e-05 8.09879e-19)
(-0.231414 3.224e-05 1.03008e-18)
(-0.23123 1.2053e-05 -1.18269e-18)
(-0.231131 -4.7151e-06 -2.15307e-18)
(-0.231104 -1.78485e-05 -9.46987e-19)
(-0.231133 -2.96066e-05 6.71888e-19)
(-0.231205 -3.8802e-05 4.54823e-19)
(-0.231306 -4.56153e-05 3.63905e-19)
(-0.231427 -4.95921e-05 5.2757e-19)
(-0.231555 -5.06604e-05 1.29817e-19)
(-0.231682 -4.90628e-05 -3.01044e-20)
(-0.231797 -4.53446e-05 -5.27704e-20)
(-0.231891 -4.05215e-05 -9.70447e-20)
(-0.231954 -3.44942e-05 -5.99878e-19)
(-0.231975 -2.35939e-05 -1.051e-19)
(-0.231944 -1.29115e-05 -1.72593e-19)
(-0.231847 5.84103e-07 -8.15882e-19)
(-0.231672 1.735e-05 -1.09888e-18)
(-0.231403 3.77279e-05 -1.62003e-18)
(-0.231024 6.22379e-05 -1.30837e-19)
(-0.230512 9.15458e-05 3.22473e-19)
(-0.229845 0.000126469 -1.11428e-19)
(-0.228994 0.000168017 -1.85061e-19)
(-0.227926 0.000217439 2.28234e-18)
(-0.226602 0.000276288 -3.49005e-19)
(-0.224975 0.000346509 -2.75144e-18)
(-0.222988 0.000430564 -1.19031e-18)
(-0.220571 0.000531602 2.65782e-18)
(-0.217636 0.00065371 4.79928e-19)
(-0.214083 0.000802184 2.26491e-18)
(-0.209764 0.000984306 2.61217e-18)
(-0.204541 0.00120889 3.80907e-19)
(-0.198113 0.00149125 2.52451e-18)
(-0.190381 0.00184078 5.43362e-18)
(-0.180549 0.00230737 1.32274e-18)
(-0.169012 0.0028563 4.50228e-18)
(-0.153286 0.00370677 -2.04431e-18)
(-0.135719 0.00447642 -1.83189e-19)
(-0.11029 0.00604605 3.8898e-18)
(-0.0819922 0.00672896 -1.4664e-18)
(-0.0458511 0.00794658 -4.03514e-19)
(-0.0101158 0.00578561 -4.54162e-20)
(-0.358587 -1.21953e-05 -2.77922e-21)
(-0.358621 -6.08385e-05 4.05556e-20)
(-0.358708 -0.000111153 -3.52566e-21)
(-0.358835 -0.000132075 9.38572e-20)
(-0.35897 -0.000102703 1.10476e-20)
(-0.359069 -1.37236e-05 6.70046e-21)
(-0.35909 0.000136128 -7.67101e-20)
(-0.358988 0.000345771 -2.27943e-19)
(-0.358726 0.000609161 1.17404e-19)
(-0.358271 0.00091898 6.07541e-20)
(-0.357595 0.00126723 -1.73164e-19)
(-0.356678 0.00164565 2.66492e-20)
(-0.355502 0.00204641 -1.21496e-19)
(-0.354056 0.00246218 1.07303e-19)
(-0.352333 0.00288623 -4.18894e-20)
(-0.35033 0.00331228 -3.5015e-21)
(-0.348049 0.00373455 -1.03373e-19)
(-0.345495 0.00414769 1.96368e-19)
(-0.342674 0.00454671 -1.61117e-19)
(-0.339597 0.00492697 -4.4906e-20)
(-0.33628 0.00528415 -1.74199e-19)
(-0.332738 0.00561425 -5.55905e-19)
(-0.328989 0.00591361 1.1072e-19)
(-0.325056 0.00617897 8.6622e-19)
(-0.320961 0.00640756 -4.9965e-19)
(-0.316729 0.00659712 -3.92997e-19)
(-0.312385 0.00674601 -1.41388e-18)
(-0.307957 0.00685325 -2.06997e-18)
(-0.303472 0.00691856 -1.39955e-18)
(-0.298957 0.0069424 -2.05285e-18)
(-0.294438 0.00692586 -8.36645e-19)
(-0.28994 0.00687069 8.91758e-19)
(-0.285489 0.00677919 2.06606e-18)
(-0.281107 0.00665412 5.13578e-19)
(-0.276813 0.00649861 -2.35812e-18)
(-0.272628 0.00631605 -5.44919e-19)
(-0.268566 0.00610999 -2.24558e-18)
(-0.264643 0.00588406 -1.26021e-18)
(-0.260869 0.0056418 -2.53395e-19)
(-0.257254 0.00538661 -6.62589e-19)
(-0.253806 0.00512156 1.17602e-18)
(-0.250529 0.00484932 -1.83447e-18)
(-0.247428 0.00457207 1.43258e-19)
(-0.244505 0.00429107 -7.01123e-19)
(-0.241762 0.00400839 9.62313e-19)
(-0.239199 0.00372554 -2.42526e-18)
(-0.236818 0.00344294 -2.52701e-18)
(-0.234618 0.00316102 2.30703e-19)
(-0.232598 0.00288043 -3.03468e-18)
(-0.230757 0.00260212 4.59195e-22)
(-0.229092 0.00232753 -2.87647e-18)
(-0.227598 0.00205852 -2.20567e-18)
(-0.226272 0.00179738 -1.01273e-18)
(-0.225105 0.00154669 9.20331e-20)
(-0.224088 0.00130914 -8.10082e-19)
(-0.223212 0.00108729 -3.49622e-19)
(-0.222464 0.000883405 -1.92492e-18)
(-0.221831 0.000699321 -2.20689e-19)
(-0.221299 0.00053631 -3.93607e-19)
(-0.220854 0.000395052 -1.32675e-18)
(-0.220482 0.000275639 -2.86965e-19)
(-0.220169 0.00017764 -3.23578e-20)
(-0.219901 0.000100279 8.0107e-19)
(-0.219663 4.41723e-05 5.86716e-21)
(-0.219445 2.99035e-06 -5.96512e-19)
(-0.219238 -2.17162e-05 -9.81272e-20)
(-0.21903 -3.08461e-05 1.09459e-19)
(-0.218812 -2.56761e-05 2.39977e-21)
(-0.218572 -6.34742e-06 -3.63352e-20)
(-0.218301 2.73104e-05 -1.0211e-20)
(-0.21799 7.36288e-05 4.62525e-19)
(-0.217631 0.000131071 6.11901e-19)
(-0.217215 0.000205878 8.35305e-19)
(-0.21673 0.000297713 7.18131e-19)
(-0.216166 0.000407988 2.17296e-19)
(-0.215508 0.000539174 1.87314e-18)
(-0.214743 0.000694254 1.96941e-18)
(-0.213854 0.000876839 9.15159e-19)
(-0.212822 0.00109138 1.18722e-18)
(-0.211626 0.00134325 -2.35818e-19)
(-0.21024 0.00163905 -8.51542e-19)
(-0.208635 0.00198691 -1.67663e-19)
(-0.206777 0.00239688 -1.38929e-18)
(-0.204624 0.00288159 -9.94312e-19)
(-0.202129 0.00345695 -1.52327e-18)
(-0.199233 0.00414335 -1.44358e-18)
(-0.195865 0.00496708 1.62055e-18)
(-0.191944 0.00596268 2.83448e-18)
(-0.187352 0.00717622 3.39656e-19)
(-0.181987 0.00866769 3.07427e-18)
(-0.175616 0.0105281 5.76334e-18)
(-0.168203 0.0128401 1.7543e-18)
(-0.159085 0.0158688 3.229e-18)
(-0.148854 0.0194538 5.01936e-18)
(-0.13504 0.0248274 1.94387e-18)
(-0.121079 0.0297409 3.12786e-18)
(-0.0995599 0.0397837 2.9806e-18)
(-0.0784642 0.0432066 7.98181e-19)
(-0.0496323 0.0520419 1.86246e-19)
(-0.0128597 0.0352095 1.87853e-18)
(-0.368161 -7.14266e-06 -1.10892e-21)
(-0.368185 -3.92976e-05 3.7273e-20)
(-0.368252 -7.26081e-05 -3.29047e-20)
(-0.368352 -8.55933e-05 9.62066e-20)
(-0.368455 -6.32719e-05 7.19681e-20)
(-0.36852 1.38437e-06 1.25504e-19)
(-0.368505 0.00010966 1.30579e-19)
(-0.368366 0.000261065 -1.82338e-19)
(-0.368066 0.00045147 3.581e-20)
(-0.367569 0.000675728 2.14372e-19)
(-0.366849 0.000928122 -1.74188e-20)
(-0.365882 0.00120273 3.40609e-20)
(-0.364651 0.00149387 4.52611e-21)
(-0.363143 0.00179623 3.33318e-20)
(-0.361351 0.00210485 5.80485e-20)
(-0.359272 0.00241517 3.1617e-20)
(-0.356906 0.00272294 -1.59681e-19)
(-0.354258 0.00302424 1.78806e-19)
(-0.351337 0.00331541 -2.39712e-19)
(-0.348152 0.00359305 -3.06344e-19)
(-0.344718 0.00385398 -3.49003e-19)
(-0.341052 0.00409526 -2.9612e-19)
(-0.337174 0.00431423 9.68998e-20)
(-0.333105 0.00450847 -1.19411e-19)
(-0.328868 0.00467595 -2.22265e-19)
(-0.324491 0.00481499 -1.37608e-18)
(-0.319998 0.00492437 -1.53008e-18)
(-0.315418 0.00500336 -1.36999e-18)
(-0.310779 0.00505172 -2.78641e-18)
(-0.30611 0.00506974 -1.06075e-18)
(-0.301436 0.00505823 -8.50095e-19)
(-0.296786 0.00501841 -1.89311e-19)
(-0.292184 0.00495196 8.26511e-19)
(-0.287653 0.00486088 -2.56572e-19)
(-0.283215 0.00474743 -2.35287e-18)
(-0.27889 0.00461409 -5.72061e-19)
(-0.274695 0.00446346 1.69021e-19)
(-0.270643 0.00429818 -2.05015e-18)
(-0.266747 0.00412086 -2.52366e-18)
(-0.263017 0.00393399 -2.48753e-18)
(-0.25946 0.00373983 -1.85457e-18)
(-0.256083 0.00354036 -2.50203e-18)
(-0.252888 0.0033372 -9.83364e-19)
(-0.249877 0.00313136 -2.33365e-18)
(-0.247054 0.0029241 -3.02241e-20)
(-0.244418 0.00271659 -1.77859e-18)
(-0.241971 0.00250912 -6.052e-19)
(-0.239713 0.00230194 -4.91992e-20)
(-0.237643 0.00209546 -2.17626e-18)
(-0.23576 0.00189032 -3.15351e-18)
(-0.234062 0.00168751 -3.36935e-18)
(-0.232547 0.00148833 -2.25596e-18)
(-0.231209 0.00129443 -1.88976e-18)
(-0.230043 0.00110772 -1.88872e-18)
(-0.22904 0.000930173 -1.81847e-18)
(-0.22819 0.000763728 -6.20088e-19)
(-0.227483 0.000610135 -9.32861e-19)
(-0.226904 0.000470826 -9.26625e-19)
(-0.226442 0.000346843 -5.61085e-19)
(-0.22608 0.000238789 -1.48869e-18)
(-0.225804 0.000146842 -7.33391e-19)
(-0.225599 7.07716e-05 5.7352e-20)
(-0.225452 1.02076e-05 -5.12029e-19)
(-0.22535 -3.67496e-05 -5.3127e-19)
(-0.22528 -7.54706e-05 -5.39754e-19)
(-0.225229 -0.00010135 4.76891e-20)
(-0.225185 -0.000114098 2.58209e-19)
(-0.22514 -0.000114273 3.00153e-20)
(-0.225084 -0.000102759 6.91966e-20)
(-0.225007 -8.03913e-05 -2.62662e-19)
(-0.224903 -4.92784e-05 -1.15642e-20)
(-0.224756 -1.00398e-05 -4.08536e-19)
(-0.224558 3.78058e-05 -5.15807e-19)
(-0.224301 9.84529e-05 -7.33753e-20)
(-0.223972 0.000172766 -7.71139e-19)
(-0.223557 0.000262322 4.28637e-19)
(-0.223041 0.000369279 -7.81556e-19)
(-0.222408 0.000496277 1.75359e-19)
(-0.221638 0.00064658 5.01356e-19)
(-0.220708 0.000824146 -1.82478e-18)
(-0.219592 0.00103384 -5.73761e-19)
(-0.218257 0.00128167 -1.86089e-18)
(-0.216668 0.00157507 -3.63199e-18)
(-0.214781 0.00192339 -1.08675e-18)
(-0.212541 0.00233841 -3.38576e-18)
(-0.209887 0.00283523 -6.93063e-19)
(-0.206738 0.00343335 -2.3591e-18)
(-0.203003 0.00415827 -1.38799e-18)
(-0.198549 0.00504438 1.22885e-18)
(-0.193257 0.00613505 -1.88633e-18)
(-0.186858 0.0075004 3.7627e-18)
(-0.179286 0.0091945 -1.55721e-18)
(-0.169804 0.0114386 -1.41171e-18)
(-0.15891 0.0140827 2.01008e-18)
(-0.144121 0.0181126 -2.59492e-18)
(-0.12835 0.0217703 5.81781e-19)
(-0.104869 0.0292725 -9.62098e-19)
(-0.0801239 0.0321657 -3.30641e-18)
(-0.0479787 0.0383279 1.33657e-18)
(-0.0117227 0.0269314 -1.60537e-18)
(-0.332437 -3.14386e-05 -7.15483e-21)
(-0.332515 -0.000124842 1.2958e-20)
(-0.332665 -0.000219717 6.08867e-20)
(-0.332879 -0.00026377 5.32567e-20)
(-0.33311 -0.000224955 -5.66388e-20)
(-0.333308 -9.16016e-05 -5.41272e-20)
(-0.333429 0.000136647 -1.16853e-20)
(-0.333431 0.000455461 -1.84768e-19)
(-0.333276 0.000854909 -2.31035e-20)
(-0.332934 0.0013233 1.20609e-19)
(-0.332383 0.00184793 -2.55246e-19)
(-0.331602 0.00241634 -1.11738e-20)
(-0.330579 0.00301675 1.00399e-20)
(-0.329303 0.00363834 -9.18565e-20)
(-0.327771 0.00427116 -7.79475e-20)
(-0.325979 0.004906 -1.72768e-20)
(-0.32393 0.00553438 -5.83672e-21)
(-0.321628 0.00614842 1.75617e-19)
(-0.319082 0.00674081 2.15378e-19)
(-0.316301 0.00730471 -3.09804e-19)
(-0.313298 0.00783376 -2.80089e-19)
(-0.310089 0.00832203 2.05153e-19)
(-0.306691 0.00876415 5.59002e-19)
(-0.303123 0.00915532 4.94278e-19)
(-0.299406 0.00949145 1.60109e-19)
(-0.295564 0.00976929 9.32286e-19)
(-0.291619 0.0099865 -4.03426e-19)
(-0.287596 0.0101417 -9.35233e-19)
(-0.283519 0.0102347 -1.83712e-19)
(-0.279414 0.0102663 -2.26149e-18)
(-0.275303 0.0102381 -7.27389e-19)
(-0.27121 0.0101529 -5.25406e-19)
(-0.267157 0.0100143 2.10017e-18)
(-0.263164 0.00982634 8.53781e-19)
(-0.259248 0.00959378 -1.52788e-19)
(-0.255428 0.00932169 -1.62201e-19)
(-0.251717 0.00901535 -8.26855e-19)
(-0.248127 0.00868009 -5.09086e-19)
(-0.244669 0.00832111 2.4444e-18)
(-0.241352 0.0079433 1.62812e-18)
(-0.238182 0.00755104 6.77508e-19)
(-0.235164 0.0071481 6.12793e-19)
(-0.232301 0.00673758 8.36424e-19)
(-0.229596 0.00632318 1.15582e-19)
(-0.227052 0.00590701 -1.37937e-18)
(-0.224667 0.00549055 -8.98048e-19)
(-0.222443 0.00507455 -8.16298e-19)
(-0.220378 0.00466012 6.20133e-19)
(-0.218469 0.00424871 -1.01459e-18)
(-0.216713 0.00384227 -1.11624e-18)
(-0.215105 0.00344331 -5.28056e-20)
(-0.213639 0.00305496 1.15229e-18)
(-0.212308 0.00268079 -4.70686e-19)
(-0.2111 0.00232474 -5.57578e-19)
(-0.210007 0.00199067 -9.33752e-19)
(-0.209016 0.00168214 -3.47529e-19)
(-0.208113 0.00140215 -2.43683e-18)
(-0.207286 0.00115296 -2.45269e-18)
(-0.20652 0.000935963 -6.70729e-19)
(-0.205802 0.000751666 -4.68793e-19)
(-0.205119 0.000599734 1.19983e-18)
(-0.204458 0.000479149 -1.33004e-19)
(-0.203806 0.000388424 1.06856e-18)
(-0.203152 0.000325744 2.49705e-19)
(-0.202486 0.000288216 2.15093e-20)
(-0.201798 0.000274071 -2.05737e-20)
(-0.20108 0.000282655 8.53676e-21)
(-0.200322 0.000313291 -1.45162e-20)
(-0.199515 0.000365035 8.53267e-20)
(-0.198652 0.00043717 3.74745e-19)
(-0.197722 0.000529437 1.54323e-19)
(-0.196718 0.000642712 2.31895e-19)
(-0.195631 0.000779567 3.4775e-19)
(-0.19445 0.000942077 7.37329e-19)
(-0.193165 0.00113299 7.46355e-19)
(-0.191763 0.00135595 2.26471e-18)
(-0.190231 0.00161543 2.70682e-18)
(-0.188555 0.00191684 1.34644e-18)
(-0.186717 0.00226683 3.88774e-18)
(-0.1847 0.00267334 7.81026e-19)
(-0.182482 0.00314607 2.16023e-19)
(-0.180038 0.00369693 -8.28732e-19)
(-0.177343 0.00434057 -2.9846e-18)
(-0.174365 0.00509524 -4.13239e-18)
(-0.171068 0.00598382 -3.82739e-18)
(-0.167412 0.00703544 -5.72825e-19)
(-0.163348 0.00828718 -3.39359e-18)
(-0.158827 0.00978766 1.23666e-18)
(-0.153778 0.0116 -3.28507e-18)
(-0.14815 0.0138086 4.33723e-18)
(-0.141817 0.0165273 -1.34613e-18)
(-0.134826 0.0198951 4.16693e-18)
(-0.126756 0.0242078 -1.9129e-19)
(-0.11839 0.029395 4.66231e-18)
(-0.107568 0.0367778 2.69419e-19)
(-0.098802 0.0436205 3.36013e-18)
(-0.083289 0.0570963 4.74458e-19)
(-0.0736359 0.0600394 -4.83417e-18)
(-0.0531031 0.0742019 -4.85058e-18)
(-0.0164127 0.0421439 -1.44868e-18)
(-0.346501 -1.9947e-05 -3.82162e-21)
(-0.346553 -8.8848e-05 3.52457e-20)
(-0.346667 -0.000159727 2.02151e-20)
(-0.346833 -0.00019118 4.72419e-20)
(-0.34701 -0.000156536 -7.84321e-20)
(-0.347155 -4.4904e-05 -1.16211e-19)
(-0.347221 0.000145027 -3.7832e-20)
(-0.347166 0.000410512 -1.26927e-19)
(-0.346954 0.000743702 1.52325e-20)
(-0.346551 0.0011351 -8.9145e-20)
(-0.345933 0.00157454 -1.32796e-19)
(-0.345078 0.00205155 1.26021e-19)
(-0.343973 0.0025562 -1.76875e-20)
(-0.342605 0.00307933 9.90423e-20)
(-0.34097 0.00361248 -7.40988e-21)
(-0.339065 0.00414784 -8.11915e-21)
(-0.336891 0.00467817 -4.15748e-20)
(-0.334453 0.00519679 1.51721e-19)
(-0.331759 0.00569748 6.67115e-20)
(-0.32882 0.00617441 -3.11525e-19)
(-0.325649 0.00662218 -2.07998e-19)
(-0.322261 0.00703575 -1.82357e-19)
(-0.318676 0.00741056 5.96915e-19)
(-0.314912 0.00774252 1.07695e-18)
(-0.310993 0.00802815 1.91452e-20)
(-0.306943 0.00826463 2.32419e-19)
(-0.302785 0.00844995 -5.58476e-19)
(-0.298546 0.00858292 -1.93394e-18)
(-0.294252 0.00866323 -7.57847e-19)
(-0.289929 0.00869148 -1.54775e-18)
(-0.285601 0.00866912 -7.10466e-19)
(-0.281293 0.00859838 -2.43332e-20)
(-0.277028 0.00848218 1.42605e-18)
(-0.272828 0.008324 6.61364e-19)
(-0.268713 0.00812781 -7.5832e-19)
(-0.264699 0.00789788 -2.23855e-19)
(-0.260802 0.00763867 -2.55716e-18)
(-0.257036 0.00735472 -9.68032e-19)
(-0.253412 0.00705047 2.20347e-18)
(-0.249938 0.00673012 5.68402e-19)
(-0.246622 0.00639749 6.44759e-19)
(-0.243468 0.00605589 1.21039e-18)
(-0.240481 0.00570801 2.11542e-18)
(-0.237662 0.00535539 5.3136e-20)
(-0.235014 0.00500061 -1.67634e-18)
(-0.232539 0.00464551 -1.3423e-18)
(-0.230234 0.00429075 -1.25009e-18)
(-0.228101 0.00393706 1.72878e-18)
(-0.226138 0.00358546 -2.69443e-18)
(-0.224341 0.00323739 -6.80964e-19)
(-0.222709 0.00289481 -1.03816e-18)
(-0.221234 0.00256024 8.89641e-19)
(-0.219912 0.00223663 -3.99079e-19)
(-0.218733 0.0019273 -1.4695e-18)
(-0.217689 0.00163557 -7.35858e-19)
(-0.216767 0.00136457 -2.86257e-19)
(-0.215955 0.001117 -1.57337e-18)
(-0.215241 0.000894953 -2.09851e-18)
(-0.214609 0.000699808 -5.71425e-19)
(-0.214047 0.000532167 1.23096e-19)
(-0.21354 0.000391879 2.95774e-19)
(-0.213075 0.000278133 -1.67726e-20)
(-0.212639 0.000189442 1.21408e-18)
(-0.212219 0.000124107 2.40771e-19)
(-0.211806 8.28158e-05 -1.80602e-19)
(-0.211387 6.18321e-05 -6.40229e-20)
(-0.210953 5.86608e-05 4.02305e-20)
(-0.210495 7.18051e-05 -2.18364e-20)
(-0.210004 0.000100868 -1.44236e-19)
(-0.209472 0.000146007 3.15335e-19)
(-0.208889 0.000208959 5.40142e-19)
(-0.208246 0.000291794 7.81281e-19)
(-0.207534 0.000393791 1.07306e-18)
(-0.206742 0.000516648 -2.95869e-19)
(-0.205859 0.000662927 1.17486e-18)
(-0.204873 0.000835755 2.36501e-18)
(-0.20377 0.00103892 2.88519e-18)
(-0.202534 0.00127703 2.2965e-18)
(-0.201148 0.00155572 3.22818e-18)
(-0.19959 0.0018818 5.53425e-19)
(-0.197838 0.00226358 -2.05039e-18)
(-0.195865 0.0027113 1.54153e-18)
(-0.19364 0.00323761 -1.20059e-18)
(-0.191125 0.00385832 -1.6459e-18)
(-0.188279 0.00459333 -1.9507e-18)
(-0.185052 0.00546807 -3.28381e-18)
(-0.181382 0.00651514 -8.8319e-19)
(-0.177201 0.00777726 1.24972e-18)
(-0.172414 0.00931081 -7.53471e-19)
(-0.166942 0.0111895 2.3664e-18)
(-0.160599 0.0135199 4.68802e-18)
(-0.153386 0.0164098 5.47143e-18)
(-0.144735 0.0201565 1.45058e-18)
(-0.135334 0.0246259 3.14859e-18)
(-0.122854 0.0311922 -2.35314e-18)
(-0.111231 0.0371591 -9.72882e-19)
(-0.0923941 0.0493004 8.57134e-19)
(-0.0763499 0.0525732 -3.57053e-18)
(-0.051734 0.0636513 -1.55473e-18)
(-0.0144807 0.0394717 4.30538e-20)
(-0.300807 -7.11201e-05 -1.39217e-21)
(-0.30097 -0.00022943 7.2391e-21)
(-0.301223 -0.000381285 5.01884e-20)
(-0.301559 -0.000455353 4.77362e-20)
(-0.301919 -0.000410306 -1.6496e-19)
(-0.302245 -0.000235806 -3.81882e-20)
(-0.302491 6.52063e-05 -1.4857e-21)
(-0.302618 0.000481529 -1.64644e-20)
(-0.302592 0.00100086 1.38862e-20)
(-0.302389 0.00160687 -1.58087e-19)
(-0.301987 0.00228282 -1.90553e-19)
(-0.301371 0.00301265 -4.67538e-20)
(-0.300532 0.0037815 1.09635e-19)
(-0.299462 0.00457564 -1.3482e-19)
(-0.298157 0.00538244 -5.58791e-21)
(-0.296617 0.00619037 3.06668e-20)
(-0.294845 0.00698882 -5.12378e-21)
(-0.292844 0.00776795 1.43905e-19)
(-0.290623 0.00851859 -7.51346e-20)
(-0.28819 0.00923214 -9.94363e-20)
(-0.285556 0.00990056 -5.29853e-20)
(-0.282737 0.0105164 2.02841e-21)
(-0.279747 0.0110728 7.14986e-19)
(-0.276603 0.0115638 -4.53025e-19)
(-0.273324 0.0119843 6.99448e-19)
(-0.269931 0.0123302 2.2467e-19)
(-0.266443 0.0125988 -5.39902e-19)
(-0.262884 0.0127885 -5.22791e-19)
(-0.259274 0.0128993 9.91964e-19)
(-0.255634 0.0129322 -9.79593e-19)
(-0.251986 0.0128899 -5.42145e-19)
(-0.24835 0.0127759 -2.08353e-18)
(-0.244745 0.0125949 -1.38296e-18)
(-0.241187 0.0123522 1.61124e-18)
(-0.237693 0.0120541 -4.11075e-21)
(-0.234278 0.0117069 -3.29622e-19)
(-0.230952 0.0113175 1.59541e-18)
(-0.227728 0.0108925 -1.26248e-19)
(-0.224613 0.0104386 9.07813e-20)
(-0.221616 0.00996164 3.09592e-18)
(-0.218741 0.00946724 5.57966e-19)
(-0.215993 0.00896002 -7.89566e-20)
(-0.213376 0.00844358 -2.63412e-19)
(-0.210891 0.0079208 -9.33764e-20)
(-0.20854 0.00739602 -5.13033e-18)
(-0.206321 0.00687169 -1.38283e-18)
(-0.204232 0.00634988 -4.84683e-19)
(-0.202271 0.00583249 -5.2483e-20)
(-0.200434 0.00532198 -4.22277e-19)
(-0.198713 0.00482141 -1.35357e-18)
(-0.197103 0.00433452 8.1223e-20)
(-0.195592 0.00386562 1.82576e-18)
(-0.194172 0.00341943 -2.44518e-19)
(-0.192829 0.00300088 7.87267e-19)
(-0.191551 0.00261453 -7.11648e-19)
(-0.190323 0.00226428 -3.44363e-19)
(-0.189134 0.00195317 -1.29847e-18)
(-0.187967 0.00168315 -9.84195e-19)
(-0.186811 0.00145511 -5.3958e-19)
(-0.185651 0.00126882 -8.01734e-19)
(-0.184477 0.00112317 3.42829e-19)
(-0.183277 0.00101632 -3.93985e-19)
(-0.182039 0.000946038 5.45014e-20)
(-0.180756 0.000909815 2.6266e-21)
(-0.179416 0.000905009 3.45959e-19)
(-0.178013 0.000929388 -2.02458e-20)
(-0.176537 0.000981687 -6.83525e-20)
(-0.174981 0.00106095 -1.2207e-19)
(-0.173336 0.00116653 -5.47117e-20)
(-0.171595 0.00129835 3.82251e-19)
(-0.169749 0.00145704 6.44474e-21)
(-0.167789 0.00164422 1.22731e-20)
(-0.165706 0.00186238 1.34047e-20)
(-0.16349 0.0021145 5.0882e-20)
(-0.161131 0.00240442 -7.73463e-19)
(-0.158618 0.00273692 1.75756e-18)
(-0.155938 0.00311778 6.90051e-19)
(-0.153079 0.00355399 2.26978e-18)
(-0.150027 0.00405405 3.57735e-18)
(-0.146766 0.00462799 5.83408e-19)
(-0.143281 0.00528809 9.84851e-19)
(-0.139555 0.00604928 9.59799e-19)
(-0.135569 0.00692986 -2.46898e-19)
(-0.131306 0.00795245 1.31068e-18)
(-0.126746 0.00914517 -3.46664e-19)
(-0.121872 0.0105435 9.72985e-19)
(-0.116666 0.0121921 -7.14777e-20)
(-0.111118 0.0141488 1.31687e-18)
(-0.105221 0.0164872 2.26899e-19)
(-0.0989971 0.0193049 4.6212e-18)
(-0.0924608 0.0227218 -1.00446e-19)
(-0.0857636 0.0269115 -6.63684e-19)
(-0.078822 0.0320623 -1.76227e-18)
(-0.0725659 0.0383144 6.97166e-19)
(-0.065572 0.0463027 4.85543e-18)
(-0.0631134 0.0542799 6.77257e-19)
(-0.0557328 0.0668621 2.1792e-19)
(-0.0624143 0.0692616 -1.12114e-18)
(-0.0512044 0.082832 -1.39597e-18)
(-0.0329726 0.0363766 -1.56583e-18)
(-0.316994 -4.82065e-05 -2.89112e-21)
(-0.317108 -0.000171772 2.1655e-20)
(-0.317306 -0.000294037 6.88385e-20)
(-0.317577 -0.000352746 9.58122e-20)
(-0.31787 -0.000310762 -1.36446e-19)
(-0.31813 -0.000156691 -4.47017e-20)
(-0.318312 0.000108276 -4.15944e-21)
(-0.318375 0.000477489 -6.47049e-20)
(-0.318283 0.00093934 -9.5963e-21)
(-0.31801 0.00147992 -9.46995e-21)
(-0.317531 0.00208415 -2.91275e-19)
(-0.316832 0.00273745 -4.64362e-20)
(-0.315899 0.00342648 3.51846e-20)
(-0.314724 0.00413891 -6.08402e-20)
(-0.313304 0.00486347 -1.65195e-20)
(-0.311636 0.00558971 -1.03991e-20)
(-0.309723 0.00630798 9.34144e-21)
(-0.30757 0.00700937 1.40506e-19)
(-0.305184 0.00768556 7.79782e-20)
(-0.302575 0.00832877 -1.41244e-19)
(-0.299755 0.00893173 -3.95688e-19)
(-0.296738 0.00948773 1.27096e-20)
(-0.293542 0.00999061 8.9659e-19)
(-0.290184 0.0104349 1.11641e-19)
(-0.286685 0.0108161 3.24416e-19)
(-0.283065 0.0111303 4.96152e-19)
(-0.279347 0.0113751 -1.02806e-18)
(-0.275555 0.011549 -6.26715e-19)
(-0.27171 0.0116518 2.48035e-19)
(-0.267837 0.0116844 -2.1509e-18)
(-0.263957 0.0116491 -6.71273e-19)
(-0.260092 0.0115488 -1.04193e-18)
(-0.256263 0.0113878 1.34862e-18)
(-0.252487 0.0111709 1.05283e-18)
(-0.248783 0.0109035 1.1651e-19)
(-0.245166 0.0105913 -1.34717e-19)
(-0.241649 0.0102404 2.6972e-19)
(-0.238243 0.00985697 -2.09864e-19)
(-0.234959 0.00944676 8.85711e-19)
(-0.231804 0.00901529 3.29873e-18)
(-0.228784 0.00856744 8.29973e-19)
(-0.225904 0.00810731 1.90736e-19)
(-0.223168 0.00763808 1.89688e-19)
(-0.220578 0.00716415 1.05698e-19)
(-0.218135 0.00668971 -2.37314e-18)
(-0.215839 0.00621609 -9.4444e-19)
(-0.213689 0.005744 -5.22686e-19)
(-0.211683 0.00527485 6.66011e-20)
(-0.209818 0.00481055 -4.70597e-19)
(-0.20809 0.00435359 -2.41137e-18)
(-0.206492 0.00390706 1.19523e-18)
(-0.205016 0.00347465 2.5643e-18)
(-0.203653 0.00306053 -1.35893e-18)
(-0.202392 0.00266909 -1.54228e-20)
(-0.201222 0.00230454 -1.79561e-18)
(-0.20013 0.00197063 -4.56536e-19)
(-0.199102 0.00167042 -2.41518e-18)
(-0.198125 0.00140605 -1.45121e-18)
(-0.197185 0.00117868 -5.95411e-19)
(-0.196269 0.000988478 -1.30343e-18)
(-0.195363 0.000834706 1.11901e-18)
(-0.194457 0.000715924 -7.00314e-19)
(-0.193538 0.000630208 3.63034e-19)
(-0.192597 0.000575497 1.32335e-19)
(-0.191623 0.000549928 1.60766e-19)
(-0.190607 0.000551121 4.12905e-21)
(-0.189541 0.000577374 -2.17751e-20)
(-0.188417 0.000627429 -2.43023e-20)
(-0.187226 0.000700599 -1.72156e-19)
(-0.18596 0.000796855 1.86925e-19)
(-0.18461 0.000917031 5.04636e-20)
(-0.183168 0.00106258 4.90011e-20)
(-0.181624 0.00123518 1.08902e-19)
(-0.179969 0.00143719 1.9782e-19)
(-0.178192 0.00167195 9.95112e-19)
(-0.176282 0.00194365 1.36327e-18)
(-0.174225 0.00225742 1.19388e-18)
(-0.172008 0.00261941 1.2951e-18)
(-0.169617 0.00303719 4.06437e-18)
(-0.167033 0.00351974 8.24005e-19)
(-0.164239 0.00407805 2.42892e-18)
(-0.161213 0.00472556 2.28284e-18)
(-0.157934 0.00547882 -8.5294e-19)
(-0.154376 0.00635837 -3.4903e-18)
(-0.150512 0.00738994 -1.4249e-18)
(-0.146311 0.00860621 2.53341e-18)
(-0.141741 0.0100487 -8.35146e-19)
(-0.136771 0.0117719 3.75091e-18)
(-0.13136 0.0138462 -8.38325e-19)
(-0.125493 0.0163665 2.74627e-18)
(-0.119111 0.0194573 -3.90062e-19)
(-0.112316 0.0232834 -2.31654e-18)
(-0.10485 0.0281044 -3.88084e-18)
(-0.0975572 0.0338957 1.35137e-18)
(-0.0886568 0.0417897 1.63567e-18)
(-0.0829995 0.0492971 1.3548e-18)
(-0.0714906 0.0630824 3.33673e-19)
(-0.0695731 0.0655569 -2.14555e-18)
(-0.0536548 0.0806023 -2.71715e-18)
(-0.0209869 0.0402817 -4.57785e-18)
(1.30258 0.174282 1.66613e-18)
(1.30146 0.18605 6.57611e-18)
(1.29975 0.192668 -9.8593e-19)
(1.29844 0.201758 8.39767e-18)
(1.29772 0.210378 6.19831e-18)
(1.29772 0.219626 -4.69881e-18)
(1.29856 0.229066 -6.43352e-18)
(1.30042 0.238823 2.75717e-18)
(1.30356 0.248809 -6.39092e-19)
(1.30827 0.258981 -1.04142e-18)
(1.31473 0.269138 -1.2329e-18)
(1.32239 0.278683 1.22999e-18)
(1.32787 0.285779 -4.46356e-18)
(1.31934 0.284636 -9.56164e-19)
(1.26822 0.264089 2.52705e-18)
(1.12722 0.21157 2.93578e-18)
(0.843837 0.127771 1.12892e-17)
(0.422037 0.0337197 2.98926e-18)
(0.0662034 0.018995 1.4395e-17)
(-0.059801 0.0237913 4.86987e-18)
(1.30598 0.175961 5.45421e-18)
(1.30502 0.187471 5.55064e-18)
(1.30339 0.193985 2.98094e-18)
(1.30226 0.203021 3.7146e-18)
(1.3017 0.211537 4.87619e-18)