/*--------------------------------*- C++ -*----------------------------------*\
  =========                 |
  \\      /  F ield         | OpenFOAM: The Open Source CFD Toolbox
   \\    /   O peration     | Website:  https://openfoam.org
    \\  /    A nd           | Version:  7
     \\/     M anipulation  |
\*---------------------------------------------------------------------------*/
FoamFile
{
    version     2.0;
    format      ascii;
    class       volScalarField;
    location    "20";
    object      p;
}
// * * * * * * * * * * * * * * * * * * * * * * * * * * * * * * * * * * * * * //

dimensions      [0 2 -2 0 0 0 0];

internalField   nonuniform List<scalar> 
50
(
-0.0212615
-0.0209959
-0.0207881
-0.0206464
-0.020575
0.0368055
0.0380609
0.0391064
0.0398438
0.0402204
-0.0346279
-0.0337419
-0.0329613
-0.032389
-0.0320926
0.0268613
0.0289747
0.030684
0.0318335
0.0323861
-0.101771
-0.101366
-0.100388
-0.0992484
-0.0985303
-0.0925083
-0.0915304
-0.0906753
-0.0898861
-0.089468
-0.302959
-0.304
-0.301663
-0.297429
-0.294796
-0.431595
-0.435999
-0.436058
-0.432648
-0.43063
-0.494892
-0.500144
-0.499131
-0.49881
-0.49447
-0.392604
-0.393884
-0.389575
-0.397985
-0.386906
)
;

boundaryField
{
    inlet
    {
        type            zeroGradient;
    }
    outlet
    {
        type            fixedValue;
        value           uniform 0;
    }
    polygon
    {
        type            zeroGradient;
    }
    top
    {
        type            symmetryPlane;
    }
    bottom
    {
        type            symmetryPlane;
    }
    outside
    {
        type            slip;
    }
    procBoundary7to3
    {
        type            processor;
        value           nonuniform List<scalar> 10(-0.0215689 0.0354778 -0.0354604 0.0247897 -0.100872 -0.0917129 -0.293969 -0.419031 -0.485418 -0.389777);
    }
    procBoundary7to6
    {
        type            processor;
        value           nonuniform List<scalar> 5(-0.343031 -0.420766 -0.479417 -0.539062 -0.432765);
    }
    procBoundary7to11
    {
        type            processor;
        value           nonuniform List<scalar> 10(-0.020575 0.0402204 -0.0320926 0.0323861 -0.0985303 -0.089468 -0.294796 -0.43063 -0.49447 -0.386906);
    }
}


// ************************************************************************* //
