/*--------------------------------*- C++ -*----------------------------------*\
  =========                 |
  \\      /  F ield         | OpenFOAM: The Open Source CFD Toolbox
   \\    /   O peration     | Website:  https://openfoam.org
    \\  /    A nd           | Version:  7
     \\/     M anipulation  |
\*---------------------------------------------------------------------------*/
FoamFile
{
    version     2.0;
    format      ascii;
    class       volVectorField;
    location    "15";
    object      U;
}
// * * * * * * * * * * * * * * * * * * * * * * * * * * * * * * * * * * * * * //

dimensions      [0 1 -1 0 0 0 0];

internalField   nonuniform List<vector> 
125
(
(1.16721 -0.0921835 2.3532e-18)
(1.17631 -0.0965096 -4.78602e-18)
(1.18244 -0.0950407 -3.72751e-18)
(1.19566 -0.0987508 -9.24983e-19)
(1.21099 -0.0938019 -1.10321e-17)
(1.23607 -0.093959 -6.97071e-18)
(1.16698 -0.0925128 -1.17418e-18)
(1.17606 -0.097382 -5.07815e-18)
(1.18226 -0.0962555 -3.93824e-18)
(1.19557 -0.100649 -6.25799e-19)
(1.21116 -0.0966523 -7.2241e-18)
(1.23669 -0.0981402 -6.97802e-18)
(1.16671 -0.0928284 -1.01717e-18)
(1.17573 -0.0982549 -5.36479e-18)
(1.18198 -0.097475 -4.62362e-18)
(1.19531 -0.102564 -5.6408e-18)
(1.21107 -0.0995446 -7.74605e-18)
(1.23687 -0.102395 -7.95034e-18)
(1.1664 -0.0931299 -1.14565e-18)
(1.17536 -0.099126 -1.68734e-18)
(1.18163 -0.0986951 -8.84105e-18)
(1.19496 -0.104482 -5.73344e-19)
(1.21084 -0.102445 -8.04481e-18)
(1.23682 -0.10663 -8.9197e-18)
(1.16606 -0.0934158 -1.13084e-18)
(1.17493 -0.0999934 -6.24771e-18)
(1.18121 -0.099913 -9.01059e-18)
(1.1945 -0.106399 -5.62108e-18)
(1.21047 -0.105348 -8.71616e-18)
(1.23652 -0.11084 -9.45916e-18)
(1.16567 -0.0936848 3.16115e-18)
(1.17444 -0.100855 -2.17007e-18)
(1.18072 -0.101126 -5.82226e-18)
(1.19394 -0.10831 -5.36837e-18)
(1.20995 -0.108244 -9.06138e-18)
(1.23598 -0.115012 -1.00763e-17)
(1.16524 -0.0939357 3.10025e-18)
(1.17389 -0.10171 -2.74686e-18)
(1.18016 -0.10233 -6.09717e-18)
(1.19326 -0.110209 -1.00639e-17)
(1.20927 -0.111124 -4.67275e-18)
(1.23516 -0.119135 -4.86688e-18)
(1.16477 -0.094167 3.06965e-18)
(1.17328 -0.102554 -2.7461e-18)
(1.17952 -0.103522 -1.82049e-18)
(1.19246 -0.112091 -5.79693e-18)
(1.2084 -0.113978 -5.63349e-18)
(1.23402 -0.123191 -5.34409e-18)
(1.16425 -0.0943772 3.394e-18)
(1.17262 -0.103387 -2.98995e-18)
(1.17881 -0.104698 -7.03151e-18)
(1.19157 -0.11395 -6.22427e-18)
(1.20743 -0.116792 -8.6362e-19)
(1.23269 -0.127162 3.95215e-19)
(1.1637 -0.0945658 3.61489e-18)
(1.17192 -0.104207 -3.14201e-18)
(1.1781 -0.105858 -7.26539e-18)
(1.19072 -0.115785 -1.15303e-17)
(1.20658 -0.119566 -1.07087e-18)
(1.23159 -0.131058 -4.11451e-20)
(1.16816 -0.0891696 -2.52619e-18)
(1.17686 -0.0892344 -1.71098e-17)
(1.18268 -0.0849501 -1.86174e-18)
(1.19463 -0.082213 -1.36608e-18)
(1.20767 -0.0684779 5.76884e-18)
(1.16818 -0.0894484 -2.42484e-18)
(1.17699 -0.0898996 -1.46859e-17)
(1.18288 -0.0858967 -2.03905e-18)
(1.19507 -0.083807 2.32703e-18)
(1.20852 -0.0709941 6.4013e-18)
(1.16816 -0.0897626 -2.37896e-18)
(1.17705 -0.0906088 -1.18762e-17)
(1.18301 -0.0868868 -2.45128e-18)
(1.19542 -0.0854363 -1.62739e-18)
(1.20925 -0.0735091 1.8745e-18)
(1.16812 -0.0900766 9.04916e-19)
(1.17708 -0.091326 -5.48975e-18)
(1.18309 -0.0878863 -2.71625e-18)
(1.1957 -0.0870785 -1.91182e-18)
(1.20986 -0.0760368 -2.50399e-18)
(1.16805 -0.0903884 9.70892e-19)
(1.17708 -0.0920492 -9.41084e-18)
(1.18312 -0.0888925 1.31907e-18)
(1.1959 -0.0887297 -1.9888e-18)
(1.21033 -0.0785711 -7.19826e-18)
(1.16797 -0.0906971 1.38893e-18)
(1.17704 -0.0927772 -1.01992e-17)
(1.18311 -0.0899034 1.36253e-18)
(1.19602 -0.0903864 -2.04213e-18)
(1.21067 -0.0811065 -1.20959e-17)
(1.23393 -0.0736723 -2.95545e-18)
(1.16786 -0.0910017 1.7609e-18)
(1.17696 -0.0935088 -1.08828e-17)
(1.18305 -0.090917 1.46697e-18)
(1.19605 -0.092045 -1.9907e-18)
(1.21088 -0.083638 -1.71225e-17)
(1.2346 -0.0777899 -3.63703e-18)
(1.16773 -0.0913011 2.33685e-18)
(1.17684 -0.0942424 -8.04344e-18)
(1.18293 -0.0919308 -2.41543e-18)
(1.19599 -0.0937007 -1.77119e-18)
(1.21091 -0.086159 -1.39246e-17)
(1.23498 -0.0818603 -4.48873e-18)
(1.16758 -0.0915942 2.57688e-18)
(1.17669 -0.0949763 -4.48199e-18)
(1.18275 -0.0929416 -2.71224e-18)
(1.19584 -0.0953476 -1.89795e-18)
(1.2108 -0.0886604 -1.46753e-17)
(1.23511 -0.0858648 -5.15918e-18)
(1.1674 -0.0918801 2.58405e-18)
(1.17651 -0.0957095 -4.67951e-18)
(1.18258 -0.0939477 -7.12546e-18)
(1.1957 -0.0969831 -1.57858e-18)
(1.21076 -0.0911392 -1.56223e-17)
(1.23536 -0.0897949 -6.22772e-18)
(1.133 0.0249049 4.56742e-19)
(1.17108 -0.107682 2.75893e-18)
(1.13517 0.0154469 7.71544e-19)
(1.17938 -0.11549 4.27146e-17)
(1.13031 0.00323804 -3.29923e-17)
(1.17867 -0.11796 5.09665e-17)
(1.12533 -0.00200242 -3.64806e-17)
(1.17813 -0.121861 7.40914e-18)
(1.11733 -0.0160722 -7.18942e-18)
(1.17155 -0.126273 -3.94726e-17)
)
;

boundaryField
{
    inlet
    {
        type            uniformFixedValue;
        uniformValue    constant (1 0 0);
        value           nonuniform 0();
    }
    outlet
    {
        type            pressureInletOutletVelocity;
        value           nonuniform 0();
    }
    polygon
    {
        type            fixedValue;
        value           nonuniform 0();
    }
    top
    {
        type            symmetryPlane;
    }
    bottom
    {
        type            symmetryPlane;
    }
    outside
    {
        type            zeroGradient;
    }
    procBoundary2to1
    {
        type            processor;
        value           nonuniform List<vector> 6((1.16311 -0.0947336 -3.54317e-19) (1.17119 -0.10502 -3.23488e-18) (1.17742 -0.10701 -1.20411e-17) (1.18995 -0.117612 -1.1682e-17) (1.20596 -0.122321 3.73731e-18) (1.23093 -0.134922 5.97306e-19));
    }
    procBoundary2to3
    {
        type            processor;
        value           nonuniform List<vector> 5((1.04223 0.014772 9.4246e-19) (1.0533 0.0103387 1.11559e-17) (1.05893 0.00414749 -2.77519e-18) (1.05928 0.00211174 -3.98908e-18) (1.06081 -0.0042269 -1.04903e-18));
    }
    procBoundary2to6
    {
        type            processor;
        value           nonuniform List<vector> 
23
(
(1.2671 -0.0761372 7.07568e-18)
(1.26811 -0.082597 4.24825e-19)
(1.26848 -0.0892774 1.14942e-18)
(1.26849 -0.0959902 1.71514e-18)
(1.26813 -0.102733 -4.59157e-18)
(1.26742 -0.109483 -1.16079e-17)
(1.26628 -0.116215 -4.77321e-18)
(1.26468 -0.122895 -1.20738e-17)
(1.26288 -0.129479 -1.297e-17)
(1.26166 -0.135948 -1.39262e-17)
(1.22701 -0.0526532 -5.95122e-19)
(1.22885 -0.0569671 -9.88181e-19)
(1.23047 -0.0611553 -1.28947e-18)
(1.23186 -0.0653452 -1.93191e-18)
(1.23301 -0.0695208 -2.36256e-18)
(1.23301 -0.0695208 -2.36256e-18)
(1.26169 -0.0447006 1.0256e-17)
(1.26343 -0.0511749 1.0892e-17)
(1.26451 -0.0575276 1.18746e-17)
(1.26499 -0.0637356 1.23757e-17)
(1.26561 -0.069791 6.4684e-18)
(1.12052 0.0335108 -5.49066e-19)
(1.14851 -0.101783 1.31256e-18)
)
;
    }
}


// ************************************************************************* //
