/*--------------------------------*- C++ -*----------------------------------*\
  =========                 |
  \\      /  F ield         | OpenFOAM: The Open Source CFD Toolbox
   \\    /   O peration     | Website:  https://openfoam.org
    \\  /    A nd           | Version:  7
     \\/     M anipulation  |
\*---------------------------------------------------------------------------*/
FoamFile
{
    version     2.0;
    format      ascii;
    class       volVectorField;
    location    "10";
    object      U;
}
// * * * * * * * * * * * * * * * * * * * * * * * * * * * * * * * * * * * * * //

dimensions      [0 1 -1 0 0 0 0];

internalField   nonuniform List<vector> 
125
(
(0.826316 0.0184229 3.16387e-18)
(0.758274 0.0231234 -4.15129e-19)
(0.654094 0.0249323 -5.84658e-19)
(0.580148 0.0341025 2.70911e-18)
(0.394562 0.029432 8.84227e-19)
(0.987121 0.00655788 1.65552e-19)
(0.938997 0.0123492 3.25039e-20)
(0.897852 0.0153254 4.78919e-20)
(0.830478 0.0193857 3.25193e-18)
(0.76461 0.0243193 -4.1688e-19)
(0.663454 0.0261969 -6.97602e-19)
(0.592829 0.03589 2.02816e-18)
(0.411533 0.0310115 1.17609e-18)
(0.987742 0.00689394 2.43004e-19)
(0.940532 0.0129724 9.82548e-20)
(0.900396 0.0160826 -7.41473e-20)
(0.834763 0.0203206 3.70161e-18)
(0.771119 0.0254778 -4.12933e-19)
(0.673069 0.0274148 -8.92945e-19)
(0.605852 0.0376199 1.59842e-18)
(0.42911 0.0325399 1.54518e-18)
(0.988382 0.00722327 3.52503e-19)
(0.942112 0.0135813 2.02215e-19)
(0.903009 0.0168196 -2.39868e-19)
(0.839153 0.0212266 3.74323e-18)
(0.777776 0.0265972 -4.31124e-19)
(0.682898 0.0285867 -1.22543e-18)
(0.619167 0.0392913 1.30277e-18)
(0.447233 0.0340141 1.53959e-18)
(0.989039 0.00754539 3.63257e-19)
(0.943732 0.014175 3.1548e-19)
(0.905681 0.0175348 -4.66598e-19)
(0.843631 0.022105 3.4409e-18)
(0.784552 0.0276765 -4.48839e-19)
(0.692901 0.0297282 -1.70681e-18)
(0.632719 0.0409202 1.13321e-18)
(0.465841 0.0354878 1.18901e-18)
(0.989711 0.0078606 2.81439e-19)
(0.945386 0.014755 4.80834e-19)
(0.908401 0.0182307 -7.91696e-19)
(0.848179 0.022962 2.72088e-18)
(0.79142 0.0287233 -2.90003e-20)
(0.70304 0.0308476 -1.26786e-18)
(0.646458 0.042517 -1.25331e-19)
(0.484869 0.0369788 4.72767e-19)
(0.99353 0.00958813 1.54816e-20)
(0.954717 0.0179297 -1.532e-19)
(0.923585 0.0219877 -3.05866e-18)
(0.873183 0.0275057 4.82057e-19)
(0.828495 0.034171 -5.62192e-20)
(0.756716 0.0362429 -6.70396e-21)
(0.717666 0.0501708 -9.30729e-20)
(0.581913 0.0428938 -2.36292e-18)
(1.00105 0.0119487 -1.88298e-20)
(0.972631 0.0220947 -4.3077e-20)
(0.951992 0.0265065 -3.36409e-19)
(0.918818 0.0331841 8.53161e-21)
(0.895471 0.0398931 -1.07096e-20)
(0.854452 0.0430478 -5.01635e-21)
(0.852375 0.058903 -2.79861e-19)
(0.785027 0.0540366 -9.06431e-19)
(1.0076 0.0136168 -9.64927e-21)
(0.987522 0.024889 -2.08071e-19)
(0.974278 0.0293062 -2.85435e-18)
(0.952905 0.036223 1.78202e-19)
(0.943311 0.0422091 6.9051e-21)
(0.922767 0.0441895 -2.46108e-20)
(0.944063 0.0585246 -3.25976e-19)
(0.921799 0.0480045 -3.53557e-18)
(1.01243 0.0147991 5.13584e-20)
(0.997826 0.0268154 6.36312e-20)
(0.98844 0.0311526 -3.48223e-19)
(0.973151 0.0380991 4.0215e-19)
(0.969868 0.0430917 4.76434e-20)
(0.959421 0.0441116 -3.91587e-20)
(0.991105 0.0567688 3.51821e-20)
(0.991121 0.045577 -3.40343e-19)
(1.01563 0.0156919 6.81007e-19)
(1.00421 0.0282829 1.36607e-18)
(0.996325 0.0325654 -2.65545e-18)
(0.983617 0.0394188 4.00943e-18)
(0.982426 0.0431797 1.27978e-18)
(0.976062 0.042749 -1.17581e-19)
(1.01067 0.0524834 -8.39504e-20)
(1.01907 0.0379955 1.80264e-19)
(1.0177 0.0164239 3.29244e-20)
(1.00806 0.0295388 -9.67414e-20)
(1.00061 0.0338405 -2.54555e-18)
(0.989 0.0405969 3.84003e-19)
(0.988323 0.0431394 9.84394e-21)
(0.98374 0.0413747 -1.21584e-19)
(1.01905 0.0484992 -6.04811e-19)
(1.03171 0.0330595 8.40991e-19)
(1.01904 0.0170641 4.27716e-20)
(1.01049 0.0306964 9.67068e-20)
(1.00312 0.0350699 -9.48448e-20)
(0.992124 0.0417072 3.08537e-19)
(0.991451 0.0430082 -1.94024e-20)
(0.987463 0.0399106 -6.26574e-19)
(1.0218 0.0443904 -6.72479e-18)
(1.03565 0.0276219 6.44933e-18)
(1.01989 0.0176609 5.53127e-19)
(1.01206 0.0318104 1.34131e-18)
(1.00475 0.0362694 1.18894e-19)
(0.994319 0.0427454 3.22031e-18)
(0.993709 0.0428029 1.10305e-18)
(0.990091 0.0382197 -3.59809e-20)
(1.02321 0.0393736 -6.07399e-19)
(1.03756 0.021452 -2.59984e-18)
(1.02034 0.0181105 2.72387e-20)
(1.01299 0.0326906 6.80226e-20)
(1.0058 0.0372659 3.89215e-21)
(0.995924 0.0436996 1.39279e-19)
(0.995484 0.0428037 2.01857e-20)
(0.991989 0.0373307 -8.08752e-20)
(1.02344 0.0368769 -4.39518e-19)
(1.03678 0.0186559 -3.27904e-18)
(1.02042 0.0188719 6.93427e-21)
(1.01336 0.0341722 4.62482e-21)
(1.00634 0.038864 2.7454e-21)
(0.996948 0.0450075 3.88293e-20)
(0.99688 0.0423211 3.17249e-20)
(0.994045 0.0351302 1.29041e-21)
(1.02483 0.0303446 -1.19553e-19)
(1.03824 0.0114373 -1.05454e-18)
)
;

boundaryField
{
    inlet
    {
        type            uniformFixedValue;
        uniformValue    constant (1 0 0);
        value           nonuniform 0();
    }
    outlet
    {
        type            pressureInletOutletVelocity;
        value           nonuniform List<vector> 
15
(
(0.987121 0.00655788 1.65552e-19)
(0.987742 0.00689394 2.43004e-19)
(0.988382 0.00722327 3.52503e-19)
(0.989039 0.00754539 3.63257e-19)
(0.989711 0.0078606 2.81439e-19)
(0.99353 0.00958813 1.54816e-20)
(1.00105 0.0119487 -1.88298e-20)
(1.0076 0.0136168 -9.64927e-21)
(1.01243 0.0147991 5.13584e-20)
(1.01563 0.0156919 6.81007e-19)
(1.0177 0.0164239 3.29244e-20)
(1.01904 0.0170641 4.27716e-20)
(1.01989 0.0176609 5.53127e-19)
(1.02034 0.0181105 2.72387e-20)
(1.02042 0.0188719 6.93427e-21)
)
;
    }
    polygon
    {
        type            fixedValue;
        value           nonuniform 0();
    }
    top
    {
        type            symmetryPlane;
    }
    bottom
    {
        type            symmetryPlane;
    }
    outside
    {
        type            zeroGradient;
    }
    procBoundary3to2
    {
        type            processor;
        value           nonuniform List<vector> 5((1.11356 0.0445868 5.7543e-19) (1.11164 0.0339435 9.65809e-19) (1.10581 0.0213639 -2.71657e-17) (1.10001 0.016445 -3.07953e-17) (1.09319 0.000415678 -6.64197e-18));
    }
    procBoundary3to6
    {
        type            processor;
        value           nonuniform List<vector> 
11
(
(0.348407 0.020117 4.4573e-18)
(0.367369 0.022453 7.92053e-19)
(0.387409 0.0249649 -2.55064e-18)
(0.408488 0.0276216 -6.06201e-18)
(0.430554 0.0303802 -9.93583e-18)
(0.453549 0.033557 -1.48722e-17)
(0.569802 0.0548666 -4.48316e-17)
(0.841069 0.0879375 -5.71099e-18)
(1.01347 0.0700724 -3.94626e-17)
(1.08526 0.0694707 -6.60373e-19)
(1.10838 0.0529703 4.65784e-19)
)
;
    }
    procBoundary3to7
    {
        type            processor;
        value           nonuniform List<vector> 9((0.822294 0.0174332 2.56122e-18) (0.75214 0.0218913 -4.57018e-19) (0.645028 0.023624 -6.2052e-19) (0.567863 0.0322617 2.46705e-18) (0.378253 0.0278095 6.58635e-19) (0.986522 0.00621536 1.07397e-19) (0.937512 0.0117124 -3.52252e-20) (0.895385 0.014549 1.37207e-19) (0.895385 0.014549 1.37207e-19));
    }
}


// ************************************************************************* //
