2 	0.0411612 	2.19518e-18 	1.00414 	-0.006431 	7.21839e-17
2 	0.123483 	3.92991e-18 	1.00385 	-0.00700824 	1.29113e-16
2 	0.205806 	3.92991e-18 	1.00348 	-0.00724183 	-1.21044e-17
2 	0.288128 	3.92991e-18 	1.00303 	-0.00743498 	-1.1344e-16
2 	0.37045 	3.92991e-18 	1.00248 	-0.00752627 	-1.03659e-16
2 	0.452773 	3.92991e-18 	1.00183 	-0.00751358 	-2.91348e-17
2 	0.535095 	3.92991e-18 	1.00103 	-0.0073927 	-6.25282e-17
2 	0.617417 	3.92991e-18 	1.00002 	-0.00716842 	4.66593e-17
2 	0.69974 	3.92991e-18 	0.998761 	-0.00684828 	3.44583e-17
2 	0.782062 	3.20924e-18 	0.997185 	-0.00644616 	-4.25055e-17
2 	0.864384 	1.84824e-18 	0.995269 	-0.00598265 	1.04219e-16
2 	0.946707 	3.23602e-18 	0.99304 	-0.00548293 	5.52805e-17
2 	1.02903 	3.23602e-18 	0.990586 	-0.00497288 	3.96436e-17
2 	1.11135 	3.23602e-18 	0.988065 	-0.00447346 	1.02407e-16
2 	1.19367 	3.23602e-18 	0.985685 	-0.00399516 	1.03337e-16
2 	1.276 	1.5013e-18 	0.983665 	-0.00353497 	5.28683e-17
2 	1.35832 	-2.33428e-19 	0.982189 	-0.00307251 	1.01435e-16
2 	1.44064 	-2.33428e-19 	0.981353 	-0.00256109 	1.00231e-16
2 	1.52296 	-2.33428e-19 	0.981141 	-0.00207822 	5.56823e-17
2 	1.60529 	-2.33428e-19 	0.981438 	-0.00123122 	1.18372e-16
2 	1.65456 	1.6669e-18 	0.981792 	-0.0010769 	1.37506e-16
2 	1.67078 	7.6895e-18 	0.981918 	-0.00104217 	1.39904e-16
2 	1.687 	9.38619e-18 	0.982046 	-0.00100968 	1.37526e-16
2 	1.70322 	4.14384e-18 	0.982175 	-0.000974246 	1.30731e-16
2 	1.71944 	9.83009e-19 	0.982302 	-0.000936346 	1.17737e-16
2 	1.73566 	2.33231e-18 	0.982425 	-0.000896566 	7.91402e-17
2 	1.75188 	5.06924e-18 	0.982543 	-0.000855045 	5.13678e-17
2 	1.76811 	6.24477e-18 	0.982653 	-0.000812033 	3.35688e-17
2 	1.78433 	6.20584e-18 	0.982756 	-0.000768631 	2.12039e-17
2 	1.80055 	8.17278e-18 	0.982848 	-0.000723802 	1.31978e-17
2 	1.81823 	1.51608e-17 	0.982935 	-0.000662303 	8.63655e-18
2 	1.83736 	1.44532e-17 	0.983021 	-0.000608614 	4.29146e-18
2 	1.85649 	1.28781e-17 	0.983097 	-0.000553318 	4.78523e-18
2 	1.87563 	1.32112e-17 	0.983165 	-0.000495769 	1.1846e-17
2 	1.89476 	1.14626e-17 	0.983224 	-0.000437217 	4.13873e-18
2 	1.9139 	6.93847e-18 	0.983274 	-0.000377888 	-2.03782e-17
2 	1.93303 	6.57764e-18 	0.983315 	-0.000317846 	-2.00845e-17
2 	1.95216 	1.24618e-17 	0.983345 	-0.000257215 	-1.87381e-17
2 	1.9713 	1.69581e-17 	0.983366 	-0.000196658 	-1.98079e-17
2 	1.99043 	1.73542e-17 	0.983376 	-0.000136164 	-2.31464e-17
2 	2.00957 	2.54598e-18 	0.983375 	-6.53522e-05 	-3.30981e-17
2 	2.0287 	2.90688e-18 	0.983363 	-7.17938e-06 	-4.94591e-17
2 	2.04784 	4.48206e-18 	0.98334 	5.3866e-05 	-5.12516e-17
2 	2.06697 	6.75111e-18 	0.983307 	0.000116126 	-4.25882e-17
2 	2.0861 	5.20375e-18 	0.983265 	0.000176638 	-4.38969e-17
2 	2.10524 	5.56457e-18 	0.983213 	0.000236469 	-3.07069e-17
2 	2.12437 	8.35398e-18 	0.983151 	0.000295518 	-2.56587e-17
2 	2.14351 	1.04495e-17 	0.983081 	0.000353649 	-2.86283e-17
2 	2.16264 	1.11572e-17 	0.983002 	0.000409693 	-3.89837e-17
2 	2.18177 	1.42178e-17 	0.982914 	0.000463614 	-5.9899e-17
2 	2.19945 	-6.84367e-18 	0.982824 	0.000524896 	-6.67646e-17
2 	2.21567 	-3.85556e-18 	0.982729 	0.00056998 	-6.05692e-17
2 	2.23189 	-1.56149e-18 	0.982624 	0.000614028 	-6.20828e-17
2 	2.24812 	-4.81875e-19 	0.982511 	0.000657597 	-7.1567e-17
2 	2.26434 	-9.63027e-20 	0.98239 	0.000699657 	-6.93864e-17
2 	2.28056 	2.02384e-18 	0.982264 	0.000740007 	-5.61062e-17
2 	2.29678 	3.44995e-18 	0.982134 	0.000778518 	-5.13644e-17
2 	2.313 	2.10035e-18 	0.982002 	0.000814644 	-5.47287e-17
2 	2.32922 	2.13839e-18 	0.981871 	0.000847667 	-6.58398e-17
2 	2.34544 	4.14443e-18 	0.981742 	0.000882527 	-8.55142e-17
2 	2.39471 	4.97074e-18 	0.981377 	0.00103962 	-1.09031e-16
2 	2.47704 	6.70547e-18 	0.981065 	0.00189501 	-6.26166e-17
2 	2.55936 	6.70547e-18 	0.981259 	0.00238025 	-1.13238e-16
2 	2.64168 	6.70547e-18 	0.982078 	0.00289977 	-1.10858e-16
2 	2.724 	8.09324e-18 	0.983541 	0.00336813 	-5.64829e-17
2 	2.80633 	4.6238e-18 	0.98555 	0.00383468 	-1.01784e-16
2 	2.88865 	-2.33428e-19 	0.987923 	0.00431954 	-5.45021e-17
2 	2.97097 	1.15435e-18 	0.99044 	0.00482568 	-1.03181e-16
2 	3.05329 	3.92991e-18 	0.992892 	0.00534268 	-5.83686e-17
2 	3.13562 	6.41848e-18 	0.995122 	0.00584959 	-9.25801e-17
2 	3.21794 	-1.27234e-17 	0.997037 	0.00632057 	2.68171e-17
2 	3.30026 	-1.41112e-17 	0.998614 	0.00673042 	-9.12271e-17
2 	3.38258 	-1.5499e-17 	0.999876 	0.00705855 	-5.56033e-17
2 	3.4649 	-1.5499e-17 	1.00088 	0.00729108 	-8.86831e-17
2 	3.54723 	-1.5499e-17 	1.00168 	0.00742051 	2.79049e-17
2 	3.62955 	-1.72337e-17 	1.00233 	0.0074418 	-8.69528e-17
2 	3.71187 	-1.89684e-17 	1.00287 	0.00735966 	-5.11908e-17
2 	3.79419 	-1.89684e-17 	1.00333 	0.00717677 	-1.02097e-16
2 	3.87652 	-1.89684e-17 	1.0037 	0.00694921 	-6.01248e-17
2 	3.95884 	-1.85615e-17 	1.00399 	0.00638835 	-1.1351e-16
