/*--------------------------------*- C++ -*----------------------------------*\
  =========                 |
  \\      /  F ield         | OpenFOAM: The Open Source CFD Toolbox
   \\    /   O peration     | Website:  https://openfoam.org
    \\  /    A nd           | Version:  7
     \\/     M anipulation  |
\*---------------------------------------------------------------------------*/
FoamFile
{
    version     2.0;
    format      ascii;
    class       surfaceScalarField;
    location    "112";
    object      phi;
}
// * * * * * * * * * * * * * * * * * * * * * * * * * * * * * * * * * * * * * //

dimensions      [0 3 -1 0 0 0 0];

internalField   nonuniform List<scalar> 
205
(
0.000842684
9.6487e-05
0.000834231
9.38796e-05
0.000826003
9.08417e-05
0.000818031
8.74332e-05
0.000810338
8.37158e-05
0.000802941
7.97516e-05
0.000795852
7.56021e-05
0.000789077
7.13271e-05
0.000782615
6.69839e-05
0.000776462
6.26265e-05
0.000770608
5.83051e-05
0.000765039
5.40655e-05
0.000759739
4.99492e-05
0.000754687
4.5993e-05
0.00074986
4.2229e-05
0.000745234
3.86839e-05
-0.000501715
-0.000162056
-0.000164672
0.000253558
-0.00015122
0.000247068
-0.000150826
0.000238838
-0.000149822
0.000228835
-0.00014832
0.000217016
-0.000146434
0.000203332
-0.000144276
0.00018773
-0.000141957
0.000170151
-0.000139582
0.000150531
-0.000137249
0.000128805
-0.000135052
0.000104903
-0.000133074
7.87553e-05
-0.000131391
5.02907e-05
-0.00013007
1.94367e-05
-0.00012917
-1.38792e-05
-0.00012874
-0.000128822
0.000624862
-0.000145331
0.000617786
-0.00014375
0.000609516
-0.000141553
0.00060004
-0.000138844
0.000589334
-0.000135728
0.000577369
-0.000132311
0.000564106
-0.000128694
0.000549502
-0.000124977
0.000533506
-0.000121253
0.000516064
-0.00011761
0.000497117
-0.000114127
0.000476603
-0.000110877
0.000454458
-0.000107925
0.000430614
-0.000105327
0.000405005
-0.000103131
-0.000101379
0.000955287
-0.000137388
0.000946601
-0.000135064
0.00093719
-0.000132142
0.000927062
-0.000128715
0.000916213
-0.00012488
0.000904633
-0.00012073
0.0008923
-0.000116361
0.000879186
-0.000111863
0.000865255
-0.000107323
0.000850466
-0.00010282
0.00083477
-9.84306e-05
0.000818114
-9.42214e-05
0.000800443
-9.02535e-05
0.000781696
-8.65801e-05
0.000761812
-8.32473e-05
-8.02936e-05
0.0012472
-0.000126761
0.0012362
-0.000124065
0.00122487
-0.000120808
0.00121323
-0.000117075
0.0012013
-0.000112949
0.00118908
-0.000108516
0.00117658
-0.000103859
0.00116378
-9.90611e-05
0.00115065
-9.41986e-05
0.00113718
-8.93449e-05
0.00112331
-8.45676e-05
0.00110902
-7.99283e-05
0.00109425
-7.54821e-05
0.00107895
-7.12781e-05
0.00106306
-6.7359e-05
-6.37605e-05
0.00150163
-0.000113137
0.00148794
-0.000110367
0.00147422
-0.000107094
0.00146054
-0.000103389
0.00144691
-9.93266e-05
0.00143338
-9.49797e-05
0.00141994
-9.04216e-05
0.0014066
-8.57234e-05
0.00139336
-8.09529e-05
0.00138019
-7.61742e-05
0.00136706
-7.14466e-05
0.00135396
-6.68244e-05
0.00134083
-6.23558e-05
0.00132764
-5.80841e-05
0.00131433
-5.40486e-05
-5.02804e-05
0.00171847
0.00170199
0.00168573
0.00166978
0.00165417
0.00163894
0.00162412
0.00160972
0.00159575
0.00158221
0.00156907
0.00155631
0.0015439
0.00153181
0.00151999
)
;

boundaryField
{
    inlet
    {
        type            calculated;
        value           nonuniform 0();
    }
    outlet
    {
        type            calculated;
        value           nonuniform 0();
    }
    polygon
    {
        type            calculated;
        value           nonuniform 0();
    }
    top
    {
        type            symmetryPlane;
        value           uniform 0;
    }
    bottom
    {
        type            symmetryPlane;
        value           uniform 0;
    }
    outside
    {
        type            calculated;
        value           nonuniform 0();
    }
    procBoundary45to37
    {
        type            processor;
        value           nonuniform List<scalar> 
17
(
-8.78436e-05
-8.5426e-05
-8.26139e-05
-7.9461e-05
-7.60228e-05
-7.23551e-05
-6.85134e-05
-6.45518e-05
-6.0522e-05
-5.64731e-05
-5.24508e-05
-4.84969e-05
-4.46491e-05
-4.09412e-05
-3.74024e-05
-3.40574e-05
-3.09259e-05
)
;
    }
    procBoundary45to38
    {
        type            processor;
        value           uniform -0.000851328;
    }
    procBoundary45to44
    {
        type            processor;
        value           nonuniform List<scalar> 7(0.00074078 3.53794e-05 0.000377562 0.000740727 0.00104653 0.00130085 0.00150839);
    }
    procBoundary45to46
    {
        type            processor;
        value           nonuniform List<scalar> 6(-0.000258338 -0.00063075 -0.00096323 -0.00125783 -0.00151526 -0.00173512);
    }
    procBoundary45to52
    {
        type            processor;
        value           nonuniform List<scalar> 2(-0.000548156 -4.97293e-05);
    }
    procBoundary45to53
    {
        type            processor;
        value           nonuniform List<scalar> 
17
(
0.00020521
0.000211112
0.000155999
0.000157317
0.000158052
0.000158323
0.000158253
0.00015796
0.000157559
0.000157161
0.000156869
0.000156778
0.000156976
0.000157538
0.000158535
0.000458562
0.000160024
)
;
    }
}


// ************************************************************************* //
