/*--------------------------------*- C++ -*----------------------------------*\
  =========                 |
  \\      /  F ield         | OpenFOAM: The Open Source CFD Toolbox
   \\    /   O peration     | Website:  https://openfoam.org
    \\  /    A nd           | Version:  7
     \\/     M anipulation  |
\*---------------------------------------------------------------------------*/
FoamFile
{
    version     2.0;
    format      ascii;
    class       volVectorField;
    location    "100";
    object      U;
}
// * * * * * * * * * * * * * * * * * * * * * * * * * * * * * * * * * * * * * //

dimensions      [0 1 -1 0 0 0 0];

internalField   nonuniform List<vector> 
11200
(
(-0.30915 -0.000150813 -2.12085e-20)
(-0.309482 -0.000371519 1.92437e-19)
(-0.309975 -0.000846313 -1.10327e-19)
(-0.310922 -0.00123172 -8.15996e-20)
(-0.311993 -0.00150624 1.47973e-19)
(-0.313199 -0.00164048 -4.42687e-19)
(-0.31439 -0.0016188 -4.94937e-19)
(-0.315512 -0.00145317 -5.24871e-21)
(-0.316492 -0.00115534 1.02227e-18)
(-0.317288 -0.000746011 -1.29816e-18)
(-0.317863 -0.000246559 -1.60092e-19)
(-0.318195 0.000319311 2.44439e-18)
(-0.318268 0.000929904 2.6307e-19)
(-0.318071 0.00156162 1.55926e-18)
(-0.317601 0.0021942 -2.81499e-18)
(-0.316858 0.0028088 1.08753e-18)
(-0.315845 0.00338916 1.04799e-18)
(-0.314571 0.00392172 -1.83719e-18)
(-0.313042 0.00439579 -2.45416e-18)
(-0.311272 0.00480336 -3.39011e-18)
(-0.309272 0.00513903 -5.09743e-18)
(-0.307056 0.00539976 -1.44085e-18)
(-0.304641 0.00558474 -7.06208e-19)
(-0.302042 0.00569503 -3.78857e-19)
(-0.299277 0.00573344 -2.86927e-19)
(-0.296365 0.00570424 -2.35801e-18)
(-0.293323 0.00561301 1.50114e-18)
(-0.290171 0.00546646 2.98694e-19)
(-0.28693 0.00527223 2.0107e-18)
(-0.283617 0.00503875 -1.66144e-19)
(-0.280254 0.00477504 -1.63249e-18)
(-0.276861 0.00449055 1.52453e-20)
(-0.273456 0.00419488 -2.50572e-18)
(-0.270058 0.00389762 2.46523e-18)
(-0.266686 0.00360803 -8.59244e-19)
(-0.263357 0.00333485 -1.86542e-18)
(-0.260087 0.00308605 -5.07203e-20)
(-0.256891 0.00286859 2.16586e-19)
(-0.253782 0.00268832 -2.53618e-18)
(-0.250774 0.00254979 -3.4107e-18)
(-0.247875 0.00245615 -4.3433e-18)
(-0.245096 0.00240915 -4.33146e-18)
(-0.242442 0.00240908 -1.80948e-19)
(-0.239921 0.00245482 -1.02193e-18)
(-0.237535 0.00254382 7.10751e-19)
(-0.235288 0.00267226 2.35051e-18)
(-0.23318 0.00283508 -2.41797e-18)
(-0.23121 0.00302614 -4.71535e-18)
(-0.229378 0.00323829 -2.03563e-19)
(-0.227681 0.00346342 -2.21777e-19)
(-0.226114 0.00369291 3.34023e-18)
(-0.224674 0.00391759 2.56693e-18)
(-0.223354 0.00412805 2.01836e-19)
(-0.22215 0.00431489 2.84089e-20)
(-0.221054 0.00446884 -9.35649e-19)
(-0.220059 0.00458143 -9.3337e-19)
(-0.219159 0.00464465 -3.60792e-18)
(-0.218347 0.00465166 2.64444e-18)
(-0.217614 0.00459684 1.17584e-18)
(-0.216954 0.0044761 5.56439e-19)
(-0.216359 0.00428706 -3.30911e-18)
(-0.215822 0.00402926 -2.16502e-18)
(-0.215334 0.00370434 -4.38909e-18)
(-0.214888 0.00331626 -4.46437e-18)
(-0.214476 0.00287116 -1.86379e-18)
(-0.214091 0.00237745 -2.49755e-18)
(-0.213725 0.00184566 -1.07214e-18)
(-0.213369 0.00128791 -6.0669e-19)
(-0.213014 0.00071822 -8.12139e-19)
(-0.21265 0.000151891 8.85857e-19)
(-0.21227 -0.000398144 -4.36009e-18)
(-0.211861 -0.000910725 -3.51692e-18)
(-0.211406 -0.00136711 6.93698e-19)
(-0.210895 -0.00175385 -4.45692e-18)
(-0.210316 -0.00205702 2.45179e-18)
(-0.209657 -0.00225776 -4.12212e-18)
(-0.208892 -0.00234041 5.1032e-18)
(-0.208004 -0.00230536 -1.66029e-18)
(-0.206977 -0.00213981 -5.73353e-18)
(-0.205786 -0.00183705 3.10317e-18)
(-0.204403 -0.00139653 -1.93968e-18)
(-0.202802 -0.000813382 -7.58627e-18)
(-0.20094 -8.21322e-05 -2.77832e-18)
(-0.198789 0.000767079 -3.10662e-19)
(-0.196281 0.00175199 1.23889e-18)
(-0.193409 0.00288813 -5.52454e-18)
(-0.190037 0.00415937 4.49059e-18)
(-0.186204 0.00562339 7.28771e-18)
(-0.181614 0.00724558 1.16247e-17)
(-0.176488 0.00917892 7.94961e-18)
(-0.170095 0.011341 6.78828e-18)
(-0.163225 0.0140604 4.3692e-18)
(-0.153982 0.0172458 -2.14893e-18)
(-0.144774 0.0212498 -1.243e-19)
(-0.130845 0.0267171 4.1695e-18)
(-0.118248 0.0321545 3.7531e-18)
(-0.0973325 0.04242 -5.72505e-18)
(-0.0774513 0.0462847 -2.67487e-18)
(-0.0504473 0.056191 -1.43329e-18)
(-0.012179 0.0389297 -1.47089e-18)
(-0.3141 -0.000123746 -2.97899e-20)
(-0.314378 -0.000311726 2.2555e-19)
(-0.31481 -0.000730009 8.82221e-20)
(-0.315666 -0.00107357 3.39749e-19)
(-0.316644 -0.00132406 3.78879e-20)
(-0.317758 -0.00144943 2.22336e-19)
(-0.318861 -0.00143388 1.69875e-19)
(-0.3199 -0.00128587 2.07249e-19)
(-0.320802 -0.00101492 1.07001e-18)
(-0.321525 -0.000639346 1.38313e-19)
(-0.32203 -0.00017861 -1.06687e-18)
(-0.322295 0.000345305 2.57746e-18)
(-0.322302 0.000912159 8.79022e-19)
(-0.32204 0.00149885 2.41769e-18)
(-0.321506 0.0020861 -2.07731e-18)
(-0.3207 0.0026557 1.99685e-18)
(-0.319624 0.00319199 1.42852e-18)
(-0.318287 0.00368185 -2.20012e-18)
(-0.316696 0.00411495 -2.10075e-18)
(-0.314863 0.0044836 -1.99e-18)
(-0.3128 0.00478265 -3.70944e-18)
(-0.310522 0.00500929 -1.31639e-18)
(-0.308044 0.00516288 -1.60056e-18)
(-0.305382 0.00524462 6.55782e-19)
(-0.302555 0.00525746 -2.75784e-19)
(-0.299579 0.00520576 -1.4407e-18)
(-0.296475 0.0050952 3.19122e-19)
(-0.293261 0.00493252 -1.54469e-19)
(-0.289957 0.0047254 2.21469e-18)
(-0.286582 0.00448229 -7.70958e-19)
(-0.283157 0.00421219 -1.78096e-18)
(-0.279701 0.00392449 5.19601e-19)
(-0.276234 0.00362873 -1.48973e-18)
(-0.272775 0.00333438 1.6384e-18)
(-0.269343 0.00305056 -3.13205e-19)
(-0.265955 0.00278587 -1.86745e-18)
(-0.262627 0.00254806 9.85035e-19)
(-0.259375 0.00234388 4.18956e-19)
(-0.256212 0.00217896 -2.73819e-18)
(-0.253151 0.00205759 -4.13803e-18)
(-0.250203 0.0019827 -4.66966e-18)
(-0.247377 0.00195575 -3.68371e-18)
(-0.24468 0.0019768 -7.26559e-19)
(-0.242119 0.00204446 6.89986e-19)
(-0.239697 0.00215597 1.69335e-18)
(-0.237418 0.00230726 4.03692e-19)
(-0.235283 0.00249305 -1.92043e-18)
(-0.233291 0.00270702 -4.12529e-18)
(-0.231442 0.00294184 -1.10935e-18)
(-0.229732 0.00318923 -1.59732e-19)
(-0.228159 0.00344044 1.41128e-18)
(-0.226717 0.00368618 2.71661e-18)
(-0.225402 0.00391693 -2.34994e-19)
(-0.224208 0.0041232 -3.05316e-19)
(-0.223128 0.00429562 -1.77404e-18)
(-0.222155 0.00442573 -1.10275e-18)
(-0.221282 0.00450541 -2.54411e-18)
(-0.220503 0.00452781 4.22657e-18)
(-0.219809 0.00448725 7.18247e-19)
(-0.219192 0.00437959 -2.02979e-19)
(-0.218645 0.00420241 -2.07973e-18)
(-0.218161 0.00395517 -3.4947e-18)
(-0.217731 0.00363947 -3.50697e-18)
(-0.217347 0.00325918 -3.56511e-18)
(-0.217002 0.00282033 -2.46e-18)
(-0.216688 0.00233121 -4.50205e-18)
(-0.216396 0.0018022 -1.58323e-18)
(-0.216118 0.00124509 6.74502e-19)
(-0.215845 0.000673512 -1.69351e-18)
(-0.215567 0.000102111 2.19264e-18)
(-0.215276 -0.000451572 -4.31185e-18)
(-0.214959 -0.000968048 -4.09763e-18)
(-0.214601 -0.00143218 -1.68294e-18)
(-0.214192 -0.00182937 -5.02348e-18)
(-0.213717 -0.00214565 2.21251e-18)
(-0.213166 -0.00236311 -2.54995e-18)
(-0.212514 -0.00246671 4.98571e-18)
(-0.211745 -0.00245541 -1.89029e-18)
(-0.210839 -0.00231769 -5.21018e-18)
(-0.209773 -0.00204732 1.72316e-19)
(-0.208518 -0.00164388 -2.36797e-18)
(-0.207049 -0.0011035 -8.69957e-18)
(-0.205321 -0.000427812 -3.58725e-18)
(-0.203305 0.000377553 -3.13164e-18)
(-0.20093 0.00129699 1.72824e-18)
(-0.198188 0.00235871 -4.00688e-18)
(-0.194934 0.00354423 3.78824e-18)
(-0.191212 0.00490475 5.06763e-18)
(-0.186705 0.0064072 1.29781e-17)
(-0.181645 0.00818969 8.10006e-18)
(-0.175254 0.0101778 8.09682e-18)
(-0.168355 0.0126669 3.42705e-18)
(-0.158949 0.0155883 -2.25808e-18)
(-0.149493 0.019238 2.58708e-19)
(-0.135107 0.0242609 4.7843e-18)
(-0.121713 0.0292259 5.51765e-18)
(-0.0998832 0.0386017 -7.23077e-18)
(-0.0781991 0.0422566 -2.11243e-18)
(-0.0497365 0.050723 -1.1368e-18)
(-0.0116734 0.0349885 -1.78742e-18)
(-0.318514 -0.000100911 -4.01768e-20)
(-0.318749 -0.000260548 1.23351e-19)
(-0.319129 -0.00062593 -1.70406e-20)
(-0.319906 -0.000930174 3.77685e-19)
(-0.320802 -0.001157 4.94223e-19)
(-0.321833 -0.00127335 2.45572e-19)
(-0.322857 -0.00126327 8.60292e-19)
(-0.323821 -0.00113213 4.76343e-19)
(-0.324653 -0.000887285 1.28277e-18)
(-0.325309 -0.000544717 2.34657e-19)
(-0.32575 -0.000121781 -7.93625e-19)
(-0.325954 0.000360365 1.95266e-18)
(-0.325901 0.000883342 1.52656e-18)
(-0.325582 0.00142504 1.96243e-18)
(-0.324991 0.00196702 -1.47391e-19)
(-0.324127 0.00249171 1.69822e-18)
(-0.322996 0.00298399 1.92862e-18)
(-0.321602 0.00343122 -1.26861e-18)
(-0.319955 0.00382341 -2.05796e-18)
(-0.318066 0.00415322 -9.53867e-19)
(-0.315948 0.0044157 -3.03265e-18)
(-0.313614 0.0046083 -1.27248e-18)
(-0.31108 0.00473052 -6.49029e-19)
(-0.308363 0.00478374 1.92836e-18)
(-0.30548 0.00477101 -3.15535e-19)
(-0.30245 0.0046968 -7.37188e-19)
(-0.29929 0.00456687 1.36806e-18)
(-0.29602 0.00438801 -5.70136e-19)
(-0.29266 0.00416795 2.87311e-18)
(-0.289229 0.00391515 3.70509e-19)
(-0.285749 0.0036386 -3.02546e-19)
(-0.282237 0.00334765 1.1439e-18)
(-0.278715 0.00305176 -8.15189e-19)
(-0.275202 0.00276032 1.1997e-18)
(-0.271715 0.00248232 -8.23535e-20)
(-0.268273 0.00222617 -2.2517e-18)
(-0.264893 0.00199948 4.03253e-19)
(-0.26159 0.00180876 6.16652e-19)
(-0.258378 0.00165942 -3.62805e-18)
(-0.255269 0.00155552 -3.33649e-18)
(-0.252276 0.00149972 -3.52448e-18)
(-0.249407 0.00149327 -3.41602e-18)
(-0.246671 0.00153592 -1.06095e-18)
(-0.244073 0.00162606 2.61917e-18)
(-0.241618 0.00176067 3.09682e-18)
(-0.23931 0.00193547 -1.58779e-18)
(-0.237149 0.00214493 -1.8398e-18)
(-0.235136 0.00238256 -4.36765e-18)
(-0.233271 0.00264083 -1.93266e-18)
(-0.23155 0.00291127 -1.20699e-19)
(-0.229969 0.00318502 -2.86411e-19)
(-0.228526 0.00345265 1.09239e-18)
(-0.227215 0.00370451 -7.83955e-19)
(-0.226029 0.00393103 -6.61323e-19)
(-0.224963 0.00412274 -5.87833e-19)
(-0.22401 0.00427113 -1.54432e-18)
(-0.223161 0.00436804 -1.74088e-18)
(-0.222411 0.00440655 4.49959e-18)
(-0.221751 0.00438095 1.92163e-19)
(-0.221173 0.00428707 1.29519e-18)
(-0.22067 0.00412241 -1.17271e-18)
(-0.220233 0.00388644 -2.82831e-18)
(-0.219854 0.00358069 -3.24509e-18)
(-0.219526 0.00320899 -3.19268e-18)
(-0.21924 0.00277733 -3.45437e-18)
(-0.218988 0.00229394 -4.43193e-18)
(-0.218762 0.0017692 -2.02413e-18)
(-0.218553 0.00121484 -7.5665e-19)
(-0.218352 0.000644721 -3.05379e-18)
(-0.218149 7.52141e-05 4.00202e-18)
(-0.217936 -0.000484166 -5.32846e-18)
(-0.2177 -0.00100778 -1.94568e-18)
(-0.217427 -0.00148101 -8.52545e-19)
(-0.217105 -0.00188933 -6.46911e-18)
(-0.216722 -0.00221905 2.58749e-18)
(-0.216265 -0.00245321 -1.56685e-18)
(-0.215712 -0.00257744 6.02067e-18)
(-0.215045 -0.00258957 -2.86264e-18)
(-0.214245 -0.00247923 -1.69771e-18)
(-0.213289 -0.00224071 1.49819e-18)
(-0.212147 -0.00187392 7.88805e-19)
(-0.210793 -0.00137646 -1.13174e-17)
(-0.209182 -0.000751443 -4.66309e-18)
(-0.207286 3.42424e-06 -6.26132e-18)
(-0.205028 0.000856063 2.92906e-18)
(-0.2024 0.00184072 -3.51488e-18)
(-0.199251 0.00293796 4.0699e-18)
(-0.195627 0.00419162 4.12452e-18)
(-0.191192 0.00557048 1.20967e-17)
(-0.186192 0.00719612 9.11515e-18)
(-0.179802 0.00900333 5.75273e-18)
(-0.172876 0.0112505 2.55566e-18)
(-0.163329 0.0138918 -2.819e-18)
(-0.153644 0.0171636 6.99769e-19)
(-0.138863 0.021702 6.40358e-18)
(-0.124747 0.0261509 3.46145e-18)
(-0.102122 0.0345697 -5.43236e-18)
(-0.0788742 0.0379461 -1.6997e-18)
(-0.0490855 0.0451054 -1.04253e-18)
(-0.0112234 0.0311215 -2.44585e-18)
(-0.322389 -8.14708e-05 -5.9114e-20)
(-0.322588 -0.000216114 5.27676e-20)
(-0.322925 -0.000531881 -1.17649e-19)
(-0.323634 -0.000798858 5.08256e-19)
(-0.324459 -0.00100239 4.30198e-19)
(-0.325417 -0.00110953 -4.43071e-19)
(-0.32637 -0.00110433 8.99068e-19)
(-0.327268 -0.000989355 7.80607e-19)
(-0.328036 -0.000769966 1.76888e-18)
(-0.328633 -0.000459847 3.03792e-19)
(-0.329018 -7.42552e-05 -6.46929e-19)
(-0.329167 0.000366331 1.80284e-18)
(-0.329062 0.000845678 2.34618e-18)
(-0.328691 0.00134252 1.85773e-18)
(-0.328049 0.0018393 1.62708e-18)
(-0.327136 0.00231911 1.83885e-18)
(-0.325955 0.00276742 2.58831e-18)
(-0.324512 0.00317202 -7.8512e-19)
(-0.322816 0.00352333 -2.29128e-18)
(-0.320878 0.00381429 -1.17068e-19)
(-0.318711 0.00404023 -2.82262e-18)
(-0.316329 0.0041988 -1.14573e-18)
(-0.313747 0.00428968 2.66811e-19)
(-0.310982 0.00431439 1.55092e-18)
(-0.308051 0.00427612 -5.59213e-19)
(-0.304971 0.00417942 1.93752e-18)
(-0.301763 0.00403012 7.41235e-19)
(-0.298445 0.0038351 -1.15485e-18)
(-0.295036 0.00360212 4.03747e-18)
(-0.291557 0.00333965 1.22037e-18)
(-0.288027 0.00305667 -9.71956e-19)
(-0.284467 0.00276251 1.97924e-18)
(-0.280896 0.00246655 -3.75824e-19)
(-0.277334 0.0021781 1.04842e-18)
(-0.2738 0.001906 -7.26919e-20)
(-0.27031 0.00165853 -3.09036e-18)
(-0.266883 0.00144311 3.85898e-20)
(-0.263535 0.00126603 8.73587e-19)
(-0.260278 0.00113251 -3.33994e-18)
(-0.257127 0.00104635 -3.12423e-18)
(-0.254093 0.00100999 -4.90062e-18)
(-0.251186 0.0010244 -3.5972e-18)
(-0.248413 0.00108908 -1.42541e-18)
(-0.245782 0.00120218 3.02902e-18)
(-0.243297 0.00136042 2.80483e-18)
(-0.240962 0.0015593 -2.04348e-18)
(-0.238778 0.00179307 -2.13168e-18)
(-0.236746 0.00205503 -3.16076e-18)
(-0.234865 0.00233748 -2.95361e-18)
(-0.233133 0.00263176 -1.34212e-19)
(-0.231547 0.00292886 -1.89751e-18)
(-0.230102 0.00321923 -3.0352e-19)
(-0.228793 0.0034931 -1.61128e-18)
(-0.227615 0.00374078 -1.23678e-18)
(-0.226562 0.00395271 5.4118e-19)
(-0.225625 0.00412035 -2.11637e-18)
(-0.224798 0.00423545 -1.17802e-18)
(-0.224074 0.00429105 3.46758e-18)
(-0.223443 0.00428138 -6.00427e-19)
(-0.2229 0.00420222 3.04668e-18)
(-0.222435 0.00405105 -6.20867e-19)
(-0.22204 0.00382727 -2.68404e-18)
(-0.221707 0.00353237 -3.47427e-18)
(-0.221427 0.00317013 -3.20187e-18)
(-0.221193 0.0027465 -2.15064e-18)
(-0.220996 0.00226962 -5.07047e-18)
(-0.220827 0.00174988 -2.58362e-18)
(-0.220677 0.00119882 -2.20106e-18)
(-0.220539 0.000630308 -4.94786e-18)
(-0.220402 6.05279e-05 3.86545e-18)
(-0.220256 -0.000502185 -4.54604e-18)
(-0.22009 -0.00103136 -3.23334e-18)
(-0.219889 -0.00151275 -8.46296e-20)
(-0.219643 -0.00193157 -5.74288e-18)
(-0.219338 -0.00227423 5.09081e-19)
(-0.218962 -0.00252458 -1.10789e-18)
(-0.218494 -0.00266887 4.72309e-18)
(-0.217914 -0.00270405 -1.15428e-18)
(-0.217206 -0.00262074 -2.1629e-18)
(-0.216344 -0.00241379 -6.57008e-19)
(-0.215298 -0.00208348 -2.07953e-19)
(-0.214044 -0.00162855 -1.2367e-17)
(-0.212534 -0.00105275 -6.06187e-18)
(-0.210742 -0.000355849 -6.33809e-18)
(-0.208587 0.000438281 7.71527e-19)
(-0.206057 0.00134311 -3.93574e-18)
(-0.203 0.00235044 5.45233e-18)
(-0.199461 0.00349472 3.5908e-18)
(-0.195091 0.00474645 8.92338e-18)
(-0.190142 0.00621001 6.55061e-18)
(-0.183754 0.00782866 4.18331e-18)
(-0.176804 0.00982352 1.75742e-18)
(-0.167137 0.0121668 -3.97589e-18)
(-0.157249 0.0150416 1.16204e-18)
(-0.142131 0.0190554 9.16234e-18)
(-0.127373 0.0229546 1.97739e-18)
(-0.104064 0.0303619 -5.67136e-19)
(-0.0794713 0.0334129 -1.28772e-18)
(-0.0484853 0.0394432 -9.02604e-19)
(-0.0108109 0.0273791 -3.79838e-18)
(-0.32572 -6.47619e-05 -3.55825e-20)
(-0.325891 -0.000177274 -9.4105e-21)
(-0.326192 -0.000446385 -2.38424e-19)
(-0.326844 -0.000678055 3.22241e-19)
(-0.327608 -0.000858787 4.40625e-19)
(-0.328503 -0.000956653 -5.0914e-19)
(-0.329394 -0.000955866 1.1628e-18)
(-0.330234 -0.000856471 1.19219e-18)
(-0.330947 -0.000661951 2.59924e-18)
(-0.331491 -0.000383777 2.85254e-19)
(-0.331827 -3.5057e-05 -6.02966e-19)
(-0.331929 0.000364199 2.12964e-18)
(-0.331778 0.000800216 1.93833e-18)
(-0.331362 0.00125239 1.9095e-18)
(-0.330677 0.00170411 3.62092e-18)
(-0.329721 0.00213912 2.29431e-18)
(-0.328497 0.0025435 1.8087e-18)
(-0.327012 0.00290552 -7.20002e-19)
(-0.325274 0.00321596 -9.70077e-19)
(-0.323295 0.00346809 8.32848e-19)
(-0.321086 0.0036575 -1.23866e-18)
(-0.318663 0.00378204 -9.99654e-19)
(-0.31604 0.00384158 1.32172e-18)
(-0.313234 0.00383778 1.537e-18)
(-0.310262 0.00377393 -9.58224e-19)
(-0.307141 0.00365471 2.93077e-18)
(-0.303892 0.00348602 4.62358e-21)
(-0.300532 0.00327479 2.52237e-19)
(-0.297082 0.00302884 4.04065e-18)
(-0.293561 0.00275666 2.07975e-18)
(-0.28999 0.00246721 -1.79002e-18)
(-0.286388 0.00216983 1.13581e-18)
(-0.282775 0.00187378 -2.07401e-19)
(-0.279171 0.00158833 1.18781e-18)
(-0.275594 0.00132218 -3.71638e-20)
(-0.272063 0.00108346 -2.46111e-18)
(-0.268596 0.000879405 -1.96378e-19)
(-0.265207 0.000716148 1.1839e-18)
(-0.261911 0.000598653 -1.68188e-18)
(-0.258722 0.000530494 -3.46351e-18)
(-0.255652 0.000513859 -5.24772e-18)
(-0.25271 0.000549476 -2.21653e-18)
(-0.249906 0.000636594 -1.81659e-18)
(-0.247245 0.000773107 2.24052e-18)
(-0.244733 0.000955447 2.7743e-18)
(-0.242374 0.00117893 -3.07188e-18)
(-0.240169 0.00143758 -2.70464e-18)
(-0.23812 0.00172452 -2.53459e-18)
(-0.236225 0.00203181 -4.29603e-18)
(-0.234484 0.00235061 2.31152e-19)
(-0.232891 0.0026718 -3.91028e-18)
(-0.231445 0.00298565 -1.4734e-18)
(-0.230138 0.0032823 -4.36017e-19)
(-0.228967 0.00355192 -1.82306e-18)
(-0.227924 0.00378484 -5.4259e-19)
(-0.227002 0.00397249 -9.31905e-19)
(-0.226194 0.00410654 -3.08779e-18)
(-0.225492 0.00417997 3.2221e-18)
(-0.224888 0.00418695 -1.52926e-18)
(-0.224375 0.0041232 2.87165e-18)
(-0.223943 0.00398616 -4.92479e-19)
(-0.223585 0.00377517 -5.31233e-19)
(-0.223291 0.00349167 -4.20639e-18)
(-0.223054 0.0031394 -9.49865e-19)
(-0.222864 0.00272424 -1.06206e-18)
(-0.222714 0.00225424 -3.88413e-18)
(-0.222594 0.00173978 -3.51177e-18)
(-0.222496 0.00119218 -3.87164e-18)
(-0.222411 0.000625257 -7.66851e-18)
(-0.222329 5.52451e-05 1.64821e-18)
(-0.222241 -0.000510151 -4.97975e-18)
(-0.222133 -0.00104419 -4.73518e-18)
(-0.221993 -0.00153299 -2.53394e-18)
(-0.22181 -0.00196166 -6.23904e-18)
(-0.221571 -0.00231668 -1.22748e-18)
(-0.221263 -0.0025826 -8.32151e-19)
(-0.220865 -0.00274625 4.42682e-18)
(-0.22036 -0.00280387 3.28021e-20)
(-0.219728 -0.00274699 -3.10452e-18)
(-0.218945 -0.00257103 -2.78916e-18)
(-0.217981 -0.00227662 -1.26329e-18)
(-0.216812 -0.00186362 -1.18499e-17)
(-0.215388 -0.00133668 -7.96175e-18)
(-0.213683 -0.000699498 -7.07915e-18)
(-0.211615 3.87181e-05 -1.12805e-18)
(-0.209171 0.000864018 -5.06429e-18)
(-0.206192 0.00178037 3.58405e-18)
(-0.202727 0.00281386 -1.13543e-18)
(-0.198412 0.00393637 7.38192e-18)
(-0.193508 0.00523429 4.69502e-18)
(-0.187123 0.00665909 3.13229e-18)
(-0.180153 0.00839439 1.26132e-18)
(-0.170385 0.0104267 -6.07436e-18)
(-0.160322 0.0128916 2.08003e-18)
(-0.144921 0.0163497 8.83723e-18)
(-0.12961 0.0196767 4.18286e-19)
(-0.105721 0.0260239 -7.74457e-19)
(-0.0799903 0.0287016 -1.09345e-18)
(-0.047947 0.0336987 -1.0496e-18)
(-0.0104383 0.0235718 -5.99848e-18)
(-0.328506 -5.02186e-05 -2.23521e-20)
(-0.328655 -0.00014299 1.09805e-19)
(-0.328927 -0.000368043 -9.28727e-20)
(-0.329531 -0.000566204 2.29146e-19)
(-0.330244 -0.00072466 4.52681e-19)
(-0.331086 -0.000813299 -7.05808e-19)
(-0.331925 -0.000816572 9.16871e-19)
(-0.332714 -0.000732265 8.56314e-19)
(-0.33338 -0.000562103 2.72654e-18)
(-0.33388 -0.0003154 1.09607e-19)
(-0.334173 -2.7676e-06 -6.7973e-19)
(-0.334235 0.000355095 1.50556e-18)
(-0.334045 0.000748013 1.80511e-18)
(-0.333592 0.00115571 2.30047e-18)
(-0.33287 0.00156249 4.53387e-18)
(-0.331878 0.0019528 1.09615e-18)
(-0.330619 0.00231332 1.17131e-18)
(-0.329099 0.00263281 -1.00814e-18)
(-0.327326 0.00290242 -1.78104e-18)
(-0.325312 0.00311577 -1.16864e-22)
(-0.32307 0.00326866 2.94186e-21)
(-0.320613 0.00335918 -1.06143e-18)
(-0.317956 0.00338737 7.34004e-19)
(-0.315116 0.00335503 1.55207e-18)
(-0.31211 0.00326558 -1.57618e-18)
(-0.308957 0.00312379 2.5236e-18)
(-0.305674 0.00293565 1.12671e-18)
(-0.30228 0.00270815 1.72781e-18)
(-0.298796 0.00244915 2.79781e-18)
(-0.29524 0.00216718 8.73601e-19)
(-0.291634 0.00187119 -3.11191e-18)
(-0.287997 0.0015705 7.94294e-19)
(-0.284348 0.00127432 -1.14505e-19)
(-0.280709 0.000991819 -6.36366e-19)
(-0.277097 0.000731599 -2.26892e-18)
(-0.273531 0.000501651 -2.36992e-18)
(-0.270028 0.000308927 -2.32554e-19)
(-0.266604 0.000159713 -2.83901e-19)
(-0.263275 5.842e-05 -2.56339e-18)
(-0.260054 8.45996e-06 -2.35414e-18)
(-0.256952 1.179e-05 -4.30015e-18)
(-0.253981 6.89107e-05 -2.9393e-18)
(-0.251148 0.000178891 -2.3692e-18)
(-0.248461 0.000339231 2.0796e-18)
(-0.245925 0.000546069 1.00537e-18)
(-0.243545 0.000794622 -2.79805e-18)
(-0.241322 0.00107862 -3.64523e-18)
(-0.239258 0.00139107 -2.25027e-18)
(-0.237351 0.00172381 -4.24605e-18)
(-0.2356 0.00206777 -1.39503e-18)
(-0.234003 0.00241368 -4.58919e-18)
(-0.232554 0.00275167 -2.85885e-18)
(-0.23125 0.00307176 -1.59642e-18)
(-0.230085 0.00336398 -2.82045e-18)
(-0.229051 0.00361855 -1.55655e-18)
(-0.228142 0.00382686 1.77421e-19)
(-0.22735 0.00398048 -3.21516e-18)
(-0.226668 0.00407234 1.52773e-18)
(-0.226087 0.00409654 -7.01494e-19)
(-0.2256 0.00404874 9.67701e-19)
(-0.225197 0.00392632 -6.00133e-19)
(-0.22487 0.00372859 -1.13792e-18)
(-0.22461 0.00345692 -5.77094e-18)
(-0.224409 0.003115 1.24352e-18)
(-0.224257 0.00270866 -2.06414e-19)
(-0.224146 0.00224586 -6.2066e-18)
(-0.224068 0.001737 -2.08856e-18)
(-0.224013 0.00119315 -3.19183e-18)
(-0.223971 0.000628174 -8.62099e-18)
(-0.223935 5.83859e-05 3.13471e-19)
(-0.223894 -0.00050931 -6.50215e-18)
(-0.223834 -0.00104802 -6.98988e-18)
(-0.223744 -0.00154389 -5.24819e-18)
(-0.223613 -0.00198201 -7.84083e-18)
(-0.223427 -0.00234899 -2.82556e-18)
(-0.223174 -0.00262999 -6.55886e-19)
(-0.222833 -0.00281241 1.45245e-18)
(-0.222388 -0.00289195 1.04619e-18)
(-0.221818 -0.00286093 -4.5944e-18)
(-0.2211 -0.00271535 -5.33882e-18)
(-0.220203 -0.00245624 -2.41034e-18)
(-0.219103 -0.0020846 -9.74086e-18)
(-0.21775 -0.00160585 -1.06803e-17)
(-0.216117 -0.00102558 -8.91066e-18)
(-0.214121 -0.000352831 -2.6342e-18)
(-0.21175 0.000402668 -7.27797e-18)
(-0.208836 0.00122499 2.93569e-18)
(-0.205433 0.00214645 -1.516e-18)
(-0.201165 0.00313824 7.45242e-18)
(-0.1963 0.00426789 3.72829e-18)
(-0.189919 0.00549496 2.39839e-18)
(-0.182933 0.00696537 9.68853e-19)
(-0.173084 0.00867651 -9.69339e-18)
(-0.162875 0.0107225 3.8196e-18)
(-0.147244 0.0135993 1.02578e-17)
(-0.131469 0.016337 -1.51571e-18)
(-0.107101 0.0215828 -9.06448e-19)
(-0.0804323 0.0238402 -1.24377e-18)
(-0.0474836 0.0278631 -1.11706e-18)
(-0.010112 0.0196601 -5.05518e-18)
(-0.330744 -3.73522e-05 -1.42097e-20)
(-0.330876 -0.000112303 2.54863e-19)
(-0.331126 -0.000295503 2.96554e-20)
(-0.331691 -0.000461715 2.06096e-19)
(-0.332362 -0.00059842 5.33798e-19)
(-0.33316 -0.000677918 -3.54317e-19)
(-0.333956 -0.000684981 8.75803e-19)
(-0.334704 -0.000615347 6.93048e-19)
(-0.33533 -0.000469092 2.21757e-18)
(-0.335794 -0.00025344 -3.15811e-19)
(-0.336053 2.24151e-05 -8.07044e-19)
(-0.336082 0.000340193 1.29324e-18)
(-0.33586 0.000690256 1.95943e-18)
(-0.335377 0.00105363 3.12722e-18)
(-0.334625 0.00141561 4.51912e-18)
(-0.333604 0.00176131 1.64201e-18)
(-0.332317 0.00207805 2.54238e-18)
(-0.330768 0.00235507 -1.62767e-18)
(-0.328969 0.0025839 -9.52867e-19)
(-0.326928 0.00275849 -7.19352e-19)
(-0.324659 0.0028749 1.11184e-18)
(-0.322175 0.00293142 -1.27453e-18)
(-0.319492 0.00292827 3.43334e-19)
(-0.316626 0.00286738 1.77913e-18)
(-0.313595 0.0027523 -2.61697e-18)
(-0.310415 0.00258789 2.82776e-18)
(-0.307106 0.00238022 2.31792e-18)
(-0.303685 0.00213637 1.49508e-18)
(-0.300174 0.00186423 1.94036e-18)
(-0.296591 0.00157238 1.76345e-18)
(-0.292957 0.00126975 -2.96969e-18)
(-0.289292 0.00096564 7.64154e-19)
(-0.285615 0.000669236 -1.77748e-19)
(-0.281947 0.000389569 -4.885e-19)
(-0.278306 0.00013529 -2.81139e-18)
(-0.27471 -8.58196e-05 -2.59111e-18)
(-0.271179 -0.000267049 -1.46417e-19)
(-0.267726 -0.000402275 -1.96546e-18)
(-0.264369 -0.000487294 -1.90229e-18)
(-0.26112 -0.000518917 -1.5608e-18)
(-0.257992 -0.000495437 -2.05302e-18)
(-0.254995 -0.000416601 -1.935e-18)
(-0.252138 -0.000283579 -3.23589e-18)
(-0.249429 -9.91029e-05 2.42918e-18)
(-0.246874 0.000132865 1.32099e-18)
(-0.244475 0.000406914 -1.213e-18)
(-0.242237 0.000716691 -3.03499e-18)
(-0.240159 0.00105504 -2.282e-18)
(-0.238242 0.00141376 -4.74125e-18)
(-0.236484 0.00178339 -2.94231e-18)
(-0.234882 0.00215459 -6.01049e-18)
(-0.233432 0.00251729 -2.23298e-18)
(-0.23213 0.0028614 -2.89593e-18)
(-0.230969 0.00317679 -1.97579e-18)
(-0.229943 0.00345358 -3.32655e-19)
(-0.229045 0.0036831 1.2925e-18)
(-0.228268 0.00385683 -1.55352e-18)
(-0.227603 0.00396763 2.40944e-19)
(-0.227042 0.00400953 -1.03451e-19)
(-0.226576 0.00397814 -7.27564e-19)
(-0.226198 0.00387077 -9.40774e-19)
(-0.225897 0.00368668 -1.97282e-18)
(-0.225666 0.0034272 -5.80867e-18)
(-0.225494 0.00309594 1.20742e-18)
(-0.225374 0.00269873 3.94089e-19)
(-0.225296 0.00224339 -6.85873e-18)
(-0.225251 0.00174041 -7.12117e-19)
(-0.22523 0.00120057 -1.66714e-19)
(-0.225223 0.000637804 -8.15377e-18)
(-0.225224 6.82552e-05 -4.7807e-19)
(-0.22522 -0.000501255 -6.29829e-18)
(-0.225197 -0.00104439 -7.02691e-18)
(-0.225146 -0.00154704 -5.39596e-18)
(-0.225054 -0.00199432 -7.283e-18)
(-0.22491 -0.00237294 -4.6398e-18)
(-0.224699 -0.00266864 -3.92757e-18)
(-0.224403 -0.00286933 2.35218e-18)
(-0.224004 -0.00297033 2.11759e-18)
(-0.223482 -0.00296466 -7.0636e-18)
(-0.222814 -0.00284893 -4.71626e-18)
(-0.22197 -0.00262458 -3.78076e-18)
(-0.220924 -0.00229373 -9.49906e-18)
(-0.219627 -0.00186258 -1.08511e-17)
(-0.218051 -0.00133854 -7.61378e-18)
(-0.216113 -0.00073433 -4.3306e-18)
(-0.213801 -4.89892e-05 -1.093e-17)
(-0.21094 0.000683246 -1.19217e-18)
(-0.207588 0.00149089 -2.39201e-18)
(-0.203358 0.00235078 4.7109e-18)
(-0.198525 0.00331028 2.99254e-18)
(-0.192149 0.00433653 1.86675e-18)
(-0.185153 0.00553812 8.03272e-19)
(-0.175241 0.00692013 -1.03776e-17)
(-0.164917 0.00854057 2.09816e-18)
(-0.149105 0.0108151 8.85519e-18)
(-0.132959 0.0129511 -4.13262e-18)
(-0.108211 0.0170622 -1.12136e-18)
(-0.0807966 0.0188573 -1.35203e-18)
(-0.0471031 0.0219481 -1.24446e-18)
(-0.0098376 0.0156444 -5.32631e-18)
(-0.332433 -2.57409e-05 -3.48328e-21)
(-0.332553 -8.43696e-05 2.61565e-19)
(-0.332785 -0.000227536 1.48288e-19)
(-0.333321 -0.000363115 2.35596e-19)
(-0.33396 -0.000478573 6.95122e-19)
(-0.334723 -0.000549057 -9.96336e-20)
(-0.335484 -0.000559717 1.06734e-18)
(-0.336199 -0.000504421 6.37817e-19)
(-0.336795 -0.000381676 2.07065e-18)
(-0.33723 -0.000196632 1.50248e-19)
(-0.337462 4.21504e-05 2.56458e-19)
(-0.337465 0.000320611 1.45839e-18)
(-0.33722 0.000627977 2.4841e-18)
(-0.336713 0.000947159 2.9524e-18)
(-0.335939 0.00126443 3.49202e-18)
(-0.334896 0.00156562 2.13741e-18)
(-0.333587 0.00183867 2.36533e-18)
(-0.332019 0.0020733 -8.0379e-19)
(-0.330199 0.00226143 -2.11637e-19)
(-0.328138 0.00239734 -1.46592e-18)
(-0.32585 0.00247733 2.54969e-18)
(-0.323348 0.00249992 -1.86223e-18)
(-0.320646 0.00246545 2.68424e-19)
(-0.317762 0.00237605 2.38534e-18)
(-0.314712 0.00223533 -4.20015e-18)
(-0.311514 0.00204829 1.85066e-18)
(-0.308186 0.00182107 1.64829e-18)
(-0.304747 0.00156079 1.4146e-18)
(-0.301216 0.00127544 1.49771e-18)
(-0.297613 0.000973593 2.76469e-18)
(-0.293958 0.000664207 -3.68702e-18)
(-0.290272 0.000356427 1.02376e-18)
(-0.286574 5.98392e-05 -1.62843e-19)
(-0.282883 -0.000216941 -4.02584e-19)
(-0.279219 -0.000465353 -3.94451e-18)
(-0.275601 -0.000677712 -1.02255e-18)
(-0.272046 -0.00084737 6.17592e-20)
(-0.268571 -0.000968742 -1.95368e-18)
(-0.265191 -0.00103749 -1.60573e-18)
(-0.26192 -0.00105072 -8.94027e-19)
(-0.258771 -0.001007 -1.39837e-19)
(-0.255753 -0.000906319 -1.26787e-18)
(-0.252877 -0.000750179 -2.52184e-18)
(-0.25015 -0.000541401 3.50333e-18)
(-0.247577 -0.00028412 1.64648e-18)
(-0.245164 1.59603e-05 1.03178e-19)
(-0.242913 0.000352203 -3.14165e-18)
(-0.240824 0.000716754 -2.46704e-18)
(-0.238898 0.00110171 -4.07305e-18)
(-0.237134 0.00149737 -2.61486e-18)
(-0.235529 0.00189426 -6.41729e-18)
(-0.234078 0.00228211 -1.77372e-18)
(-0.232777 0.00265069 -2.52585e-18)
(-0.231621 0.00298972 -1.20546e-18)
(-0.230602 0.00328918 8.89098e-19)
(-0.229714 0.00354036 2.69428e-18)
(-0.228948 0.00373464 -2.49502e-18)
(-0.228297 0.00386481 -9.37278e-19)
(-0.227753 0.00392482 5.72683e-19)
(-0.227306 0.00391021 -2.65174e-18)
(-0.226947 0.00381823 -1.38926e-18)
(-0.226668 0.00364809 -7.10524e-19)
(-0.22646 0.00340106 -4.22526e-18)
(-0.226312 0.00308072 1.918e-18)
(-0.226216 0.00269285 9.55587e-19)
(-0.226163 0.00224519 -6.16049e-18)
(-0.226144 0.0017483 9.66992e-19)
(-0.22615 0.00121268 2.58775e-18)
(-0.22617 0.000652395 -6.35887e-18)
(-0.226197 8.34828e-05 -9.23106e-19)
(-0.226221 -0.000487776 -4.34039e-18)
(-0.226225 -0.00103537 -8.21751e-18)
(-0.226202 -0.00154474 -6.23203e-18)
(-0.226138 -0.00200106 -7.87833e-18)
(-0.226023 -0.00239119 -6.70758e-18)
(-0.225842 -0.00270136 -4.17718e-18)
(-0.225577 -0.00291998 4.00723e-18)
(-0.225211 -0.0030421 3.46158e-18)
(-0.224724 -0.00306138 -7.41926e-18)
(-0.224093 -0.00297507 -4.77041e-18)
(-0.223286 -0.00278498 -5.73187e-18)
(-0.222281 -0.00249438 -7.06203e-18)
(-0.221025 -0.00211022 -8.53077e-18)
(-0.219492 -0.00164171 -7.31618e-18)
(-0.217596 -0.00110254 -6.37142e-18)
(-0.215328 -0.000496629 -1.19605e-17)
(-0.21251 0.000156196 -3.83755e-19)
(-0.209197 0.000846954 1.03198e-18)
(-0.204996 0.00157351 2.90541e-18)
(-0.20019 0.00236133 2.57842e-18)
(-0.19382 0.00318429 1.84983e-18)
(-0.186818 0.00411463 6.95975e-19)
(-0.17686 0.0051622 -8.59278e-18)
(-0.166452 0.00635354 1.1888e-18)
(-0.150507 0.00801077 4.39416e-18)
(-0.134085 0.00953749 -3.26037e-18)
(-0.109053 0.012489 -1.40037e-18)
(-0.0810805 0.013787 -1.73891e-18)
(-0.0468115 0.0159706 -1.31763e-18)
(-0.00962092 0.0115179 -6.89484e-18)
(-0.333571 -1.502e-05 1.37739e-20)
(-0.333683 -5.84605e-05 1.31266e-19)
(-0.333903 -0.000163017 2.79006e-19)
(-0.334418 -0.000269028 3.11461e-19)
(-0.335033 -0.000363691 9.92163e-19)
(-0.335771 -0.000425317 1.20812e-19)
(-0.336507 -0.000439485 1.51899e-18)
(-0.337198 -0.000398308 6.49286e-19)
(-0.337772 -0.000298787 2.33531e-18)
(-0.338185 -0.000143933 5.06245e-19)
(-0.338398 5.86571e-05 1.43184e-18)
(-0.338383 0.000297205 1.99687e-18)
(-0.338121 0.000562013 1.90187e-18)
(-0.337598 0.00083716 3.23164e-18)
(-0.336809 0.00110987 2.99537e-18)
(-0.335752 0.00136667 2.86266e-18)
(-0.334429 0.00159616 2.56047e-18)
(-0.332848 0.00178852 -4.13398e-19)
(-0.331015 0.00193608 -1.3883e-18)
(-0.328942 0.00203343 -2.3902e-18)