/*--------------------------------*- C++ -*----------------------------------*\
  =========                 |
  \\      /  F ield         | OpenFOAM: The Open Source CFD Toolbox
   \\    /   O peration     | Website:  https://openfoam.org
    \\  /    A nd           | Version:  7
     \\/     M anipulation  |
\*---------------------------------------------------------------------------*/
FoamFile
{
    version     2.0;
    format      ascii;
    class       volScalarField;
    location    "15";
    object      p;
}
// * * * * * * * * * * * * * * * * * * * * * * * * * * * * * * * * * * * * * //

dimensions      [0 2 -2 0 0 0 0];

internalField   nonuniform List<scalar> 
125
(
-0.145547
-0.148236
-0.158646
-0.171241
-0.192754
-0.223782
-0.146642
-0.149648
-0.159983
-0.17281
-0.194339
-0.225909
-0.147685
-0.151029
-0.161352
-0.174506
-0.196215
-0.228607
-0.148671
-0.152345
-0.162658
-0.176135
-0.19801
-0.231225
-0.149598
-0.153585
-0.163864
-0.17762
-0.199577
-0.233498
-0.150467
-0.154749
-0.164973
-0.178967
-0.200934
-0.235442
-0.151279
-0.155841
-0.165995
-0.180195
-0.202116
-0.237106
-0.152034
-0.156862
-0.166931
-0.181309
-0.203136
-0.238497
-0.152735
-0.157812
-0.167782
-0.182303
-0.203986
-0.23958
-0.15338
-0.15869
-0.168544
-0.183176
-0.204662
-0.240371
-0.13202
-0.131273
-0.141833
-0.151802
-0.172025
-0.135231
-0.135113
-0.14627
-0.156994
-0.178122
-0.136915
-0.137145
-0.148271
-0.159162
-0.180239
-0.137949
-0.138477
-0.149441
-0.160482
-0.181533
-0.139
-0.139855
-0.150731
-0.162034
-0.183252
-0.140153
-0.141347
-0.152183
-0.163777
-0.185203
-0.214185
-0.14131
-0.142831
-0.153622
-0.16548
-0.187049
-0.216583
-0.142418
-0.144249
-0.154973
-0.16706
-0.188704
-0.21871
-0.143475
-0.145601
-0.156243
-0.168532
-0.190205
-0.220631
-0.14449
-0.146897
-0.157445
-0.169915
-0.191566
-0.222353
-0.00651065
-0.0307393
-0.0209522
-0.0357804
-0.0328333
-0.0447916
-0.0401549
-0.0500818
-0.0493119
-0.0650471
)
;

boundaryField
{
    inlet
    {
        type            zeroGradient;
    }
    outlet
    {
        type            fixedValue;
        value           nonuniform 0();
    }
    polygon
    {
        type            zeroGradient;
    }
    top
    {
        type            symmetryPlane;
    }
    bottom
    {
        type            symmetryPlane;
    }
    outside
    {
        type            slip;
    }
    procBoundary13to9
    {
        type            processor;
        value           nonuniform List<scalar> 
23
(
-0.26704
-0.269304
-0.272451
-0.275442
-0.277848
-0.279732
-0.281239
-0.282441
-0.283286
-0.283699
-0.19776
-0.205052
-0.207478
-0.209213
-0.211585
-0.211585
-0.253916
-0.257652
-0.260831
-0.263519
-0.265674
0.0139199
-0.0272338
)
;
    }
    procBoundary13to12
    {
        type            processor;
        value           nonuniform List<scalar> 5(0.0160286 0.0104789 0.00459011 0.000634076 -0.00679562);
    }
    procBoundary13to14
    {
        type            processor;
        value           nonuniform List<scalar> 6(-0.153962 -0.159474 -0.169162 -0.183808 -0.204946 -0.24053);
    }
}


// ************************************************************************* //
