/*--------------------------------*- C++ -*----------------------------------*\
  =========                 |
  \\      /  F ield         | OpenFOAM: The Open Source CFD Toolbox
   \\    /   O peration     | Website:  https://openfoam.org
    \\  /    A nd           | Version:  7
     \\/     M anipulation  |
\*---------------------------------------------------------------------------*/
FoamFile
{
    version     2.0;
    format      ascii;
    class       surfaceScalarField;
    location    "15";
    object      phi;
}
// * * * * * * * * * * * * * * * * * * * * * * * * * * * * * * * * * * * * * //

dimensions      [0 3 -1 0 0 0 0];

internalField   nonuniform List<scalar> 
222
(
-0.000154679
0.0177402
-0.0177684
-0.000130848
0.0178347
-0.0178585
-0.000107737
0.017926
-0.0179491
-8.99505e-05
0.0180858
-0.0181036
-7.62995e-05
0.0183132
-0.0183268
0.0186243
-0.0186254
-0.000153968
0.0177112
-0.000129052
0.0178098
-0.000104845
0.0179018
-8.55474e-05
0.0180665
-6.98393e-05
0.0182975
0.0186206
-0.000153191
0.0176814
-0.000127224
0.0177838
-0.00010186
0.0178764
-8.10031e-05
0.0180456
-6.31417e-05
0.0182796
0.0186137
-0.000152371
0.0176508
-0.000125353
0.0177568
-9.88141e-05
0.0178499
-7.63542e-05
0.0180232
-5.62767e-05
0.0182595
0.0186035
-0.000151508
0.0176194
-0.000123446
0.0177287
-9.57262e-05
0.0178221
-7.16399e-05
0.0179991
-4.93196e-05
0.0182372
0.0185899
-0.000150608
0.0175872
-0.00012151
0.0176996
-9.26071e-05
0.0177932
-6.68802e-05
0.0179733
-4.23074e-05
0.0182126
0.0185726
-0.000149671
0.0175543
-0.000119547
0.0176695
-8.94632e-05
0.0177632
-6.20848e-05
0.017946
-3.52544e-05
0.0181858
0.0185515
-0.000148701
0.0175206
-0.000117562
0.0176384
-8.62999e-05
0.0177319
-5.7263e-05
0.0179169
-2.81753e-05
0.0181567
0.0185262
-0.0001477
0.0174862
-0.000115558
0.0176062
-8.31248e-05
0.0176995
-5.24293e-05
0.0178862
-2.11194e-05
0.0181254
0.0184974
-0.000146666
-0.00011353
-7.99283e-05
-4.75695e-05
-1.40626e-05
-4.92564e-05
0.0187457
-0.0188496
4.93583e-05
0.018796
-0.0188946
0.000147147
0.0188916
-0.0189894
0.000239141
0.0190106
-0.0191026
0.0192108
-0.0192978
-4.81055e-05
0.01864
5.18092e-05
0.0186961
0.000152069
0.0187913
0.000246848
0.0189158
0.0191204
-4.7544e-05
0.0185335
5.35934e-05
0.0185949
0.000155052
0.0186899
0.000251507
0.0188194
0.0190281
-4.7038e-05
0.0184263
5.51405e-05
0.0184928
0.000157675
0.0185873
0.000255528
0.0187215
0.018934
-4.65238e-05
0.0183185
5.66568e-05
0.0183896
0.000160266
0.0184837
0.000259533
0.0186222
0.018838
-4.59755e-05
0.0182099
5.82183e-05
0.0182854
0.000162932
0.018379
0.000263683
0.0185215
0.00036173
0.0187399
0.0190092
-4.53972e-05
0.0181005
5.98147e-05
0.0181802
0.000165641
0.0182732
0.000267896
0.0184192
0.000368022
0.0186398
0.0189175
-4.47959e-05
0.0179905
6.14238e-05
0.018074
0.000168356
0.0181662
0.000272101
0.0183155
0.000374312
0.0185376
0.018823
-4.41752e-05
0.0178798
6.30384e-05
0.0179667
0.000171065
0.0180582
0.000276284
0.0182103
0.000380581
0.0184333
0.0187257
-4.35376e-05
6.46582e-05
0.00017378
0.000280487
0.000386932
0.0170522
0.00231739
0.0109955
0.0172415
0.00213416
0.00913435
0.0174207
0.00193238
0.0075657
0.017554
0.00171112
0.00622512
0.0176994
)
;

boundaryField
{
    inlet
    {
        type            calculated;
        value           nonuniform 0();
    }
    outlet
    {
        type            calculated;
        value           nonuniform 0();
    }
    polygon
    {
        type            calculated;
        value           nonuniform 0();
    }
    top
    {
        type            symmetryPlane;
        value           uniform 0;
    }
    bottom
    {
        type            symmetryPlane;
        value           uniform 0;
    }
    outside
    {
        type            calculated;
        value           nonuniform List<scalar> 
22
(
0.000182901
0.000182993
0.000183016
0.000182987
0.000182908
0.000182779
0.000182603
0.000182381
0.000182116
0.000181805
0.00015322
0.000153761
0.000154008
0.000154225
0.000154416
0.000154576
0.000154707
0.000154807
0.000154878
0.000154924
0.00143237
0.00507489
)
;
    }
    procBoundary13to9
    {
        type            processor;
        value           nonuniform List<scalar> 
23
(
-7.52433e-05
-6.60469e-05
-5.62881e-05
-4.61207e-05
-3.56796e-05
-2.50132e-05
-1.41204e-05
-2.90005e-06
7.72029e-06
1.83571e-05
0.00032614
0.000337225
0.000343859
0.000349641
0.000355546
-0.0190981
0.000450664
0.000459733
0.000468822
0.000477903
0.000487201
-0.00253832
-0.0132411
)
;
    }
    procBoundary13to12
    {
        type            processor;
        value           nonuniform List<scalar> 5(-0.0168313 -0.0170582 -0.0172189 -0.0173328 -0.0174206);
    }
    procBoundary13to14
    {
        type            processor;
        value           nonuniform List<scalar> 6(0.017451 0.0175731 0.0176659 0.0178539 0.0180919 0.0184649);
    }
}


// ************************************************************************* //
