/*--------------------------------*- C++ -*----------------------------------*\
  =========                 |
  \\      /  F ield         | OpenFOAM: The Open Source CFD Toolbox
   \\    /   O peration     | Website:  https://openfoam.org
    \\  /    A nd           | Version:  7
     \\/     M anipulation  |
\*---------------------------------------------------------------------------*/
FoamFile
{
    version     2.0;
    format      ascii;
    class       volVectorField;
    location    "15";
    object      U;
}
// * * * * * * * * * * * * * * * * * * * * * * * * * * * * * * * * * * * * * //

dimensions      [0 1 -1 0 0 0 0];

internalField   nonuniform List<vector> 
125
(
(1.15578 0.0954524 -6.0548e-18)
(1.16182 0.112033 -2.0875e-18)
(1.16779 0.117603 1.28674e-17)
(1.17813 0.13455 -9.99635e-18)
(1.19298 0.147898 -2.27313e-17)
(1.2131 0.170757 -2.62827e-17)
(1.15678 0.0954734 -5.67166e-18)
(1.1631 0.11133 1.79942e-18)
(1.1691 0.116511 1.57415e-17)
(1.17975 0.132783 -5.67664e-18)
(1.1948 0.145261 -2.12299e-17)
(1.21564 0.167039 -1.96816e-17)
(1.15774 0.0954677 -5.38641e-18)
(1.16434 0.110604 1.67619e-18)
(1.17041 0.115393 1.07302e-17)
(1.1814 0.130978 -4.95306e-18)
(1.19673 0.142558 -1.99074e-17)
(1.2184 0.163232 -1.23357e-17)
(1.15865 0.0954355 -5.01107e-18)
(1.16551 0.109857 5.27907e-18)
(1.17164 0.114249 9.9435e-18)
(1.18296 0.129137 -8.56808e-18)
(1.19854 0.139788 -1.84658e-17)
(1.22099 0.159339 -1.66838e-17)
(1.15951 0.0953776 -4.3249e-18)
(1.16662 0.10909 4.7399e-18)
(1.1728 0.113083 9.14978e-18)
(1.1844 0.127264 -7.62966e-18)
(1.20016 0.136964 -1.24162e-17)
(1.2233 0.155376 -1.5564e-17)
(1.16032 0.0952951 -4.0555e-18)
(1.16766 0.108305 8.1698e-18)
(1.17387 0.111897 8.53403e-18)
(1.18573 0.125367 -1.12923e-17)
(1.20162 0.134094 -1.20404e-17)
(1.22534 0.151359 -1.49532e-17)
(1.16109 0.0951887 8.26744e-20)
(1.16864 0.107505 7.26806e-18)
(1.17487 0.110696 7.8116e-18)
(1.18695 0.12345 -1.07407e-17)
(1.20294 0.131187 -1.13417e-17)
(1.22715 0.1473 -8.78827e-18)
(1.16181 0.0950593 3.40636e-19)
(1.16956 0.106689 1.07743e-17)
(1.1758 0.10948 3.15931e-18)
(1.18807 0.121517 -1.05651e-17)
(1.20412 0.128253 -1.47822e-17)
(1.2287 0.143204 -2.60235e-18)
(1.16248 0.0949078 -3.46904e-18)
(1.17041 0.105861 6.16977e-18)
(1.17666 0.108253 2.90354e-18)
(1.18909 0.119574 -5.71358e-18)
(1.20516 0.125302 -1.39837e-17)
(1.23002 0.139087 -2.16595e-18)
(1.16311 0.0947336 -3.32139e-18)
(1.17119 0.10502 5.62092e-18)
(1.17742 0.10701 2.88585e-18)
(1.18995 0.117612 -6.29154e-19)
(1.20596 0.122321 -1.24693e-17)
(1.23093 0.134922 -2.22002e-18)
(1.14469 0.0946375 -1.02614e-17)
(1.14762 0.11794 -6.53057e-18)
(1.15341 0.127721 2.54197e-17)
(1.16075 0.151131 -1.73327e-18)
(1.17325 0.172794 -2.75411e-17)
(1.14681 0.0947947 -1.24601e-17)
(1.15021 0.117411 -8.83948e-18)
(1.15629 0.126752 2.38008e-17)
(1.16413 0.149539 -4.85848e-18)
(1.17716 0.170415 -2.56392e-17)
(1.14801 0.0949334 -1.19448e-17)
(1.15174 0.116865 -8.27321e-18)
(1.15778 0.125772 2.20419e-17)
(1.16588 0.147936 -7.51484e-18)
(1.17904 0.168018 -2.41868e-17)
(1.14895 0.0950555 -1.40368e-17)
(1.15299 0.11631 -7.55539e-18)
(1.15898 0.124788 1.77108e-17)
(1.16735 0.146322 -1.01445e-17)
(1.18074 0.165598 -2.28409e-17)
(1.14994 0.0951597 -1.32655e-17)
(1.1543 0.115741 -6.99318e-18)
(1.1603 0.123791 1.63683e-17)
(1.16901 0.144685 -9.38678e-18)
(1.18271 0.163138 -1.72865e-17)
(1.15098 0.0952452 -1.25235e-17)
(1.15566 0.115155 -6.66073e-18)
(1.16167 0.122778 1.54676e-17)
(1.17073 0.143021 -8.56412e-18)
(1.18475 0.160637 -1.61996e-17)
(1.20193 0.189198 -4.01547e-17)
(1.15199 0.0953122 -1.20888e-17)
(1.15698 0.114554 -6.39759e-18)
(1.16301 0.121751 1.75903e-17)
(1.17237 0.141335 -8.02367e-18)
(1.18665 0.1581 -1.92734e-17)
(1.20453 0.185549 -3.81891e-17)
(1.15297 0.0953614 -1.13958e-17)
(1.15825 0.113938 -6.01042e-18)
(1.16427 0.120711 1.64806e-17)
(1.17392 0.139629 -7.31178e-18)
(1.18841 0.155536 -1.81087e-17)
(1.20694 0.181829 -3.65592e-17)
(1.15391 0.0953932 -1.07955e-17)
(1.15946 0.113309 -2.52548e-18)
(1.16548 0.11966 1.52546e-17)
(1.17537 0.137909 -6.88845e-18)
(1.19005 0.152949 -1.6938e-17)
(1.20917 0.178057 -3.47608e-17)
(1.15482 0.0954092 -1.00731e-17)
(1.16061 0.112668 -2.08462e-18)
(1.16661 0.118599 1.44459e-17)
(1.17673 0.136167 -1.01992e-17)
(1.19152 0.150312 -1.98298e-17)
(1.21118 0.174173 -2.79992e-17)
(1.02375 0.0430836 1.30919e-18)
(1.06192 0.21269 5.80295e-18)
(1.03964 0.0396109 3.09332e-18)
(1.06842 0.177864 -8.63826e-18)
(1.05287 0.0355424 -1.31946e-19)
(1.0762 0.14383 1.10854e-18)
(1.06245 0.0336827 3.23286e-18)
(1.08203 0.126406 -1.33862e-17)
(1.07003 0.0259499 4.08939e-18)
(1.09081 0.091282 -1.93948e-17)
)
;

boundaryField
{
    inlet
    {
        type            uniformFixedValue;
        uniformValue    constant (1 0 0);
        value           nonuniform 0();
    }
    outlet
    {
        type            pressureInletOutletVelocity;
        value           nonuniform 0();
    }
    polygon
    {
        type            fixedValue;
        value           nonuniform 0();
    }
    top
    {
        type            symmetryPlane;
    }
    bottom
    {
        type            symmetryPlane;
    }
    outside
    {
        type            zeroGradient;
    }
    procBoundary13to9
    {
        type            processor;
        value           nonuniform List<vector> 
23
(
(1.23906 0.199809 6.52761e-18)
(1.24221 0.194349 5.88209e-18)
(1.24575 0.188582 5.5789e-18)
(1.24904 0.182524 4.36421e-18)
(1.2519 0.17622 3.87852e-18)
(1.25441 0.169711 3.42918e-18)
(1.25664 0.163037 3.75517e-18)
(1.2586 0.156238 -3.46582e-18)
(1.26026 0.149358 -3.12768e-18)
(1.26126 0.142339 -3.04977e-18)
(1.18678 0.205916 -3.79805e-17)
(1.19156 0.202784 -4.08875e-17)
(1.19397 0.199556 -4.25302e-17)
(1.19636 0.196217 -3.98042e-17)
(1.19914 0.192761 -4.22977e-17)
(1.19914 0.192761 -4.22977e-17)
(1.22356 0.225267 1.83057e-17)
(1.2275 0.220462 1.6588e-17)
(1.23103 0.215442 1.52845e-17)
(1.23417 0.210228 1.46644e-17)
(1.2368 0.204677 7.2699e-18)
(1.00743 0.0464248 2.45107e-18)
(1.05244 0.257551 3.8011e-18)
)
;
    }
    procBoundary13to12
    {
        type            processor;
        value           nonuniform List<vector> 5((1.01962 0.0895718 1.01053e-17) (1.02795 0.0852286 6.95765e-18) (1.03299 0.0754304 -1.70548e-18) (1.03664 0.0707931 1.75237e-18) (1.03977 0.0554205 -5.01818e-19));
    }
    procBoundary13to14
    {
        type            processor;
        value           nonuniform List<vector> 6((1.1637 0.0945658 -3.04841e-18) (1.17192 0.104207 5.31356e-18) (1.1781 0.105858 2.3489e-18) (1.19072 0.115785 -1.49547e-18) (1.20658 0.119566 -1.18623e-17) (1.23159 0.131058 -2.26931e-18));
    }
}


// ************************************************************************* //
