/*--------------------------------*- C++ -*----------------------------------*\
  =========                 |
  \\      /  F ield         | OpenFOAM: The Open Source CFD Toolbox
   \\    /   O peration     | Website:  https://openfoam.org
    \\  /    A nd           | Version:  7
     \\/     M anipulation  |
\*---------------------------------------------------------------------------*/
FoamFile
{
    version     2.0;
    format      ascii;
    class       volScalarField;
    location    "40";
    object      p;
}
// * * * * * * * * * * * * * * * * * * * * * * * * * * * * * * * * * * * * * //

dimensions      [0 2 -2 0 0 0 0];

internalField   nonuniform List<scalar> 
7360
(
0.0679008
-0.000604395
0.0345961
-0.0150295
-0.0231366
-0.0584168
-0.0849111
-0.115629
-0.145936
-0.175555
-0.204076
-0.230955
-0.255811
-0.278355
-0.298366
-0.315685
-0.330209
-0.341886
-0.350707
-0.356711
-0.359972
-0.3606
-0.358766
-0.354667
-0.348524
-0.34059
-0.331137
-0.320452
-0.308826
-0.296543
-0.283881
-0.271095
-0.258419
-0.246058
-0.234184
-0.222937
-0.212423
-0.202717
-0.193862
-0.185877
-0.178756
-0.172478
-0.167005
-0.16229
-0.158279
-0.154917
-0.152144
-0.149903
-0.14814
-0.146803
-0.145844
-0.145216
-0.144881
-0.144798
-0.144933
-0.145257
-0.145744
-0.146369
-0.147111
-0.147951
-0.148874
-0.149865
-0.150909
-0.151999
-0.153125
-0.154283
-0.155466
-0.156673
-0.157898
-0.159139
-0.160395
-0.161667
-0.16295
-0.164247
-0.165554
-0.166871
-0.168197
-0.16953
-0.170867
-0.172205
-0.17354
-0.174867
-0.176178
-0.177465
-0.178717
-0.179921
-0.181062
-0.182116
-0.183064
-0.183866
-0.184507
-0.184895
-0.185093
-0.184789
-0.184531
-0.182983
-0.182706
-0.179433
-0.179832
-0.175867
0.0701321
0.00103646
0.0366506
-0.0137501
-0.021785
-0.0572843
-0.083831
-0.114595
-0.144956
-0.174611
-0.20317
-0.230089
-0.254984
-0.277569
-0.297621
-0.314981
-0.329546
-0.341263
-0.350125
-0.356169
-0.359476
-0.360155
-0.358363
-0.354309
-0.348212
-0.340324
-0.330917
-0.320278
-0.308695
-0.296454
-0.283831
-0.271081
-0.258438
-0.246105
-0.234256
-0.22303
-0.212534
-0.20284
-0.193995
-0.186015
-0.178898
-0.172619
-0.167143
-0.162424
-0.158407
-0.155036
-0.152254
-0.150003
-0.14823
-0.146882
-0.145911
-0.145273
-0.144926
-0.144834
-0.144961
-0.145278
-0.145758
-0.146377
-0.147113
-0.147948
-0.148864
-0.14985
-0.150891
-0.151976
-0.1531
-0.154255
-0.155436
-0.15664
-0.157862
-0.159103
-0.160358
-0.161628
-0.162911
-0.164206
-0.165513
-0.166829
-0.168154
-0.169485
-0.17082
-0.172157
-0.17349
-0.174815
-0.176124
-0.177409
-0.178658
-0.17986
-0.180997
-0.182048
-0.182991
-0.183789
-0.184423
-0.184804
-0.18499
-0.184669
-0.184359
-0.182808
-0.182375
-0.179171
-0.179347
-0.175212
0.0587943
-0.00703315
0.0259091
-0.0207596
-0.0292799
-0.063641
-0.0899281
-0.120448
-0.150514
-0.179967
-0.208309
-0.235001
-0.259667
-0.282018
-0.301834
-0.318958
-0.333286
-0.344765
-0.353388
-0.35919
-0.36224
-0.362651
-0.360606
-0.356287
-0.349921
-0.341764
-0.332091
-0.321193
-0.30936
-0.296884
-0.284041
-0.27109
-0.258267
-0.245777
-0.233793
-0.222456
-0.21187
-0.20211
-0.193219
-0.185212
-0.178086
-0.171814
-0.166358
-0.161669
-0.157693
-0.154371
-0.151643
-0.149451
-0.147739
-0.146453
-0.145544
-0.144967
-0.144679
-0.144641
-0.144816
-0.145179
-0.145701
-0.146358
-0.147128
-0.147995
-0.148942
-0.14995
-0.151012
-0.152115
-0.153253
-0.15442
-0.155613
-0.156829
-0.158064
-0.159308
-0.160563
-0.161848
-0.163137
-0.164436
-0.165748
-0.16707
-0.168401
-0.169739
-0.171082
-0.172427
-0.173769
-0.175102
-0.176421
-0.177716
-0.178978
-0.180192
-0.181343
-0.182411
-0.183374
-0.184196
-0.18486
-0.18528
-0.185535
-0.185289
-0.185223
-0.183654
-0.184121
-0.180461
-0.182513
-0.179806
0.063902
-0.00347081
0.0308479
-0.0174423
-0.0257023
-0.0605877
-0.0869834
-0.117619
-0.14782
-0.177368
-0.205814
-0.232614
-0.25739
-0.279854
-0.299784
-0.317021
-0.331463
-0.343057
-0.351794
-0.357709
-0.36089
-0.361444
-0.359519
-0.355327
-0.349093
-0.341067
-0.331525
-0.320753
-0.309044
-0.296683
-0.283949
-0.271097
-0.258363
-0.245951
-0.234035
-0.222753
-0.212212
-0.202485
-0.193616
-0.185623
-0.178501
-0.172226
-0.166759
-0.162055
-0.158058
-0.154711
-0.151955
-0.149733
-0.147989
-0.146671
-0.14573
-0.145121
-0.144802
-0.144736
-0.14489
-0.145232
-0.145734
-0.146373
-0.147127
-0.147976
-0.148901
-0.149899
-0.150949
-0.152042
-0.153173
-0.154334
-0.15552
-0.156726
-0.157951
-0.159197
-0.160458
-0.161728
-0.163017
-0.164315
-0.165625
-0.166944
-0.168272
-0.169607
-0.170946
-0.172286
-0.173623
-0.174951
-0.176264
-0.177553
-0.178808
-0.180014
-0.181158
-0.182216
-0.183169
-0.183979
-0.18463
-0.185034
-0.185259
-0.184967
-0.184767
-0.183197
-0.183212
-0.17983
-0.18096
-0.178213
0.0476737
-0.0144683
0.0145985
-0.0289045
-0.0382899
-0.0715103
-0.0975957
-0.127849
-0.157596
-0.186806
-0.214879
-0.241286
-0.265658
-0.287707
-0.307215
-0.324028
-0.338042
-0.349204
-0.357503
-0.362971
-0.365677
-0.365745
-0.363345
-0.358663
-0.351931
-0.34341
-0.333381
-0.322136
-0.309975
-0.29719
-0.284064
-0.270858
-0.25781
-0.245126
-0.232982
-0.221516
-0.210832
-0.201004
-0.192072
-0.18405
-0.17693
-0.170684
-0.16527
-0.160638
-0.156729
-0.153482
-0.150836
-0.148729
-0.147104
-0.145905
-0.145082
-0.144589
-0.144381
-0.144412
-0.144656
-0.145083
-0.145664
-0.146375
-0.147194
-0.148103
-0.149086
-0.150124
-0.151211
-0.152338
-0.153494
-0.154672
-0.155874
-0.157111
-0.158363
-0.159617
-0.160881
-0.162164
-0.16346
-0.164768
-0.166088
-0.167418
-0.168757
-0.170104
-0.171456
-0.172809
-0.17416
-0.175504
-0.176832
-0.178138
-0.17941
-0.180635
-0.181799
-0.182881
-0.183861
-0.184707
-0.1854
-0.185866
-0.186174
-0.186007
-0.186165
-0.184584
-0.18619
-0.18175
-0.187638
-0.185432
0.0532451
-0.0107924
0.0203668
-0.0246652
-0.0335539
-0.0673467
-0.0935172
-0.123909
-0.153814
-0.183151
-0.211364
-0.237921
-0.262448
-0.284656
-0.304326
-0.321302
-0.335482
-0.34681
-0.355277
-0.360917
-0.363818
-0.364094
-0.361876
-0.357386
-0.350851
-0.342526
-0.332691
-0.321635
-0.309654
-0.297038
-0.284068
-0.271003
-0.258079
-0.245503
-0.233448
-0.222054
-0.211426
-0.201636
-0.192727
-0.184715
-0.177591
-0.171331
-0.165894
-0.16123
-0.157283
-0.153993
-0.1513
-0.149144
-0.147469
-0.146219
-0.145346
-0.144802
-0.144545
-0.144539
-0.144751
-0.145146
-0.145695
-0.146375
-0.147165
-0.148044
-0.148998
-0.150013
-0.151084
-0.152194
-0.15334
-0.154516
-0.155714
-0.156926
-0.158154
-0.159414
-0.160693
-0.161969
-0.163261
-0.164567
-0.165883
-0.16721
-0.168546
-0.169888
-0.171235
-0.172584
-0.173929
-0.175266
-0.176588
-0.177886
-0.179151
-0.180367
-0.181521
-0.182592
-0.183559
-0.18439
-0.185068
-0.185514
-0.185803
-0.185572
-0.185579
-0.183992
-0.184975
-0.181044
-0.184875
-0.183828
0.0375895
-0.0203762
0.00332299
-0.0373477
-0.0480834
-0.0802737
-0.106352
-0.136347
-0.165837
-0.1948
-0.222589
-0.248681
-0.272714
-0.294402
-0.313535
-0.329958
-0.343569
-0.354313
-0.362175
-0.367186
-0.369444
-0.369088
-0.366186
-0.361009
-0.353788
-0.344786
-0.334291
-0.322605
-0.310032
-0.296871
-0.283409
-0.26991
-0.256615
-0.243732
-0.231433
-0.219856
-0.209105
-0.199246
-0.190317
-0.182329
-0.175267
-0.169101
-0.163784
-0.159261
-0.15547
-0.152347
-0.149828
-0.147848
-0.146347
-0.145269
-0.14456
-0.144172
-0.144057
-0.144192
-0.144538
-0.145053
-0.145711
-0.146488
-0.147365
-0.148323
-0.149346
-0.150422
-0.151542
-0.152695
-0.153873
-0.155071
-0.156289
-0.157529
-0.158785
-0.160053
-0.161334
-0.162628
-0.163934
-0.165253
-0.166583
-0.167922
-0.169271
-0.170627
-0.171987
-0.173347
-0.174705
-0.176052
-0.177383
-0.178688
-0.179956
-0.181174
-0.182325
-0.183391
-0.18435
-0.185173
-0.185843
-0.186313
-0.186624
-0.186509
-0.186732
-0.185375
-0.188025
-0.183477
-0.196372
-0.190577
0.0423978
-0.0177096
0.00886962
-0.0331981
-0.043191
-0.075916
-0.101933
-0.132072
-0.161665
-0.190742
-0.21866
-0.244899
-0.269093
-0.290955
-0.310272
-0.32689
-0.340707
-0.351667
-0.359759
-0.365018
-0.367525
-0.367386
-0.36476
-0.359858
-0.352908
-0.344173
-0.333937
-0.322496
-0.31015
-0.297195
-0.283915
-0.270574
-0.257409
-0.244629
-0.232407
-0.220883
-0.210159
-0.200308
-0.191367
-0.183351
-0.176247
-0.170028
-0.16465
-0.160059
-0.156196
-0.152999
-0.150404
-0.14835
-0.146776
-0.145628
-0.144854
-0.144406
-0.144241
-0.14432
-0.144605
-0.145066
-0.145674
-0.146407
-0.147243
-0.148163
-0.149153
-0.1502
-0.151293
-0.152425
-0.153594
-0.154793
-0.156014
-0.157242
-0.158486
-0.159752
-0.161033
-0.162325
-0.16363
-0.164946
-0.166274
-0.167612
-0.16896
-0.170315
-0.171674
-0.173036
-0.174394
-0.175745
-0.17708
-0.178391
-0.179668
-0.180897
-0.182062
-0.183142
-0.184117
-0.184955
-0.185634
-0.186091
-0.186398
-0.186244
-0.18642
-0.184883
-0.18703
-0.182262
-0.191729
-0.189601
-0.0797983
-0.0762752
-0.0756807
-0.0754169
-0.076551
-0.0787584
-0.0823092
-0.0872864
-0.0938902
-0.102324
-0.112816
-0.125677
-0.141407
-0.159779
-0.180692
-0.206989
-0.237367
-0.252272
-0.271966
-0.250478
-0.0843624
-0.0810708
-0.0806551
-0.0806157
-0.0819764
-0.0844395
-0.0882701
-0.0935492
-0.100474
-0.109257
-0.120162
-0.133583
-0.150214
-0.169973
-0.191811
-0.217272
-0.244755
-0.25556
-0.257265
-0.218707
-0.0687555
-0.0649036
-0.0638745
-0.0631806
-0.0638426
-0.0655621
-0.0685891
-0.0730273
-0.0790857
-0.0869941
-0.0970707
-0.109753
-0.12559
-0.144836
-0.168949
-0.199582
-0.234872
-0.264455
-0.290729
-0.303396
-0.074601
-0.0709126
-0.0701006
-0.0696281
-0.0705331
-0.0725036
-0.0758013
-0.0805212
-0.0868748
-0.0950935
-0.105482
-0.118481
-0.134608
-0.153612
-0.175826
-0.203022
-0.232347
-0.248545
-0.27229
-0.269839
-0.055357
-0.0511124
-0.0496583
-0.0485103
-0.0486527
-0.0498427
-0.0523022
-0.0561539
-0.0616095
-0.0689227
-0.0784706
-0.0907026
-0.106315
-0.126006
-0.151501
-0.183628
-0.226146
-0.273157
-0.308731
-0.351509
-0.0623457
-0.0583167
-0.0570708
-0.0561573
-0.056567
-0.0580331
-0.0607897
-0.0649533
-0.0707378
-0.0783925
-0.0882791
-0.100839
-0.11662
-0.136012
-0.16041
-0.190352
-0.226844
-0.263839
-0.287777
-0.312557
-0.0399652
-0.03516
-0.0332747
-0.031643
-0.0312069
-0.0318011
-0.0336276
-0.0368176
-0.0415876
-0.0482041
-0.057073
-0.0686579
-0.0838118
-0.103207
-0.128957
-0.162122
-0.2086
-0.262297
-0.324239
-0.378497
-0.0478995
-0.0433976
-0.041727
-0.0403573
-0.0402143
-0.0411197
-0.0432752
-0.0468121
-0.0519454
-0.0589397
-0.0681864
-0.0801346
-0.0955274
-0.115026
-0.140332
-0.172449
-0.216163
-0.264963
-0.308139
-0.348194
-0.0231072
-0.0175433
-0.0151878
-0.012906
-0.0118296
-0.0117033
-0.0127868
-0.0152217
-0.0191875
-0.0249273
-0.0328957
-0.0434886
-0.0577453
-0.0759185
-0.101429
-0.132872
-0.18083
-0.234934
-0.318016
-0.373912
-0.0316904
-0.0265273
-0.0244114
-0.0224769
-0.0217382
-0.0219983
-0.0234803
-0.0263164
-0.0307176
-0.0369454
-0.0454222
-0.0565857
-0.0713764
-0.0902739
-0.115973
-0.148397
-0.195011
-0.247797
-0.315688
-0.35513
-0.00587538
0.000645651
0.00342278
0.00643104
0.00811923
0.009101
0.00893807
0.00756047
0.00477396
0.000423681
-0.00604647
-0.0148855
-0.0274124
-0.0428623
-0.0665853
-0.0914877
-0.139402
-0.180835
-0.278059
-0.317062
-0.0144551
-0.00843076
-0.00585352
-0.00319106
-0.00178415
-0.00122381
-0.00185439
-0.00382014
-0.00726706
-0.0123978
-0.0197467
-0.0296125
-0.0432228
-0.060178
-0.0851269
-0.113076
-0.160866
-0.206016
-0.291885
-0.320075
0.010756
0.0184584
0.0213517
0.0250151
0.0270417
0.0285231
0.0288681
0.0283056
0.0264201
0.0229635
0.0177437
0.0106531
0.000512013
-0.0114842
-0.0308578
-0.0475671
-0.09037
-0.102843
-0.204715
-0.166037
0.00243096
0.00952601
0.0123866
0.015706
0.017537
0.0188147
0.0189574
0.0181463
0.0159713
0.0122762
0.00663856
-0.00111788
-0.0123762
-0.0259861
-0.047966
-0.0683734
-0.114587
-0.13699
-0.234172
-0.208345
0.0286282
0.0372902
0.0408312
0.0458027
0.0494479
0.0524185
0.0545381
0.0558129
0.0559484
0.0547707
0.0521118
0.0478923
0.041575
0.0339893
0.023202
0.0153921
0.000415816
0.0125248
-0.0128614
0.118347
0.0195346
0.0278393
0.0308177
0.0350716
0.0377144
0.0396478
0.0404911
0.040296
0.0386566
0.0354045
0.0303832
0.023502
0.0140037
0.00287257
-0.0132006
-0.0262309
-0.0545837
-0.0501503
-0.11121
0.00376724
0.29021
0.289377
0.290676
0.289772
0.291659
0.290627
0.293707
0.292618
0.297758
0.296907
0.305798
0.305903
0.321942
0.324591
0.355062
0.363236
0.424823
0.43741
0.562634
0.440944
0.290198
0.289358
0.290647
0.289766
0.291617
0.290628
0.293649
0.292642
0.297701
0.296998
0.305779
0.306166
0.322048
0.325243
0.355376
0.364414
0.424191
0.43574
0.54649
0.38776
0.290232
0.289404
0.290717
0.289789
0.291722
0.290649
0.293802
0.292635
0.297903
0.296901
0.306018
0.305829
0.322313
0.324424
0.35601
0.363533
0.429112
0.445338
0.589822
0.549566
0.290221
0.289394
0.290695
0.289785
0.291688
0.290642
0.293747
0.292631
0.297818
0.296908
0.305888
0.305869
0.322097
0.324515
0.355484
0.363414
0.426778
0.441238
0.575872
0.49861
0.290249
0.289422
0.29075
0.289803
0.29177
0.290665
0.293875
0.292651
0.298014
0.2969
0.306184
0.305776
0.322589
0.324278
0.356674
0.363587
0.431822
0.450794
0.605364
0.635053
0.290241
0.289416
0.290735
0.289799
0.291747
0.290661
0.293837
0.292646
0.297952
0.296898
0.306083
0.305785
0.322404
0.324294
0.356211
0.363396
0.430058
0.447581
0.597004
0.598525
0.290257
0.289431
0.290764
0.28981
0.291792
0.290674
0.293909
0.292659
0.298064
0.296901
0.30626
0.305754
0.322717
0.324208
0.356969
0.363586
0.432929
0.453292
0.611265
0.67547
0.290254
0.289429
0.290759
0.289808
0.291783
0.290672
0.293895
0.292657
0.298042
0.2969
0.306224
0.305756
0.322648
0.324211
0.356795
0.363512
0.432299
0.452094
0.60851
0.662349
0.290254
0.289429
0.290759
0.289808
0.291783
0.290672
0.293895
0.292657
0.298042
0.2969
0.306224
0.305756
0.322648
0.324211
0.356795
0.363512
0.432299
0.452094
0.60851
0.662349
0.290257
0.289431
0.290764
0.28981
0.291792
0.290674
0.293909
0.292659
0.298064
0.296901
0.30626
0.305754
0.322717
0.324208
0.356969
0.363586
0.432929
0.453292
0.611265
0.67547
0.290241
0.289416
0.290735
0.289799
0.291747
0.290661
0.293837
0.292646
0.297952
0.296898
0.306083
0.305785
0.322404
0.324294
0.356211
0.363396
0.430058
0.447581
0.597004
0.598525
0.290249
0.289422
0.29075
0.289803
0.29177
0.290665
0.293875
0.292651
0.298013
0.2969
0.306184
0.305776
0.322589
0.324278
0.356674
0.363587
0.431822
0.450794
0.605364
0.635053
0.290221
0.289394
0.290695
0.289785
0.291688
0.290642
0.293747
0.292631
0.297818
0.296908
0.305888
0.305869
0.322097
0.324515
0.355484
0.363414
0.426778
0.441238
0.575872
0.49861
0.290232
0.289404
0.290717
0.289789
0.291722
0.290649
0.293802
0.292635
0.297903
0.296901
0.306018
0.305829
0.322313
0.324424
0.35601
0.363533
0.429112
0.445338
0.589822
0.549566
0.290198
0.289358
0.290647
0.289766
0.291617
0.290628
0.293649
0.292642
0.297701
0.296998
0.305779
0.306166
0.322048
0.325243
0.355376
0.364414
0.424191
0.43574
0.54649
0.38776
0.29021
0.289377
0.290676
0.289772
0.291659
0.290627
0.293707
0.292618
0.297758
0.296907
0.305798
0.305903
0.321942
0.324591
0.355062
0.363236
0.424823
0.43741
0.562634
0.440944
0.0195346
0.0278393
0.0308176
0.0350715
0.0377143
0.0396477
0.040491
0.0402959
0.0386565
0.0354044
0.0303832
0.0235019
0.0140036
0.00287251
-0.0132006
-0.026231
-0.0545838
-0.0501503
-0.11121
0.00376719
0.0286282
0.0372901
0.0408311
0.0458026
0.0494478
0.0524184
0.054538
0.0558129
0.0559484
0.0547707
0.0521117
0.0478922
0.0415749
0.0339893
0.0232019
0.0153921
0.000415764
0.0125247
-0.0128614
0.118347
0.00243089
0.00952594
0.0123865
0.0157059
0.0175369
0.0188146
0.0189573
0.0181462
0.0159712
0.0122762
0.00663849
-0.00111795
-0.0123763
-0.0259861
-0.0479661
-0.0683735
-0.114587
-0.13699
-0.234172
-0.208346
0.010756
0.0184584
0.0213516
0.0250151
0.0270416
0.028523
0.028868
0.0283055
0.02642
0.0229634
0.0177436
0.0106531
0.00051195
-0.0114843
-0.0308578
-0.0475672
-0.0903701
-0.102843
-0.204715
-0.166037
-0.0144552
-0.00843084
-0.0058536
-0.00319113
-0.00178422
-0.00122388
-0.00185447
-0.00382021
-0.00726713
-0.0123979
-0.0197468
-0.0296126
-0.0432229
-0.0601781
-0.085127
-0.113076
-0.160866
-0.206016
-0.291885
-0.320075
-0.00587545
0.000645573
0.0034227
0.00643097
0.00811916
0.00910092
0.008938
0.0075604
0.00477389
0.000423612
-0.00604653
-0.0148855
-0.0274124
-0.0428624
-0.0665854
-0.0914877
-0.139402
-0.180835
-0.278059
-0.317062
-0.0316905
-0.0265274
-0.0244114
-0.0224769
-0.0217383
-0.0219984
-0.0234803
-0.0263164
-0.0307177
-0.0369455
-0.0454223
-0.0565858
-0.0713764
-0.090274
-0.115973
-0.148398
-0.195011
-0.247797
-0.315688
-0.35513
-0.0231073
-0.0175434
-0.0151879
-0.0129061
-0.0118296
-0.0117034
-0.0127869
-0.0152218
-0.0191876
-0.0249274
-0.0328957
-0.0434886
-0.0577454
-0.0759186
-0.101429
-0.132872
-0.18083
-0.234934
-0.318016
-0.373912
-0.0478996
-0.0433977
-0.0417271
-0.0403574
-0.0402144
-0.0411198
-0.0432753
-0.0468122
-0.0519455
-0.0589398
-0.0681865
-0.0801347
-0.0955274
-0.115026
-0.140332
-0.172449
-0.216163
-0.264963
-0.308139
-0.348194
-0.0399653
-0.0351601
-0.0332747
-0.0316431
-0.031207
-0.0318011
-0.0336277
-0.0368177
-0.0415877
-0.0482041
-0.0570731
-0.068658
-0.0838118
-0.103207
-0.128957
-0.162122
-0.2086
-0.262297
-0.32424
-0.378497
-0.0623458
-0.0583167
-0.0570709
-0.0561573
-0.0565671
-0.0580332
-0.0607897
-0.0649534
-0.0707379
-0.0783926
-0.0882792
-0.100839
-0.11662
-0.136012
-0.16041
-0.190352
-0.226844
-0.263839
-0.287777
-0.312557
-0.055357
-0.0511125
-0.0496584
-0.0485104
-0.0486527
-0.0498427
-0.0523023
-0.056154
-0.0616096
-0.0689227
-0.0784707
-0.0907027
-0.106315
-0.126006
-0.151501
-0.183628
-0.226146
-0.273157
-0.308731
-0.351509
-0.0746011
-0.0709127
-0.0701007
-0.0696281
-0.0705332
-0.0725036
-0.0758014
-0.0805212
-0.0868749
-0.0950936
-0.105482
-0.118481
-0.134608
-0.153612
-0.175826
-0.203022
-0.232347
-0.248545
-0.27229
-0.269839
-0.0687556
-0.0649037
-0.0638746
-0.0631807
-0.0638427
-0.0655621
-0.0685892
-0.0730273
-0.0790858
-0.0869942
-0.0970708
-0.109753
-0.12559
-0.144836
-0.168949
-0.199582
-0.234872
-0.264455
-0.290729
-0.303396
-0.0843624
-0.0810708
-0.0806551
-0.0806158
-0.0819765
-0.0844396
-0.0882701
-0.0935493
-0.100475
-0.109257
-0.120162
-0.133583
-0.150214
-0.169973
-0.191811
-0.217272
-0.244755
-0.25556
-0.257265
-0.218707
-0.0797984
-0.0762752
-0.0756808
-0.075417
-0.0765511
-0.0787585
-0.0823093
-0.0872864
-0.0938903
-0.102324
-0.112816
-0.125677
-0.141407
-0.159779
-0.180692
-0.206989
-0.237367
-0.252272
-0.271966
-0.250478
0.0423978
-0.0177096
0.00886961
-0.0331981
-0.043191
-0.075916
-0.101933
-0.132072
-0.161665
-0.190742
-0.21866
-0.244899
-0.269093
-0.290955
-0.310272
-0.32689
-0.340707
-0.351667
-0.359759
-0.365018
-0.367525
-0.367386
-0.36476
-0.359858
-0.352908
-0.344173
-0.333937
-0.322496
-0.31015
-0.297195
-0.283915
-0.270574
-0.257409
-0.244629
-0.232407
-0.220883
-0.210159
-0.200308
-0.191367
-0.18335
-0.176247
-0.170028
-0.16465
-0.160059
-0.156196
-0.152999
-0.150404
-0.14835
-0.146776
-0.145628
-0.144854
-0.144406
-0.144241
-0.14432
-0.144605
-0.145066
-0.145674
-0.146407
-0.147243
-0.148163
-0.149153
-0.1502
-0.151293
-0.152425
-0.153594
-0.154793
-0.156014
-0.157242
-0.158486
-0.159752
-0.161033
-0.162325
-0.16363
-0.164946
-0.166274
-0.167612
-0.16896
-0.170315
-0.171674
-0.173036
-0.174394
-0.175745
-0.17708
-0.178391
-0.179668
-0.180897
-0.182062
-0.183142
-0.184117
-0.184955
-0.185634
-0.186091
-0.186398
-0.186244
-0.18642
-0.184883
-0.18703
-0.182262
-0.191729
-0.189601
0.0375895
-0.0203762
0.00332299
-0.0373477
-0.0480834
-0.0802737
-0.106352
-0.136347
-0.165837
-0.1948
-0.222589
-0.248681
-0.272714
-0.294402
-0.313535
-0.329958
-0.343569
-0.354313
-0.362175
-0.367186
-0.369444
-0.369088
-0.366186
-0.361009
-0.353788
-0.344786
-0.334291
-0.322605
-0.310032
-0.296871
-0.283409
-0.26991
-0.256615
-0.243732
-0.231433
-0.219856
-0.209105
-0.199246
-0.190317
-0.182329
-0.175267
-0.169101
-0.163784
-0.159261
-0.15547
-0.152347
-0.149828
-0.147848
-0.146347
-0.145269
-0.14456
-0.144172
-0.144057
-0.144192
-0.144538
-0.145053
-0.145711
-0.146488
-0.147365
-0.148323
-0.149346
-0.150422
-0.151542
-0.152695
-0.153873
-0.155071
-0.156289
-0.157529
-0.158785
-0.160053
-0.161334
-0.162628
-0.163934
-0.165253
-0.166583
-0.167922
-0.169271
-0.170627
-0.171987
-0.173347
-0.174705
-0.176052
-0.177383
-0.178688
-0.179956
-0.181174
-0.182325
-0.183391
-0.18435
-0.185173
-0.185843
-0.186313
-0.186624
-0.186509
-0.186732
-0.185375
-0.188025
-0.183477
-0.196372
-0.190577
0.0532451
-0.0107924
0.0203668
-0.0246652
-0.0335539
-0.0673467
-0.0935172
-0.123909
-0.153814
-0.183151
-0.211364
-0.237921
-0.262448
-0.284656
-0.304326
-0.321302
-0.335482
-0.34681
-0.355277
-0.360917
-0.363818
-0.364094
-0.361876
-0.357386
-0.350851
-0.342526
-0.332691
-0.321635
-0.309654
-0.297038
-0.284068
-0.271003
-0.258079
-0.245503
-0.233448
-0.222054
-0.211426
-0.201636
-0.192727
-0.184715
-0.177591
-0.171331
-0.165894
-0.16123
-0.157283
-0.153993
-0.1513
-0.149144
-0.147469
-0.146219
-0.145346
-0.144802
-0.144545
-0.144539
-0.144751
-0.145146
-0.145695
-0.146375
-0.147165
-0.148044
-0.148998
-0.150013
-0.151084
-0.152194
-0.15334
-0.154516
-0.155714
-0.156926
-0.158154
-0.159414
-0.160693
-0.161969
-0.163261
-0.164567
-0.165883
-0.16721
-0.168546
-0.169888
-0.171235
-0.172584
-0.173929
-0.175266
-0.176588
-0.177886
-0.179151
-0.180367
-0.181521
-0.182592
-0.183559
-0.18439
-0.185068
-0.185514
-0.185804
-0.185572
-0.185579
-0.183992
-0.184975
-0.181044
-0.184875
-0.183828
0.0476737
-0.0144683
0.0145985
-0.0289045
-0.0382899
-0.0715104
-0.0975958
-0.127849
-0.157596
-0.186806
-0.214879
-0.241286
-0.265658
-0.287707
-0.307215
-0.324028
-0.338042
-0.349204
-0.357503
-0.362971
-0.365677
-0.365745
-0.363345
-0.358663
-0.351931
-0.34341
-0.333381
-0.322136
-0.309975
-0.29719
-0.284064
-0.270858
-0.25781
-0.245126
-0.232982
-0.221516
-0.210832
-0.201004
-0.192072
-0.18405
-0.17693
-0.170684
-0.16527
-0.160638
-0.156729
-0.153482
-0.150836
-0.148729
-0.147103
-0.145905
-0.145082
-0.144589
-0.144381
-0.144412
-0.144656
-0.145083
-0.145664
-0.146375
-0.147194
-0.148103
-0.149086
-0.150124
-0.151211
-0.152338
-0.153494
-0.154672
-0.155874
-0.157111
-0.158363
-0.159617
-0.160881
-0.162164
-0.16346
-0.164768
-0.166088
-0.167418
-0.168757
-0.170104
-0.171456
-0.172809
-0.17416
-0.175504
-0.176832
-0.178138
-0.17941
-0.180635
-0.181799
-0.182881
-0.183861
-0.184707
-0.1854
-0.185866
-0.186174
-0.186007
-0.186165
-0.184584
-0.18619
-0.18175
-0.187638
-0.185432
0.063902
-0.00347081
0.0308479
-0.0174423
-0.0257023
-0.0605877
-0.0869834
-0.117619
-0.14782
-0.177368
-0.205814
-0.232614
-0.25739
-0.279854
-0.299784
-0.317021
-0.331463
-0.343057
-0.351794
-0.357709
-0.36089
-0.361444
-0.359519
-0.355327
-0.349093
-0.341067
-0.331525
-0.320753
-0.309044
-0.296683
-0.283949
-0.271097
-0.258363
-0.245951
-0.234035
-0.222753
-0.212212
-0.202485
-0.193616
-0.185623
-0.178501
-0.172226
-0.166759
-0.162055
-0.158058
-0.154711
-0.151955
-0.149733
-0.147989
-0.146671
-0.14573
-0.145121
-0.144802
-0.144736
-0.14489
-0.145232
-0.145734
-0.146373
-0.147127
-0.147976
-0.148901
-0.149899
-0.150949
-0.152042
-0.153173
-0.154334
-0.15552
-0.156726
-0.157951
-0.159197
-0.160458
-0.161728
-0.163017
-0.164315
-0.165625
-0.166944
-0.168272
-0.169607
-0.170946
-0.172286
-0.173623
-0.174951
-0.176264
-0.177553
-0.178808
-0.180014
-0.181158
-0.182216
-0.183169
-0.183979
-0.18463
-0.185034
-0.185259
-0.184967
-0.184767
-0.183197
-0.183212
-0.17983
-0.18096
-0.178213
0.0587943
-0.00703315
0.0259091
-0.0207596
-0.0292799
-0.063641
-0.0899281
-0.120448
-0.150514
-0.179967
-0.208309
-0.235001
-0.259667
-0.282018
-0.301834
-0.318958
-0.333286
-0.344765
-0.353388
-0.35919
-0.36224
-0.362651
-0.360606
-0.356287
-0.349921
-0.341764
-0.332091
-0.321193
-0.30936
-0.296884
-0.284041
-0.27109
-0.258267
-0.245777
-0.233793
-0.222456
-0.21187
-0.20211
-0.193219
-0.185212
-0.178086
-0.171814
-0.166358
-0.161669
-0.157693
-0.154371
-0.151643
-0.149451
-0.147739
-0.146453
-0.145544
-0.144967
-0.144679
-0.144641
-0.144816
-0.145179
-0.145701
-0.146358
-0.147128
-0.147995
-0.148942
-0.14995
-0.151012
-0.152115
-0.153253
-0.15442
-0.155613
-0.156829
-0.158064
-0.159308
-0.160563
-0.161848
-0.163137
-0.164436
-0.165748
-0.16707
-0.168401
-0.169739
-0.171082
-0.172427
-0.173769
-0.175102
-0.176421
-0.177716
-0.178978
-0.180192
-0.181343
-0.182411
-0.183374
-0.184196
-0.18486
-0.185281
-0.185535
-0.185289
-0.185223
-0.183654
-0.184121
-0.180461
-0.182513
-0.179806
0.0701321
0.00103646
0.0366506
-0.0137501
-0.021785
-0.0572843
-0.083831
-0.114595
-0.144956
-0.174611
-0.20317
-0.230089
-0.254984
-0.277569
-0.297621
-0.314981
-0.329546
-0.341263
-0.350125
-0.356169
-0.359476
-0.360155
-0.358363
-0.354309
-0.348212
-0.340324
-0.330917
-0.320278
-0.308695
-0.296454
-0.283831
-0.271081
-0.258438
-0.246105
-0.234256
-0.22303
-0.212533
-0.20284
-0.193995
-0.186015
-0.178898
-0.172619
-0.167143
-0.162424
-0.158407
-0.155036
-0.152254
-0.150003
-0.14823
-0.146882
-0.145911
-0.145273
-0.144926
-0.144834
-0.144961
-0.145278
-0.145758
-0.146377
-0.147113
-0.147948
-0.148864
-0.14985
-0.150891
-0.151976
-0.1531
-0.154255
-0.155436
-0.15664
-0.157862
-0.159103
-0.160358
-0.161628
-0.162911
-0.164206
-0.165513
-0.166829
-0.168154
-0.169485
-0.17082
-0.172157
-0.17349
-0.174815
-0.176124
-0.177409
-0.178658
-0.17986
-0.180997
-0.182048
-0.182991
-0.183789
-0.184423
-0.184804
-0.18499
-0.184669
-0.184359
-0.182808
-0.182375
-0.179171
-0.179347
-0.175212
0.0679008
-0.000604396
0.0345961
-0.0150295
-0.0231366
-0.0584168
-0.0849111
-0.115629
-0.145936
-0.175555
-0.204076
-0.230955
-0.255811
-0.278355
-0.298366
-0.315685
-0.330209
-0.341886
-0.350707
-0.356711
-0.359972
-0.3606
-0.358766
-0.354667
-0.348524
-0.34059
-0.331137
-0.320452
-0.308826
-0.296543
-0.283881
-0.271095
-0.258419
-0.246058
-0.234184
-0.222937
-0.212423
-0.202717
-0.193862
-0.185877
-0.178756
-0.172478
-0.167005
-0.16229
-0.158279
-0.154917
-0.152144
-0.149903
-0.14814
-0.146803
-0.145844
-0.145216
-0.144881
-0.144798
-0.144933
-0.145257
-0.145744
-0.146369
-0.147111
-0.147951
-0.148874
-0.149865
-0.150909
-0.151999
-0.153125
-0.154283
-0.155466
-0.156673
-0.157898
-0.159139
-0.160395
-0.161667
-0.16295
-0.164247
-0.165554
-0.166871
-0.168197
-0.16953
-0.170867
-0.172205
-0.17354
-0.174867
-0.176178
-0.177465
-0.178717
-0.179921
-0.181062
-0.182116
-0.183064
-0.183866
-0.184507
-0.184895
-0.185093
-0.184789
-0.184531
-0.182983
-0.182706
-0.179433
-0.179832
-0.175867
0.288746
0.288491
0.288378
0.287995
0.287565
0.286783
0.285822
0.284414
0.28247
0.28005
0.27629
0.271333
0.263611
0.253926
0.238564
0.220572
0.191347
0.160911
0.110977
0.0663241
0.288803
0.2885
0.288486
0.288059
0.287775
0.286961
0.286263
0.28485
0.283351
0.280891
0.27772
0.273027
0.266104
0.257236
0.242767
0.226531
0.197626
0.17005
0.118339
0.0762859
0.288859
0.288518
0.288577
0.288127
0.287941
0.28712
0.286565
0.285198
0.283901
0.281592
0.278783
0.27442
0.268073
0.259884
0.246192
0.231124
0.202777
0.176809
0.123894
0.0831655
0.288924
0.288543
0.288682
0.288204
0.288137
0.2873
0.286963
0.285591
0.284662
0.282386
0.280115
0.275999
0.270468
0.262899
0.250296
0.23639
0.208879
0.184563
0.130244
0.0909541
0.288998
0.288573
0.288795
0.288292
0.288346
0.287496
0.287364
0.286016
0.285433
0.28324
0.281545
0.277696
0.273093
0.266132
0.25484
0.242005
0.215685
0.192756
0.137099
0.0989976
0.289078
0.28861
0.288916
0.288387
0.288567
0.287705
0.287794
0.286463
0.286253
0.284141
0.283079
0.279482
0.275944
0.269549
0.25981
0.247947
0.223205
0.201416
0.144559
0.107327
0.289163
0.288651
0.289043
0.288489
0.288798
0.287925
0.288241
0.286928
0.287112
0.285083
0.284705
0.281346
0.279003
0.273137
0.265211
0.254215
0.231501
0.210588
0.152787
0.116054
0.289253
0.288697
0.289174
0.288596
0.289035
0.288153
0.288701
0.287408
0.288
0.286057
0.286406
0.283278
0.282248
0.276864
0.271047
0.2608
0.240627
0.220299
0.161985
0.125226
0.289345
0.288747
0.289309
0.288707
0.289277
0.288386
0.289168
0.287899
0.288907
0.287054
0.288162
0.285264
0.285644
0.280708
0.277305
0.267712
0.250637
0.230583
0.172402
0.134846
0.28944
0.2888
0.289445
0.28882
0.289521
0.288624
0.289639
0.288396
0.289824
0.288067
0.289952
0.287292
0.289152
0.284657
0.283939
0.274963
0.261597
0.241474
0.18434
0.144891
0.289535
0.288855
0.289581
0.288934
0.289763
0.288862
0.290107
0.288893
0.290739
0.289086
0.291754
0.289346
0.292731
0.288701
0.290898
0.282508
0.273627
0.253027
0.198164
0.155311
0.289629
0.288911
0.289715
0.289048
0.290002
0.289098
0.290568
0.289387
0.291643
0.2901
0.293547
0.291409
0.296336
0.292822
0.298097
0.290332
0.286778
0.265364
0.214321
0.165986
0.28972
0.288969
0.289846
0.28916
0.290235
0.289329
0.291017
0.289872
0.292525
0.291101
0.295308
0.293464
0.29992
0.296993
0.305443
0.29844
0.301
0.278747
0.233347
0.176737
0.289808
0.289026
0.289974
0.289269
0.290459
0.289554
0.291449
0.290342
0.293376
0.292078
0.297016
0.295489
0.303436
0.301182
0.312834
0.306843
0.3162
0.293437
0.255872
0.187391
0.28989
0.289083
0.290095
0.289373
0.290672
0.289769
0.29186
0.290792
0.294187
0.293019
0.298651
0.297462
0.306836
0.30535
0.32016
0.31553
0.33217
0.309518
0.282841
0.197983
0.289965
0.289139
0.29021
0.28947
0.290872
0.289971
0.292246
0.291217
0.294949
0.293912
0.300194
0.299358
0.310078
0.309447
0.327311
0.324445
0.348651
0.3272
0.314982
0.208988
0.290033
0.289192
0.290316
0.28956
0.291057
0.290158
0.292602
0.291611
0.295654
0.294745
0.301628
0.301147
0.31312
0.313407
0.334177
0.333487
0.36538
0.346682
0.352954
0.221748
0.29009
0.28925
0.290413
0.289641
0.291226
0.290327
0.292926
0.291966
0.296296
0.295503
0.30294
0.302794
0.315926
0.317147
0.340657
0.342492
0.38206
0.368101
0.397364
0.239091
0.290138
0.289287
0.290502
0.289706
0.291378
0.290472
0.293215
0.29228
0.296869
0.296179
0.304112
0.304282
0.318459
0.320605
0.346632
0.351287
0.398204
0.391551
0.447098
0.269517
0.29017
0.289368
0.290564
0.289787
0.291495
0.290625
0.293452
0.292582
0.297347
0.296805
0.305114
0.305641
0.320661
0.323783
0.351948
0.359664
0.413344
0.416468
0.500585
0.330576
0.29017
0.289368
0.290564
0.289787
0.291495
0.290625
0.293452
0.292582
0.297347
0.296805
0.305114
0.305641
0.320661
0.323783
0.351948
0.359664
0.413344
0.416468
0.500585
0.330576
0.290138
0.289287
0.290502
0.289706
0.291378
0.290472
0.293215
0.29228
0.296869
0.296179
0.304112
0.304282
0.318459
0.320605