/*--------------------------------*- C++ -*----------------------------------*\
  =========                 |
  \\      /  F ield         | OpenFOAM: The Open Source CFD Toolbox
   \\    /   O peration     | Website:  https://openfoam.org
    \\  /    A nd           | Version:  7
     \\/     M anipulation  |
\*---------------------------------------------------------------------------*/
FoamFile
{
    version     2.0;
    format      ascii;
    class       surfaceScalarField;
    location    "40";
    object      phi;
}
// * * * * * * * * * * * * * * * * * * * * * * * * * * * * * * * * * * * * * //

dimensions      [0 3 -1 0 0 0 0];

internalField   nonuniform List<scalar> 
14496
(
-0.000416681
0.000647145
-0.00125803
0.000192164
0.000641614
-0.00125046
0.000601646
0.000413244
-0.000822726
0.000992879
0.000394227
-0.00078546
0.00132536
0.000333858
-0.000666339
0.00162947
0.000304742
-0.000608855
0.00190542
0.000276579
-0.000552525
0.00215486
0.000249824
-0.000499265
0.00238035
0.000225808
-0.000451294
0.00258255
0.000202484
-0.000404692
0.00276231
0.000179963
-0.000359717
0.00292044
0.000158275
-0.000316405
0.0030577
0.000137343
-0.000274606
0.00317484
0.000117143
-0.000234278
0.00327255
9.76488e-05
-0.000195363
0.00335151
7.8825e-05
-0.000157789
0.00341236
6.06367e-05
-0.000121484
0.0034557
4.3064e-05
-8.6407e-05
0.00348215
2.61061e-05
-5.25566e-05
0.00349233
9.7855e-06
-1.99571e-05
0.00348682
-5.93529e-06
1.14399e-05
0.00346642
-2.09391e-05
4.13385e-05
0.00343189
-3.50705e-05
6.96021e-05
0.0033841
-4.83826e-05
9.61781e-05
0.003324
-6.07262e-05
0.000120825
0.00325265
-7.20096e-05
0.000143354
0.00317121
-8.21433e-05
0.000163585
0.0030809
-9.1046e-05
0.000181355
0.00298302
-9.86498e-05
0.000196529
0.00287892
-0.000104902
0.000209
0.00276999
-0.000109766
0.000218698
0.00265763
-0.000113228
0.000225592
0.00254322
-0.000115294
0.000229697
0.00242815
-0.000115995
0.000231074
0.0023137
-0.000115383
0.00022983
0.00220112
-0.000113536
0.000226117
0.00209154
-0.000110548
0.000220128
0.00198598
-0.000106534
0.000212093
0.00188533
-0.000101625
0.000202274
0.00179034
-9.59638e-05
0.000190957
0.00170159
-8.97005e-05
0.000178444
0.00161954
-8.29902e-05
0.000165044
0.00154446
-7.59873e-05
0.000151068
0.00147649
-6.88412e-05
0.000136814
0.00141562
-6.16922e-05
0.000122562
0.00136172
-5.46682e-05
0.000108566
0.00131455
-4.78817e-05
9.50503e-05
0.00127377
-4.14273e-05
8.22036e-05
0.00123898
-3.53811e-05
7.01761e-05
0.0012097
-2.97999e-05
5.90804e-05
0.00118543
-2.4722e-05
4.89918e-05
0.00116565
-2.01683e-05
3.99514e-05
0.00114982
-1.61467e-05
3.19739e-05
0.00113742
-1.26483e-05
2.50475e-05
0.00112797
-9.64121e-06
1.90863e-05
0.00112102
-7.08807e-06
1.40387e-05
0.00111614
-4.96417e-06
9.84706e-06
0.00111294
-3.22962e-06
6.4299e-06
0.00111108
-1.84071e-06
3.69975e-06
0.00111027
-7.4982e-07
1.56279e-06
0.00111026
9.03262e-08
-8.0611e-08
0.0011108
6.79655e-07
-1.21856e-06
0.00111172
1.09392e-06
-2.01709e-06
0.00111288
1.36093e-06
-2.52297e-06
0.00111417
1.50889e-06
-2.7936e-06
0.00111548
1.55992e-06
-2.8743e-06
0.00111675
1.53233e-06
-2.80023e-06
0.0011179
1.43783e-06
-2.59005e-06
0.00111889
1.29177e-06
-2.27695e-06
0.00111966
1.09664e-06
-1.87264e-06
0.00112019
8.57598e-07
-1.38769e-06
0.00112041
5.79456e-07
-8.00612e-07
0.00112031
2.53464e-07
-1.50626e-07
0.00111981
-1.16825e-07
6.21499e-07
0.00111887
-5.48213e-07
1.48675e-06
0.00111743
-1.03183e-06
2.46778e-06
0.00111543
-1.58549e-06
3.58831e-06
0.00111278
-2.22215e-06
4.87434e-06
0.00110938
-2.95782e-06
6.3576e-06
0.00110511
-3.81175e-06
8.07621e-06
0.00109984
-4.80742e-06
1.00767e-05
0.0010934
-5.97363e-06
1.24161e-05
0.00108558
-7.34599e-06
1.51648e-05
0.00107614
-8.96889e-06
1.84106e-05
0.00106477
-1.08981e-05
2.22635e-05
0.00105112
-1.3205e-05
2.68641e-05
0.0010347
-1.59811e-05
3.23927e-05
0.00101497
-1.9346e-05
3.90847e-05
0.000991171
-2.34606e-05
4.72551e-05
0.000962395
-2.85265e-05
5.73022e-05
0.000927406
-3.4872e-05
6.98608e-05
0.000884733
-4.27326e-05
8.54057e-05
0.000831974
-5.31195e-05
0.000105879
0.000767283
-6.54314e-05
0.000130122
0.000684456
-8.41771e-05
0.000167005
0.000585033
-0.000101631
0.000201053
0.000451469
-0.000136637
0.000270202
0.000304655
-0.000152054
0.000298869
0.000127785
-0.000180004
0.000356873
-0.000131204
0.000258989
-0.000424617
-2.05127e-11
0.000216998
-7.68829e-12
0.000630242
1.96465e-11
0.00102447
3.3026e-11
0.00135833
4.69742e-11
0.00166307
5.64724e-11
0.00193965
6.43603e-11
0.00218947
7.03121e-11
0.00241528
7.45851e-11
0.00261776
7.79178e-11
0.00279773
8.02784e-11
0.002956
8.20011e-11
0.00309334
8.3482e-11
0.00321049
8.4535e-11
0.00330814
8.59222e-11
0.00338696
8.77059e-11
0.0034476
8.93112e-11
0.00349066
9.13032e-11
0.00351677
9.31447e-11
0.00352655
9.52323e-11
0.00352062
9.88703e-11
0.00349968
1.00497e-10
0.00346461
1.02335e-10
0.00341622
1.04115e-10
0.0033555
1.0537e-10
0.00328349
1.06135e-10
0.00320135
1.06231e-10
0.0031103
1.0552e-10
0.00301165
1.03889e-10
0.00290675
1.01145e-10
0.00279698
9.73782e-11
0.00268375
9.22186e-11
0.00256846
8.56568e-11
0.00245246
7.71777e-11
0.00233708
6.77582e-11
0.00222355
5.67761e-11
0.002113
4.44052e-11
0.00200646
3.07847e-11
0.00190484
1.58042e-11
0.00180887
-3.45405e-13
0.00171917
-1.73227e-11
0.00163618
-3.51027e-11
0.0015602
-5.34027e-11
0.00149135
-7.21705e-11
0.00142966
-9.10488e-11
0.00137499
-1.0971e-10
0.00132711
-1.2794e-10
0.00128569
-1.45292e-10
0.0012503
-1.61456e-10
0.00122051
-1.76115e-10
0.00119578
-1.88901e-10
0.00117562
-1.99579e-10
0.00115947
-2.07779e-10
0.00114682
-2.13322e-10
0.00113718
-2.15927e-10
0.00113009
-2.15301e-10
0.00112513
-2.11384e-10
0.0011219
-2.04213e-10
0.00112006
-1.93547e-10
0.00111931
-1.80777e-10
0.0011194
-1.57683e-10
0.00112008
-1.36753e-10
0.00112117
-1.11698e-10
0.00112253
-8.67063e-11
0.00112404
-5.99209e-11
0.0011256
-3.23407e-11
0.00112713
-4.05302e-12
0.00112857
2.34253e-11
0.00112986
4.99447e-11
0.00113096
7.56013e-11
0.00113182
9.7289e-11
0.0011324
1.16511e-10
0.00113265
1.35342e-10
0.00113253
1.54424e-10
0.00113199
1.62306e-10
0.00113095
1.6462e-10
0.00112937
1.6343e-10
0.00112715
1.58264e-10
0.00112419
1.48969e-10
0.00112038
1.35977e-10
0.00111557
1.19953e-10
0.00110959
1.0162e-10
0.00110225
8.17365e-11
0.00109328
6.11386e-11
0.00108238
4.05318e-11
0.00106918
2.07431e-11
0.0010532
2.44488e-12
0.00103385
-1.35693e-11
0.00101039
-2.70387e-11
0.000981862
-3.75123e-11
0.00094699
-4.50022e-11
0.000904258
-4.92001e-11
0.000851138
-5.08852e-11
0.000785707
-4.96023e-11
0.00070153
-4.65443e-11
0.000599899
-4.17258e-11
0.000463263
-3.64291e-11
0.000311208
-3.09725e-11
0.000131204
-2.41958e-11
-1.25086e-11
-0.000373115
0.00178859
-0.00225349
9.93646e-05
0.00178374
-0.00225622
0.000470706
0.00120826
-0.0015796
0.000830212
0.0011556
-0.00151511
0.0011413
0.000982995
-0.00129408
0.0014292
0.000900008
-0.00118791
0.00169033
0.000816457
-0.00107759
0.00192745
0.000738338
-0.000975455
0.0021418
0.000667327
-0.000881682
0.00233409
0.000598402
-0.000790688
0.00250512
0.000531931
-0.000702966
0.00265566
0.000467896
-0.000618433
0.00278644
0.000406115
-0.0005369
0.00289821
0.000346525
-0.000458285
0.00299163
0.000289034
-0.000382454
0.00306734
0.000233528
-0.000309245
0.00312595
0.000179896
-0.000238508
0.00316803
0.000128074
-0.000170149
0.00319413
7.80567e-05
-0.000104162
0.00320482
2.98993e-05
-4.05863e-05
0.00320069
-1.64616e-05
2.05944e-05
0.0031825
-6.07085e-05
7.88992e-05
0.00315088
-0.000102437
0.000134059
0.00310671
-0.000141704
0.000185868
0.00305092
-0.000178107
0.000233897
0.00298452
-0.000211367
0.000277764
0.00290863
-0.000241218
0.000317115
0.00282442
-0.000267419
0.00035163
0.00273314
-0.000289767
0.000381041
0.00263611
-0.000308108
0.000405142
0.00253465
-0.000322335
0.000423797
0.0024301
-0.000332407
0.00043695
0.00232381
-0.000338347
0.000444636
0.00221708
-0.000340249
0.000446983
0.00211115
-0.000338274
0.000444209
0.00200718
-0.000332652
0.000436623
0.00190624
-0.000323672
0.000424611
0.00180928
-0.000311678
0.000408635
0.00171712
-0.000297061
0.000389219
0.00163044
-0.00028025
0.000366931
0.00154976
-0.000261693
0.000342372
0.00147546
-0.000241853
0.000316156
0.00140776
-0.000221189
0.00028889
0.00134674
-0.000200141
0.000261158
0.00129236
-0.000179124
0.000233505
0.00124445
-0.000158512
0.000206424
0.00120274
-0.000138634
0.000180343
0.00116688
-0.000119765
0.000155622
0.00113646
-0.000102123
0.000132543
0.00111102
-8.58717e-05
0.000111317
0.00109006
-7.11177e-05
9.20804e-05
0.00107307
-5.79199e-05
7.49075e-05
0.00105955
-4.62967e-05
5.98183e-05
0.00104899
-3.62123e-05
4.67641e-05
0.00104098
-2.75706e-05
3.55875e-05
0.00103505
-2.02707e-05
2.61993e-05
0.00103082
-1.42286e-05
1.84595e-05
0.00102794
-9.32202e-06
1.22045e-05
0.00102609
-5.42101e-06
7.26149e-06
0.00102503
-2.39009e-06
3.45197e-06
0.00102452
-7.0246e-08
5.87494e-07
0.00102437
1.52125e-06
-1.37615e-06
0.00102443
2.61112e-06
-2.6737e-06
0.00102458
3.27936e-06
-3.42443e-06
0.00102471
3.60815e-06
-3.74213e-06
0.00102476
3.66244e-06
-3.71415e-06
0.00102467
3.49321e-06
-3.40325e-06
0.00102437
3.13443e-06
-2.82879e-06
0.0010238
2.63011e-06
-2.06293e-06
0.00102295
1.97957e-06
-1.13059e-06
0.00102183
1.19842e-06
-7.75164e-08
0.00102028
3.24991e-07
1.22436e-06
0.00101835
-7.12122e-07
2.64878e-06
0.00101597
-1.88523e-06
4.25878e-06
0.0010131
-3.20328e-06
6.07305e-06
0.00100968
-4.69782e-06
8.12151e-06
0.00100563
-6.4002e-06
1.04453e-05
0.00100089
-8.34876e-06
1.30943e-05
0.000995348
-1.05902e-05
1.61294e-05
0.000988905
-1.31807e-05
1.96241e-05
0.000981427
-1.61888e-05
2.36674e-05
0.000972756
-1.96987e-05
2.83687e-05
0.000962708
-2.38137e-05
3.38621e-05
0.000951056
-2.86628e-05
4.03144e-05
0.00093753
-3.44077e-05
4.79343e-05
0.000921797
-4.12544e-05
5.6987e-05
0.000903453
-4.94667e-05
6.78113e-05
0.000881993
-5.93897e-05
8.08496e-05
0.000856791
-7.14807e-05
9.66823e-05
0.00082705
-8.6329e-05
0.00011607
0.000791775
-0.000104827
0.000140102
0.000749679
-0.000127759
0.000169855
0.000699015
-0.000157733
0.000208397
0.000637954
-0.000193517
0.000254579
0.000562366
-0.000246941
0.000322529
0.000473332
-0.000296758
0.000385792
0.000357367
-0.000396424
0.00051239
0.000237609
-0.000433283
0.000553041
8.48666e-05
-0.000518021
0.000670763
-0.000352335
0.000437202
-0.000386966
0.000146313
0.000531843
0.000901986
0.00121864
0.00150979
0.00177373
0.0020128
0.00222883
0.00242254
0.00259476
0.00274625
0.00287776
0.00299
0.00308367
0.00315941
0.00321783
0.00325949
0.00328499
0.00329494
0.00328991
0.00327054
0.00323771
0.00319218
0.0031349
0.00306689
0.00298925
0.00290319
0.00280995
0.00271084
0.00260721
0.00250039
0.00239174
0.00228257
0.00217412
0.00206759
0.00196404
0.00186446
0.00176967
0.00168038
0.00159713
0.00152032
0.0014502
0.00138687
0.00133031
0.00128037
0.00123678
0.00119922
0.00116727
0.00114048
0.00111836
0.00110039
0.00108606
0.0010749
0.00106641
0.00106018
0.0010558
0.00105291
0.00105119
0.00105036
0.00105021
0.00105051
0.00105111
0.00105186
0.00105268
0.00105347
0.00105416
0.0010547
0.00105506
0.00105516
0.00105497
0.0010545
0.00105364
0.00105237
0.00105066
0.00104843
0.00104561
0.00104214
0.00103791
0.0010328
0.00102669
0.00101941
0.00101076
0.00100051
0.000988362
0.000973972
0.000956897
0.000936592
0.000912367
0.00088334
0.000848374
0.000806021
0.000754167
0.000690771
0.000610835
0.00051513
0.000388907
0.000254493
9.33456e-05
-0.000328322
0.00262688
-0.00295119
1.03194e-05
0.00263986
-0.0029785
0.000314889
0.00190512
-0.00220969
0.00061893
0.00183428
-0.00213832
0.000890029
0.0015739
-0.001845
0.00114554
0.00144942
-0.00170494
0.00137745
0.00131456
-0.00154647
0.00158968
0.00119152
-0.00140375
0.00178149
0.00107686
-0.00126868
0.00195367
0.000965771
-0.00113795
0.00210685
0.000858665
-0.00101185
0.00224168
0.000755411
-0.000890243
0.00235886
0.000655857
-0.000773036
0.00245906
0.000559897
-0.000660095
0.0025429
0.000467352
-0.000551191
0.00261095
0.000378013
-0.000446059
0.00266372
0.000291683
-0.000344459
0.00270172
0.000208243
-0.00024624
0.00272542
0.000127677
-0.00015138
0.00273532
5.00684e-05
-5.99652e-05
0.00273198
-2.45887e-05
2.79314e-05
0.002716
-9.58659e-05
0.000111838
0.00268802
-0.000163173
0.000191158
0.00264885
-0.000226407
0.000265581
0.00259933
-0.000284991
0.000334504
0.00254043
-0.000338459
0.000397361
0.00247317
-0.000386374
0.000453635
0.00239866
-0.000428345
0.000502859
0.00231805
-0.000464043
0.000544647
0.00223256
-0.000493217
0.000578705
0.00214342
-0.000515703
0.000604845
0.00205186
-0.00053144
0.000623
0.0019591
-0.000540478
0.000633239
0.00186632
-0.000542981
0.000635762
0.00177464
-0.000539223
0.000630908
0.00168508
-0.000529594
0.000619148
0.00159859
-0.000514577
0.000601069
0.00151598
-0.00049475
0.00057736
0.00143794
-0.000470762
0.000548803
0.00136502
-0.000443319
0.000516241
0.00129762
-0.000413164
0.000480559
0.00123602
-0.000381053
0.000442654
0.00118034
-0.000347731
0.000403408
0.00113059
-0.000313912
0.000363661
0.00108666
-0.00028026
0.000324194
0.00104833
-0.000247371
0.000285701
0.00101531
-0.000215763
0.000248786
0.000987229
-0.000185865
0.000213944
0.000963679
-0.000158015
0.000181566
0.000944209
-0.000132461
0.000151931
0.000928354
-0.000109363
0.000125218
0.000915635
-8.88043e-05
0.000101523
0.000905567
-7.07945e-05
8.08632e-05
0.000897753
-5.52525e-05
6.30663e-05
0.000891763
-4.20321e-05
4.8022e-05
0.000887211
-3.09772e-05
3.55287e-05
0.00088377
-2.19165e-05
2.53576e-05
0.000881151
-1.46452e-05
1.72646e-05
0.000879104
-8.95053e-06
1.09969e-05
0.000877419
-4.61658e-06
6.30152e-06
0.000875908
-1.41795e-06
2.92966e-06
0.00087446
7.60047e-07
6.8768e-07
0.000872976
2.10298e-06
-6.19172e-07
0.000871335
2.82245e-06
-1.18123e-06
0.000869486
3.02421e-06
-1.17529e-06
0.000867385
2.81998e-06
-7.18704e-07
0.000865027
2.27446e-06
8.32176e-08
0.000862284
1.45106e-06
1.29165e-06
0.000859138
4.16109e-07
2.73019e-06
0.000855603
-8.65362e-07
4.40095e-06
0.000851662
-2.34059e-06
6.28162e-06
0.000847243
-3.99488e-06
8.41322e-06
0.000842318
-5.85799e-06
1.07827e-05
0.000836849
-7.94826e-06
1.34177e-05
0.000830787
-1.02885e-05
1.63507e-05
0.000824076
-1.29182e-05
1.96285e-05
0.000816655
-1.5888e-05
2.33097e-05
0.000808448
-1.92586e-05
2.7465e-05
0.000799372
-2.31041e-05
3.21805e-05
0.000789326
-2.75133e-05
3.75591e-05
0.000778195
-3.25946e-05
4.37258e-05
0.000765843
-3.84798e-05
5.08321e-05
0.00075211
-4.53308e-05
5.90636e-05
0.000736809
-5.33483e-05
6.86495e-05
0.000719717
-6.27827e-05
7.98746e-05
0.00070057
-7.39519e-05
9.30986e-05
0.000679054
-8.72595e-05
0.000108776
0.000654789
-0.000103233
0.000127498
0.000627323
-0.000122556
0.000150022
0.000596096
-0.000146137
0.000177364
0.000560484
-0.000175206
0.000210818
0.000519603
-0.000211196
0.000252078
0.000472824
-0.000257182
0.00030396
0.000418498
-0.000312973
0.000367299
0.000356455
-0.000392091
0.000454134
0.000285513
-0.000467871
0.000538813
0.000204872
-0.000612289
0.00069293
0.000125876
-0.000652221
0.000731217
1.78721e-05
-0.000793474
0.000901478
-0.000463264
0.000481137
-0.000332388
5.12513e-05
0.000376777
0.00069595
0.000975769
0.00123729
0.00147426
0.00169033
0.00188551
0.00206059
0.00221629
0.00235327
0.00247223
0.00257384
0.00265874
0.0027275
0.00278068
0.00281877
0.00284229
0.00285177
0.00284777
0.00283081
0.00280169
0.00276116
0.00271006
0.00264937
0.00258011
0.00250339
0.00242039
0.00233232
0.00224041
0.00214592
0.00205008
0.00195408
0.00185907
0.0017661
0.00167613
0.00159001
0.00150847
0.00143208
0.00136129
0.00129639
0.00123755
0.0011848
0.00113804
0.00109709
0.00106167
0.00103143
0.00100596
0.000984814
0.000967531
0.000953635
0.000942658
0.00093417
0.000927725
0.000922948
0.000919491
0.00091705
0.000915361
0.000914196
0.000913366
0.00091275
0.000912179
0.000911577
0.000910859
0.000909965
0.000908836
0.000907458
0.000905812
0.000903816
0.000901398
0.000898627
0.000895418
0.000891728
0.000887513
0.000882716
0.000877273
0.000871109
0.000864134
0.000856245
0.000847318
0.000837207
0.000825738
0.000812704
0.000797856
0.000780891
0.000761443
0.00073906
0.000713186
0.000683119
0.000648014
0.000606673
0.000557888
0.000499495
0.000429932
0.000347853
0.000247954
0.000148773
2.60629e-05
-0.000295708
0.00320336
-0.003428
-6.2616e-05
0.00324163
-0.00347472
0.000178055
0.00246346
-0.00270413
0.000418453
0.00239251
-0.0026329
0.00064099
0.00207502
-0.00229756
0.000852948
0.0019241
-0.00213606
0.00104654
0.00174489
-0.00193848
0.00122449
0.00158625
-0.00176421
0.00138527
0.00143338
-0.00159416
0.00152953
0.00128571
-0.00142997
0.00165774
0.00114316
-0.00127136
0.00177041
0.00100564
-0.00111831
0.00186816
0.000873139
-0.000970888
0.00195157
0.000745498
-0.00082891
0.00202117
0.000622435
-0.000692038
0.00207744
0.000503634
-0.000559899
0.00212079
0.000388808
-0.000432162
0.00215163
0.00027778
-0.000308619
0.00217034
0.000170526
-0.000189242
0.00217741
6.71866e-05
-7.4251e-05
0.00217332
-3.21946e-05
3.62854e-05
0.00215833
-0.000127084
0.000142069
0.0021334
-0.000216714
0.000241641
0.0020991
-0.000300752
0.000335057
0.00205621
-0.000378517
0.000421411
0.00200558
-0.000449357
0.000499979
0.00194817
-0.000512677
0.000570092
0.00188496
-0.000567952
0.000631163
0.00181699
-0.000614743
0.000682713
0.00174533
-0.000652725
0.000724384
0.00167106
-0.000681693
0.000755962
0.00159525
-0.000701585
0.000777391
0.00151895
-0.000712488
0.000788787
0.00144316
-0.000714647
0.000790442
0.0013688
-0.000708467
0.000782823
0.00129675
-0.000694502
0.000766559
0.00122774
-0.000673432
0.000742437
0.00116243
-0.000646059
0.000711372
0.00110132
-0.000613283
0.000674385
0.00104483
-0.000576074
0.000632572
0.000993198
-0.000535446
0.000587074
0.000946583
-0.000492422
0.000539036
0.000905007
-0.000448001
0.000489577
0.000868389
-0.000403136
0.000439754
0.000836554
-0.000358701
0.000390535
0.000809248
-0.000315476
0.000342783
0.000786149
-0.000274132
0.000297231
0.000766885
-0.000235219
0.000254483
0.00075105
-0.000199164
0.000214999
0.000738213
-0.000166271
0.000179107
0.00072794
-0.000136728
0.000147002
0.000719802
-0.000110624
0.000118762
0.000713422
-8.79722e-05
9.43521e-05
0.000708382
-6.85706e-05
7.36108e-05
0.00070432
-5.22816e-05
5.63439e-05
0.000700952
-3.88526e-05
4.22207e-05
0.000698027
-2.8014e-05
3.09382e-05
0.000695332
-1.94841e-05
2.21798e-05
0.000692689
-1.29746e-05
1.56178e-05
0.000689957
-8.19769e-06
1.09293e-05
0.000687023
-4.86941e-06
7.80316e-06
0.000683815
-2.76541e-06
5.9738e-06
0.000680271
-1.65809e-06
5.20191e-06
0.000676344
-1.3464e-06
5.27333e-06
0.000672006
-1.66097e-06
5.99865e-06
0.000667229
-2.46246e-06
7.23997e-06
0.000662
-3.66807e-06
8.89688e-06
0.000656276
-5.24228e-06
1.09661e-05
0.000650035
-7.09858e-06
1.33395e-05
0.000643259
-9.21621e-06
1.5992e-05
0.000635923
-1.15796e-05
1.89165e-05
0.000627993
-1.42117e-05
2.21414e-05
0.000619434
-1.71182e-05
2.56768e-05
0.000610207
-2.03298e-05
2.95567e-05
0.000600266
-2.38849e-05
3.38261e-05
0.000589558
-2.78371e-05
3.85454e-05
0.000578022
-3.2253e-05
4.37882e-05
0.000565592
-3.72125e-05
4.96425e-05
0.00055219
-4.28126e-05
5.62147e-05
0.000537729
-4.91683e-05
6.363e-05
0.000522108
-5.64192e-05
7.20401e-05
0.000505214
-6.47343e-05
8.16276e-05
0.00048692
-7.43192e-05
9.26138e-05
0.000467078
-8.54274e-05
0.00010527
0.000445522
-9.83722e-05
0.000119928
0.000422065
-0.000113547
0.000137004
0.000396497
-0.000131448
0.000157015
0.000368586
-0.000152713
0.000180624
0.000338082
-0.000178156
0.00020866
0.000304731
-0.000208858
0.000242209
0.000268328
-0.000246145
0.000282547
0.00022858
-0.000291867
0.000331616
0.000185984
-0.000348455
0.000391051
0.000139653
-0.000417839
0.000464169
9.48241e-05
-0.000508369
0.000553199
4.62521e-05
-0.000600603
0.000649175
1.73195e-05
-0.00074961
0.000778542
-1.46033e-05
-0.000789958
0.000821881
-2.51052e-05
-0.000957082
0.000967584
-0.00043787
0.000412765
-0.000287857
-2.47295e-05
0.000229036
0.000483218
0.000713239
0.000932399
0.00113082
0.00131332
0.00147803
0.00162579
0.0017571
0.00187249
0.0019726
0.002058
0.00212924
0.00218682
0.00223117
0.00226271
0.00228185
0.00228907
0.00228481
0.00226957
0.00224401
0.00220884
0.00216483
0.00211283
0.00205379
0.00198869
0.0019186
0.00184458
0.00176773
0.00168915
0.0016099
0.00153101
0.00145345
0.0013781
0.00130574
0.00123704
0.00117256
0.00111273
0.00105784
0.00100807
0.000963477
0.000924003
0.000889496
0.000859721
0.000834374
0.000813099
0.000795501
0.000781161
0.000769651
0.00076055
0.000753441
0.000747936
0.000743677
0.000740353
0.000737696
0.000735477
0.000733499
0.000731603
0.000729663
0.000727586
0.000725308
0.000722781
0.000719945
0.000716763
0.000713179
0.000709228
0.000704859
0.000700044
0.000694746
0.000688948
0.000682612
0.0006757
0.000668166
0.000659957
0.000651014
0.000641267
0.000630635
0.000619025
0.000606332
0.00059243
0.000577174
0.000560396
0.000541899
0.00052145
0.000498778
0.000473563
0.000445429
0.000413936
0.000378609
0.000338819
0.000294324
0.000243785
0.00018955
0.000127759
7.10798e-05
1.2338e-05
-4.32662e-05
-0.000887463
0.010534
-0.0103036
-0.00111854
0.0105251
-0.010294
-0.00135047
0.010512
-0.01028
-0.00158366
0.0105025
-0.0102693
-0.00181823
0.0104983
-0.0102638
-0.00205459
0.0105005
-0.0102641
-0.00229317
0.0105102
-0.0102716
-0.00253459
0.010529
-0.0102876
-0.0027796
0.010559
-0.010314
-0.00302885
0.0106022
-0.010353
-0.0032814
0.0106581
-0.0104055
-0.00352919
0.0107155
-0.0104677
-0.00374282
0.0107304
-0.0105168
-0.00384429
0.010579
-0.0104775
-0.00368353
0.010006
-0.0101668
-0.00307789
0.00864138
-0.00924701
-0.00198722
0.00615515
-0.00724582
-0.000772975
0.0027992
-0.00401345
-0.000100345
0.000219605
-0.000892236
-0.000521454
0.000421109
-0.000893249
0.0107631
-0.00112557
0.0107574
-0.00135772
0.0107441
-0.00159165
0.0107364
-0.00182676
0.0107334
-0.00206375
0.0107375
-0.00230289
0.0107493
-0.00254472
0.0107708
-0.00278948
0.0108038
-0.00303608
0.0108488
-0.00327851
0.0109005
-0.0034971
0.0109341
-0.00364242
0.0108757
-0.00361874
0.0105553
-0.00328731
0.00967459
-0.00253857
0.00789264
-0.0014485
0.00506507
-0.000479971
0.00183068
-3.54464e-05
-0.00022492
-0.0005569
-0.000916742
0.01012
-0.00993576
-0.00110126
0.0101102
-0.00992565
-0.00128692
0.0100948
-0.00990914
-0.00147399
0.0100828
-0.00989568
-0.00166269
0.0100756
-0.00988689
-0.00185334
0.0100741
-0.00988344
-0.00204637
0.0100794
-0.00988634
-0.00224229
0.0100928
-0.00989684
-0.00244184
0.0101161
-0.0099166
-0.00264588
0.010152
-0.00994796
-0.00285484
0.0102027
-0.00999369
-0.00306657
0.010268
-0.0100563
-0.00327023
0.0103358
-0.0101321
-0.00343021
0.0103593
-0.0101993
-0.00346376
0.0102112
-0.0101777
-0.00322294
0.00961736
-0.00985818
-0.0025262
0.00808331
-0.00878005
-0.00131546
0.00518877
-0.00639951
-0.000272677
0.0016707
-0.00271348
-0.000280747
8.07039e-06
-0.000925015
-0.00110883
-0.00129408
-0.0014806
-0.00166877
-0.00185879
-0.00205103
-0.00224587
-0.00244373
-0.00264469
-0.00284756
-0.00304726
-0.00322823
-0.00334642
-0.00330199
-0.00293164
-0.00209415
-0.00091883
-0.000140362
-0.000904849
0.0098047
-0.00967255
-0.0010375
0.00979423
-0.00966158
-0.00117144
0.00977625
-0.0096423
-0.0013071
0.00976135
-0.00962569
-0.00144466
0.00975065
-0.0096131
-0.00158445
0.00974514
-0.00960534
-0.00172689
0.00974563
-0.00960319
-0.00187246
0.00975337
-0.00960781
-0.00202179
0.00976993
-0.0096206
-0.00217566
0.00979763
-0.00964376
-0.00233477
0.00983931
-0.0096802
-0.00249904
0.00989793
-0.00973365
-0.00266587
0.00997276
-0.00980594
-0.00282389
0.0100553
-0.00989725
-0.00294125
0.0100974
-0.00998008
-0.00292646
0.00995623
-0.00997103
-0.00260363
0.00923844
-0.00956126
-0.00175801
0.00734831
-0.00819393
-0.00057206
0.00373283
-0.00491878
0.000333127
-0.000905187
-0.000915095
-0.00104651
-0.00117941
-0.00131374
-0.00144998
-0.00158827
-0.00172898
-0.00187244
-0.0020191
-0.00216943
-0.00232381
-0.00248215
-0.0026415
-0.00278556
-0.00286577
-0.00276772
-0.00230934
-0.00136055
-0.000341198
-0.000853673
0.0095976
-0.00952103
-0.000931202
0.00958581
-0.00950828
-0.00101039
0.0095648
-0.00948561
-0.00109144
0.00954663
-0.00946558
-0.00117484
0.00953175
-0.00944836
-0.00126089
0.00952162
-0.00943557
-0.00135001
0.00951671
-0.00942758
-0.00144265
0.00951823
-0.00942558
-0.00153947
0.00952743
-0.00943061
-0.00164125
0.00954638
-0.0094446
-0.00174893
0.0095778
-0.00947012
-0.00186314
0.00962545
-0.00951124
-0.0019846
0.00969145
-0.00957
-0.00211108
0.00978028
-0.0096538
-0.00223621
0.00987492
-0.0097498
-0.00231539
0.00993731
-0.00985813
-0.00224785
0.0097202
-0.00978774
-0.00179555
0.00874138
-0.00919368
-0.000836432
0.00584915
-0.00680827
0.00147889
-0.00231532
-0.000865488
-0.000941258
-0.00101877
-0.00109783
-0.00117917
-0.0012629
-0.00134939
-0.00143897
-0.00153215
-0.00162952
-0.00173192
-0.00184012
-0.00195461
-0.00207157
-0.00217673
-0.00221045
-0.00205152
-0.00150407
-0.000573699
-0.000767357
0.00950355
-0.00948399
-0.000788568
0.00948928
-0.00946807
-0.000811943
0.0094646
-0.00944123
-0.000837715
0.00944231
-0.00941654
-0.000866222
0.00942268
-0.00939417
-0.000897861
0.00940703
-0.00937539
-0.00093311
0.00939582
-0.00936057
-0.000972506
0.0093902
-0.0093508
-0.00101671
0.00939109
-0.00934688
-0.00106664
0.00940017
-0.00935023
-0.00112352
0.0094199
-0.00936303
-0.00118848
0.00945418
-0.00938922
-0.00126347
0.00950502
-0.00943003
-0.00134909
0.00958014
-0.00949452
-0.00144774
0.00966953
-0.00957088
-0.00154536
0.00978754
-0.00968992
-0.00160569
0.00978111
-0.00972079
-0.00144819
0.00942028
-0.00957778
-0.000855456
0.00739889
-0.00799162
0.00295013
-0.00380558
-0.000780023
-0.000799027
-0.000820031
-0.0008433
-0.000868981
-0.000897525
-0.000929293
-0.000964677
-0.00100421
-0.00104864
-0.00109886
-0.00115592
-0.00122089
-0.00129455
-0.00137482
-0.00144541
-0.00145203
-0.00122543
-0.000634808
-0.00065218
0.00952347
-0.00956062
-0.000617665
0.00950507
-0.00953958
-0.000585447
0.0094763
-0.00950851
-0.00055627
0.00944857
-0.00947775
-0.000530189
0.00942355
-0.00944963
-0.000507888
0.0094013
-0.0094236
-0.00049003
0.00938273
-0.00940059
-0.000476776
0.0093688
-0.00938205
-0.000469088
0.00936012
-0.00936781
-0.000468315
0.0093577
-0.00935848
-0.000475677
0.00936389
-0.00935653
-0.000492962
0.00938175
-0.00936446
-0.000521995
0.00941359
-0.00938456
-0.00056717
0.00946423
-0.00941905
-0.000630207
0.00952863
-0.00946559
-0.000721289
0.00962323
-0.00953215
-0.000820902
0.00966028
-0.00956067
-0.000863941
0.00958171
-0.00953867
-0.000623196
0.0082262
-0.00846694
0.00423425
-0.00485745
-0.000664651
-0.000627651
-0.000592584
-0.000560554
-0.000531169
-0.000505258
-0.000483098
-0.0004651
-0.000451865
-0.000444395
-0.000443534
-0.000451008
-0.000467444
-0.000497735
-0.00053999
-0.000606672
-0.000667178
-0.000663249
-0.000428669
-0.000516117
0.00965488
-0.00974665
-0.000428363
0.00963015
-0.0097179
-0.000342906
0.00959746
-0.00968291
-0.00026082
0.00956314
-0.00964522
-0.000181463
0.00953238
-0.00961173
-0.000106214
0.0095025
-0.00957775
-3.5564e-05
0.00947546
-0.00954611
2.89397e-05
0.00945074
-0.00951524
8.57466e-05
0.00943028
-0.00948708
0.000134819
0.00941412
-0.00946319
0.000174557
0.00940433
-0.00944407
0.000202699
0.00940256
-0.0094307
0.000216635
0.00941177
-0.0094257
0.000210921
0.00942959
-0.00942388
0.000181931
0.00945977
-0.00943078
0.000109924
0.00948544
-0.00941343
1.21898e-05
0.00949272
-0.00939499
-0.000179206
0.0093864
-0.00919501
-0.000198858
0.00844056
-0.00842091
0.00487182
-0.00507068
-0.000527096
-0.000436528
-0.000347585
-0.000262198
-0.000179455
-0.000100557
-2.56817e-05
4.30002e-05
0.000105472
0.000161117
0.000208922
0.000247017
0.000274223
0.000284758
0.000278937
0.000232223
0.000164273
1.20098e-05
-1.43703e-05
-0.000369005
0.00989184
-0.0100313
-0.000232305
0.00985719
-0.00999389
-9.59102e-05
0.00982226
-0.00995866
3.50639e-05
0.00977971
-0.00991068
0.000159701
0.00974136
-0.00986599
0.000279375
0.00970305
-0.00982272
0.000393024
0.00966629
-0.00977994
0.00050014
0.00963013
-0.00973725
0.000599728
0.00959581
-0.0096954
0.000690254
0.00956435
-0.00965488
0.000770065
0.00953631
-0.00961612
0.000836853
0.00951206
-0.00957884
0.000886922
0.00949279
-0.00954286
0.000914574
0.00947173
-0.00949938
0.000909463
0.00944908
-0.00944397
0.000853912
0.00938618
-0.00933063
0.00072042
0.00929578
-0.00916228
0.000449437
0.00895747
-0.00868649
0.000128635
0.00813518
-0.00781438
0.00467661
-0.00454797
-0.000376041
-0.000236759
-9.74116e-05
3.70779e-05
0.000166701
0.000292001
0.000412181
0.00052707
0.000635798
0.00073696
0.000829202
0.000910561
0.000977648
0.0010255
0.0010438
0.00101655
0.000917337
0.000679799
0.000394068
0.00378759
3.71357e-06
-2.8859e-06
0.00378837
-1.09331e-07
-6.71778e-07
0.0037858
1.25298e-05
-9.96387e-06
0.0037857
1.00615e-05
-9.95837e-06
0.00378171
2.05296e-05
-1.65423e-05
0.00377957
2.95098e-05
-2.73692e-05
0.00377283
3.63803e-05
-2.96378e-05
0.00376628
6.82523e-05
-6.17027e-05
0.00375409
6.87707e-05
-5.65822e-05
0.00373806
0.000146588
-0.000130556
0.00371439
0.000138159
-0.00011449
0.00367786
0.000308996
-0.000272467
0.00362827
0.000293999
-0.000244408
0.0035454
0.000666566
-0.000583699
0.00343071
0.000675048
-0.000560353
0.00323128
0.00155567
-0.00135624
0.00292085
0.00177896
-0.00146853
0.00236625
0.00431921
-0.00376461
0.00136256
0.00607811
-0.00507441
0.015356
-0.0139934
0.0037876
4.52506e-06
0.0037883
-8.02369e-07
0.00378585
1.49795e-05
0.00378565
1.02607e-05
0.00378175
2.44265e-05
0.00377953
3.17266e-05
0.0037728
4.31136e-05
0.0037662
7.48476e-05
0.00375379
8.11811e-05
0.00373777
0.00016261
0.00371326
0.00016267
0.00367684
0.000345412
0.00362478
0.000346064
0.00354226
0.000749081
0.00342082
0.000796489
0.0032231
0.00175339
0.00289592
0.00210614
0.00235802
0.00485711
0.00135196
0.00708417
0.0167079
0.00432155
2.14569e-06
-1.52796e-06
0.00432178
1.13534e-06
-1.364e-06
0.00431977
7.65315e-06
-5.64444e-06
0.0043187
9.23675e-06
-8.16279e-06
0.00431548
1.28901e-05
-9.67041e-06
0.00431181
2.41926e-05
-2.0527e-05
0.00430622
2.33781e-05
-1.77839e-05
0.0042973
5.34489e-05
-4.45316e-05
0.0042869
4.51156e-05
-3.47111e-05
0.00426724
0.000111763
-9.21055e-05
0.00424654
9.19887e-05
-7.12893e-05
0.00420449
0.000231505
-0.000189451
0.00416049
0.000197057
-0.000153057
0.00406911
0.000493785
-0.000402407
0.00396721
0.000451394
-0.000349496
0.00375365
0.00114612
-0.000932556
0.00348194
0.00117997
-0.000908259
0.00288624
0.00319366