/*--------------------------------*- C++ -*----------------------------------*\
  =========                 |
  \\      /  F ield         | OpenFOAM: The Open Source CFD Toolbox
   \\    /   O peration     | Website:  https://openfoam.org
    \\  /    A nd           | Version:  7
     \\/     M anipulation  |
\*---------------------------------------------------------------------------*/
FoamFile
{
    version     2.0;
    format      ascii;
    class       surfaceScalarField;
    location    "60";
    object      phi;
}
// * * * * * * * * * * * * * * * * * * * * * * * * * * * * * * * * * * * * * //

dimensions      [0 3 -1 0 0 0 0];

internalField   nonuniform List<scalar> 
225
(
9.17752e-05
0.000285239
8.19562e-05
0.000272685
7.07292e-05
0.000260212
5.77246e-05
0.000248051
4.25688e-05
0.000236449
2.49032e-05
0.000225654
4.40087e-06
0.000215905
-1.92067e-05
0.000207411
-4.61476e-05
0.000200354
-7.65805e-05
0.000194856
-0.000110604
0.000190994
0.000188795
-0.000309283
0.000345739
-0.000312857
0.000336152
-0.000317493
0.00032611
-0.000323459
0.000315763
-0.000331067
0.000305277
-0.000340662
0.000294834
-0.000352613
0.000284636
-0.000367299
0.000274898
-0.00038509
0.000265842
-0.000406331
0.00025769
-0.000431327
0.00025065
-0.00046033
0.000244908
-0.000493534
0.000240614
-0.000531064
0.000237884
-0.000572991
0.000236783
-0.000619332
0.000237336
0.000239528
-0.00078066
0.000346829
-0.000783667
0.000339159
-0.00078891
0.000331353
-0.000796735
0.000323588
-0.000807508
0.000316049
-0.0008216
0.000308926
-0.000839381
0.000302417
-0.0008612
0.000296716
-0.000887373
0.000292015
-0.000918169
0.000288487
-0.000953805
0.000286286
-0.000994437
0.00028554
-0.00104016
0.000286338
-0.00109102
0.000288741
-0.001147
0.000292769
-0.00120808
0.000298411
0.00030563
-0.0012918
0.000349752
-0.00129787
0.000345222
-0.00130743
0.00034092
-0.00132087
0.000337026
-0.00133854
0.000333718
-0.00136078
0.000331169
-0.00138792
0.000329548
-0.00142021
0.000329011
-0.0014579
0.000329701
-0.00150115
0.00033174
-0.00155009
0.000335226
-0.00160478
0.000340233
-0.00166525
0.000346804
-0.00173147
0.00035496
-0.00180339
0.000364691
-0.00188095
0.000375972
0.000388756
-0.00185269
0.000358172
-0.00186545
0.000357976
-0.00188289
0.000358362
-0.00190535
0.00035949
-0.00193315
0.000361512
-0.00196654
0.000364566
-0.00200577
0.000368779
-0.00205102
0.000374263
-0.00210243
0.00038111
-0.00216009
0.000389394
-0.00222403
0.000399169
-0.00229427
0.000410469
-0.00237077
0.000423305
-0.00245348
0.000437674
-0.00254234
0.000453553
-0.00263728
0.00047091
0.000489701
-0.0024721
0.00037523
-0.0024945
0.00038037
-0.00252253
0.000386396
-0.00255648
0.000393434
-0.00259656
0.000401599
-0.00264299
0.000410989
-0.00269589
0.000421687
-0.00275539
0.000433761
-0.00282155
0.000447265
-0.00289439
0.000462232
-0.0029739
0.000478685
-0.00306006
0.00049663
-0.00315282
0.00051606
-0.0032521
0.000536955
-0.00335783
0.000559288
-0.00346995
0.000583021
0.000608113
-0.00315428
0.000402944
-0.00318805
0.000414136
-0.00322811
0.000426451
-0.00327465
0.000439979
-0.00332785
0.000454795
-0.00338782
0.000470959
-0.00345465
0.000488517
-0.00352839
0.0005075
-0.00360905
0.000527928
-0.00369662
0.000549808
-0.00379107
0.000573135
-0.00389234
-0.00400035
-0.00411501
-0.00423623
-0.0043639
-0.00389636
-0.00394179
-0.00399386
-0.00405272
-0.00411846
-0.00419115
-0.00427084
-0.00435753
-0.0044512
-0.0045518
)
;

boundaryField
{
    inlet
    {
        type            calculated;
        value           nonuniform 0();
    }
    outlet
    {
        type            calculated;
        value           nonuniform 0();
    }
    polygon
    {
        type            calculated;
        value           nonuniform 0();
    }
    top
    {
        type            symmetryPlane;
        value           uniform 0;
    }
    bottom
    {
        type            symmetryPlane;
        value           uniform 0;
    }
    outside
    {
        type            calculated;
        value           nonuniform 0();
    }
    procBoundary13to5
    {
        type            processor;
        value           nonuniform List<scalar> 
18
(
0.000597896
0.000624068
0.000651618
0.000680508
0.000710693
0.000742124
0.00044192
0.000459572
0.000478525
0.000498833
0.000520534
0.000543655
0.000568207
0.000594191
0.000621598
0.000650407
-0.00465926
0.000680592
)
;
    }
    procBoundary13to6
    {
        type            processor;
        value           uniform 0.00385738;
    }
    procBoundary13to12
    {
        type            processor;
        value           nonuniform List<scalar> 6(-0.000670065 -0.00127418 -0.00196408 -0.00273823 -0.00358836 -0.00449791);
    }
    procBoundary13to14
    {
        type            processor;
        value           nonuniform List<scalar> 6(0.000306547 0.00077957 0.00128888 0.00184427 0.00245505 0.00312657);
    }
    procBoundary13to20
    {
        type            processor;
        value           uniform -0.000148263;
    }
    procBoundary13to21
    {
        type            processor;
        value           nonuniform List<scalar> 
18
(
-0.00027648
-0.000262866
-0.000248985
-0.000235047
-0.000221293
-0.000207988
-0.000195403
-0.000183803
-0.000173413
-0.000164423
-0.000156971
-0.000151136
-0.000343003
-0.000332578
-0.000321474
-0.000309796
-0.000100534
-0.000297669
)
;
    }
}


// ************************************************************************* //
