/*--------------------------------*- C++ -*----------------------------------*\
  =========                 |
  \\      /  F ield         | OpenFOAM: The Open Source CFD Toolbox
   \\    /   O peration     | Website:  https://openfoam.org
    \\  /    A nd           | Version:  7
     \\/     M anipulation  |
\*---------------------------------------------------------------------------*/
FoamFile
{
    version     2.0;
    format      ascii;
    class       volVectorField;
    location    "52";
    object      U;
}
// * * * * * * * * * * * * * * * * * * * * * * * * * * * * * * * * * * * * * //

dimensions      [0 1 -1 0 0 0 0];

internalField   nonuniform List<vector> 
7360
(
(-0.478919 -0.000130972 1.23986e-19)
(-0.479397 -0.000379359 8.27351e-19)
(-0.480546 -0.00117514 8.01593e-19)
(-0.483292 -0.00188256 4.74926e-18)
(-0.487194 -0.00253001 -1.59134e-18)
(-0.492062 -0.00307939 4.32979e-18)
(-0.497715 -0.00349868 4.85384e-18)
(-0.503897 -0.0037908 -3.09079e-18)
(-0.510381 -0.00395351 6.33136e-18)
(-0.516946 -0.00398093 1.31377e-17)
(-0.523366 -0.00386733 2.39415e-18)
(-0.529418 -0.00360955 9.00521e-18)
(-0.534882 -0.00321011 8.64172e-18)
(-0.539553 -0.00267874 1.35795e-17)
(-0.54325 -0.00203229 3.39542e-18)
(-0.54582 -0.00129178 1.03119e-17)
(-0.54715 -0.000482197 3.16112e-17)
(-0.547159 0.000374632 -2.95448e-18)
(-0.5458 0.00125602 1.31077e-17)
(-0.543056 0.00214384 3.18319e-17)
(-0.538936 0.00302334 6.92169e-19)
(-0.533465 0.00388252 1.78653e-18)
(-0.526686 0.00471139 1.9707e-17)
(-0.518653 0.00550105 -1.355e-18)
(-0.509435 0.00624293 3.42306e-18)
(-0.499114 0.00692834 1.62787e-17)
(-0.487784 0.00754836 3.70947e-18)
(-0.475554 0.00809403 1.08892e-17)
(-0.462546 0.00855677 2.16122e-17)
(-0.448896 0.0089288 2.79619e-18)
(-0.434749 0.00920362 5.98763e-18)
(-0.420261 0.00937648 3.79284e-18)
(-0.405592 0.00944472 -4.5559e-19)
(-0.390906 0.00940814 2.89416e-18)
(-0.376364 0.00926938 1.26034e-18)
(-0.362122 0.00903403 7.59098e-19)
(-0.348323 0.00871067 1.2247e-18)
(-0.335095 0.00831039 6.12371e-19)
(-0.322548 0.00784618 3.00795e-19)
(-0.310769 0.00733206 1.742e-19)
(-0.299824 0.00678217 3.14034e-20)
(-0.289757 0.00621008 -2.22127e-18)
(-0.280593 0.00562829 -6.68503e-19)
(-0.272334 0.00504795 -2.42541e-19)
(-0.264972 0.00447879 -3.69542e-21)
(-0.25848 0.00392912 1.80754e-18)
(-0.252822 0.00340587 -3.49273e-18)
(-0.247951 0.00291467 -6.10748e-20)
(-0.243811 0.00245989 1.36005e-18)
(-0.240341 0.00204413 -4.2435e-18)
(-0.237478 0.00167062 -1.33634e-18)
(-0.235155 0.0013409 1.27995e-18)
(-0.233308 0.00105415 2.4277e-19)
(-0.231872 0.000808657 -1.12398e-18)
(-0.230783 0.000601957 3.03112e-19)
(-0.229985 0.000430989 -6.08116e-19)
(-0.229425 0.000292277 -2.77199e-19)
(-0.229055 0.000182028 -1.92314e-18)
(-0.228836 9.6312e-05 -1.0478e-18)
(-0.228731 3.12993e-05 -1.35032e-19)
(-0.228713 -1.90275e-05 -1.39359e-18)
(-0.228757 -5.43513e-05 -1.27084e-18)
(-0.228841 -7.87658e-05 -2.8937e-19)
(-0.22895 -9.39842e-05 4.89146e-20)
(-0.229073 -0.000101156 4.77069e-19)
(-0.2292 -0.000101644 5.19085e-19)
(-0.229322 -9.66224e-05 -3.25179e-19)
(-0.229433 -8.70961e-05 -7.8096e-20)
(-0.229525 -7.41005e-05 1.25425e-19)
(-0.229592 -5.7718e-05 5.10821e-20)
(-0.229625 -3.58085e-05 -6.90901e-20)
(-0.229621 -4.76704e-06 -2.90151e-19)
(-0.229568 2.82008e-05 -1.86497e-19)
(-0.229457 6.53957e-05 -6.73536e-19)
(-0.229277 0.000110303 8.39647e-20)
(-0.229016 0.000164081 -1.02811e-19)
(-0.22866 0.000228067 -6.86683e-19)
(-0.22819 0.000303929 -4.20799e-20)
(-0.227587 0.000393686 3.9371e-19)
(-0.226828 0.000499755 -4.69635e-19)
(-0.225885 0.000625087 -3.29275e-19)
(-0.224725 0.000773304 2.42004e-19)
(-0.22331 0.000948894 -3.08157e-18)
(-0.221594 0.00115749 -1.72427e-18)
(-0.219521 0.00140619 -1.90092e-18)
(-0.217023 0.00170416 2.49013e-19)
(-0.214016 0.00206322 -5.90412e-19)
(-0.210401 0.00249891 2.94635e-18)
(-0.206036 0.00303224 4.45532e-18)
(-0.200789 0.00368976 2.62775e-19)
(-0.19437 0.00451519 7.76041e-18)
(-0.18669 0.00554013 2.46792e-18)
(-0.176976 0.00690224 3.42701e-18)
(-0.165659 0.00850235 2.71205e-18)
(-0.150243 0.0109505 -1.09702e-18)
(-0.133279 0.0132021 1.25085e-19)
(-0.108494 0.0177849 3.48495e-18)
(-0.0813513 0.0197745 -3.27079e-18)
(-0.0465206 0.0235497 4.63975e-18)
(-0.0106308 0.0173663 -1.36172e-19)
(-0.48637 -4.05987e-05 -2.44685e-19)
(-0.48674 -0.000121691 4.1959e-19)
(-0.487713 -0.000378937 -1.26156e-18)
(-0.490112 -0.000611094 -4.49303e-19)
(-0.493593 -0.000824289 8.15156e-19)
(-0.497991 -0.00100738 -5.07409e-18)
(-0.503162 -0.00114955 2.97371e-18)
(-0.508892 -0.0012512 -1.08338e-18)
(-0.514982 -0.00131098 5.19435e-18)
(-0.521228 -0.00132615 -6.36557e-19)
(-0.527416 -0.00129406 1.52709e-18)
(-0.533319 -0.00121298 -2.27975e-18)
(-0.538713 -0.00108326 -2.47022e-18)
(-0.543377 -0.000907855 -5.37148e-19)
(-0.547117 -0.000692279 -4.47896e-18)
(-0.549763 -0.000443608 -5.62778e-18)
(-0.551189 -0.00017045 -2.15867e-18)
(-0.551301 0.00012011 -1.4804e-17)
(-0.550042 0.000419817 9.01963e-18)
(-0.547391 0.000722351 1.68619e-17)
(-0.54335 0.00102261 -1.73081e-18)
(-0.53794 0.00131636 4.859e-18)
(-0.531203 0.00160006 4.86406e-18)
(-0.523193 0.00187055 6.12063e-18)
(-0.513978 0.00212479 -1.04945e-17)
(-0.503639 0.00235971 1.48807e-17)
(-0.492271 0.0025722 1.27329e-17)
(-0.479985 0.00275911 1.09716e-17)
(-0.466903 0.00291746 1.21255e-17)
(-0.453162 0.00304458 4.7661e-18)
(-0.438911 0.00313824 1.10265e-18)
(-0.424305 0.00319684 -4.26928e-18)
(-0.409507 0.00321951 -2.11785e-18)
(-0.394684 0.00320623 2.28958e-18)
(-0.379999 0.00315796 4.53387e-18)
(-0.365608 0.00307667 9.78855e-19)
(-0.351659 0.00296535 1.01132e-18)
(-0.33828 0.00282783 4.2913e-19)
(-0.325584 0.00266859 4.25105e-19)
(-0.31366 0.00249245 2.20918e-19)
(-0.302575 0.00230423 -2.02716e-19)
(-0.292374 0.00210859 -1.18896e-18)
(-0.283082 0.00190977 -1.74739e-18)
(-0.274704 0.00171157 4.1432e-19)
(-0.267231 0.00151728 1.11068e-19)
(-0.260638 0.0013297 2.31846e-18)
(-0.254888 0.0011512 -1.65228e-18)
(-0.249934 0.000983659 1.19163e-18)
(-0.245722 0.000828594 6.40702e-19)
(-0.24219 0.00068681 -1.12492e-18)
(-0.239275 0.000558426 -1.70997e-19)
(-0.236912 0.000444822 1.51669e-18)
(-0.235035 0.000345865 2.4481e-18)
(-0.233578 0.00026096 -2.48329e-18)
(-0.232479 0.000189272 -2.42495e-18)
(-0.231679 0.000129777 -2.09384e-18)
(-0.231126 8.13252e-05 -3.97873e-19)
(-0.230772 4.26736e-05 -2.33688e-18)
(-0.230574 1.25627e-05 1.29802e-18)
(-0.230498 -1.01352e-05 1.32135e-18)
(-0.230514 -2.76601e-05 -1.22818e-18)
(-0.230596 -4.06424e-05 -1.85304e-18)
(-0.230723 -4.9234e-05 -3.31974e-19)
(-0.230879 -5.46983e-05 1.04177e-18)
(-0.231053 -5.79912e-05 3.35935e-19)
(-0.231233 -5.96063e-05 1.81293e-19)
(-0.231412 -5.97491e-05 3.01744e-19)
(-0.231581 -5.8236e-05 -2.57133e-19)
(-0.231734 -5.44057e-05 1.43742e-19)
(-0.231865 -4.84438e-05 1.00529e-19)
(-0.231966 -4.16797e-05 5.85477e-20)
(-0.232031 -3.46119e-05 -4.30532e-19)
(-0.23205 -2.33037e-05 -2.0135e-19)
(-0.232014 -1.21735e-05 -2.13569e-19)
(-0.231911 1.52234e-06 -7.2891e-19)
(-0.23173 1.83373e-05 -9.25036e-19)
(-0.231454 3.8681e-05 -1.507e-18)
(-0.231068 6.31124e-05 -1.2655e-19)
(-0.230551 9.23235e-05 3.88202e-19)
(-0.229879 0.000127149 4.84886e-20)
(-0.229023 0.000168609 -1.18547e-19)
(-0.227952 0.000217958 2.28351e-18)
(-0.226625 0.000276749 -3.02572e-19)
(-0.224995 0.000346928 -2.67035e-18)
(-0.223004 0.000430955 -1.46875e-18)
(-0.220585 0.000531975 2.37522e-18)
(-0.217649 0.000654072 5.15467e-19)
(-0.214094 0.000802538 2.56268e-18)
(-0.209773 0.000984653 2.92231e-18)
(-0.204548 0.00120923 6.27074e-19)
(-0.19812 0.00149158 3.01498e-18)
(-0.190386 0.00184109 5.64525e-18)
(-0.180554 0.00230767 1.32138e-18)
(-0.169015 0.00285659 4.49884e-18)
(-0.153288 0.00370703 -1.68424e-18)
(-0.135721 0.00447666 -3.75848e-19)
(-0.110291 0.00604626 3.90853e-18)
(-0.0819931 0.00672916 -1.61565e-18)
(-0.0458515 0.00794674 -1.89855e-19)
(-0.0101159 0.0057857 -5.75125e-21)
(-0.443813 -0.000462143 -3.27383e-19)
(-0.445014 -0.00121063 2.52565e-18)
(-0.447253 -0.00341211 -9.91592e-20)
(-0.45194 -0.00525635 5.66678e-18)
(-0.458012 -0.00689806 1.18967e-18)
(-0.465165 -0.00820707 2.19818e-19)
(-0.473014 -0.00912434 -2.16255e-18)
(-0.481149 -0.00967704 -1.24566e-17)
(-0.489249 -0.00988199 3.84871e-18)
(-0.497046 -0.00974923 5.0593e-18)
(-0.50431 -0.00928694 -1.14595e-17)
(-0.51084 -0.00850552 2.5656e-18)
(-0.516467 -0.00742357 -1.19383e-17)
(-0.521049 -0.00607108 1.42839e-17)
(-0.524473 -0.0044891 -6.49594e-18)
(-0.526652 -0.00272484 1.14524e-18)
(-0.527531 -0.000831128 1.07756e-17)
(-0.527077 0.00114726 -1.64044e-17)
(-0.525276 0.00316304 9.20549e-18)
(-0.522141 0.00518024 -1.28744e-18)
(-0.517697 0.00716908 3.95443e-18)
(-0.511982 0.00910503 1.44551e-17)
(-0.505044 0.0109674 1.04475e-18)
(-0.496943 0.0127372 -1.25864e-17)
(-0.487749 0.0143958 5.0167e-18)
(-0.477541 0.0159241 3.44512e-18)
(-0.466414 0.0173021 1.11096e-17)
(-0.454471 0.01851 1.46282e-17)
(-0.44183 0.0195286 8.87952e-18)
(-0.428619 0.0203405 1.06143e-17)
(-0.414978 0.0209314 4.83243e-18)
(-0.401054 0.0212907 -1.17179e-18)
(-0.386997 0.021413 -4.06451e-18)
(-0.372963 0.0212982 -1.29633e-18)
(-0.359104 0.020953 2.61885e-18)
(-0.345563 0.0203908 8.76312e-19)
(-0.332475 0.0196318 1.36977e-18)
(-0.319958 0.0187017 7.72368e-19)
(-0.308113 0.0176303 3.8194e-19)
(-0.297018 0.0164494 5.98653e-20)
(-0.286733 0.0151911 7.30805e-19)
(-0.277296 0.0138861 -8.46316e-19)
(-0.268726 0.0125625 2.63309e-19)
(-0.261025 0.0112455 -3.03929e-19)
(-0.25418 0.009957 1.16599e-18)
(-0.248161 0.00871586 -2.05625e-18)
(-0.242931 0.00753772 -2.09278e-18)
(-0.23844 0.00643526 3.95018e-19)
(-0.234631 0.00541797 -2.91324e-18)
(-0.231441 0.00449125 5.34749e-19)
(-0.228808 0.00366341 -2.5414e-18)
(-0.226666 0.00293652 -2.14392e-18)
(-0.224948 0.00230758 -8.53234e-19)
(-0.223592 0.00177212 4.86399e-19)
(-0.222537 0.00132408 -5.71583e-19)
(-0.221729 0.000956122 -1.84726e-19)
(-0.221118 0.00066004 -1.81567e-18)
(-0.220661 0.000426986 5.11906e-19)
(-0.220322 0.000248052 -5.37984e-20)
(-0.220067 0.000114749 -1.26385e-18)
(-0.219871 2.02965e-05 -1.35577e-19)
(-0.219715 -4.79817e-05 1.44829e-19)
(-0.219581 -9.51746e-05 9.76565e-19)
(-0.219452 -0.000120554 -6.04795e-20)
(-0.219321 -0.000127955 -7.15904e-19)
(-0.219177 -0.000120696 -5.73977e-20)
(-0.219015 -0.000101202 -2.83071e-20)
(-0.218829 -7.08655e-05 -1.97961e-19)
(-0.218612 -3.32455e-05 5.01033e-20)
(-0.218355 1.25719e-05 1.67823e-19)
(-0.21805 6.87725e-05 5.59524e-19)
(-0.217691 0.00013206 6.97414e-19)
(-0.217274 0.000210669 9.43373e-19)
(-0.216786 0.000304719 7.60388e-19)
(-0.216217 0.000416034 3.44305e-19)
(-0.215555 0.000547454 2.01026e-18)
(-0.214785 0.000702259 2.18769e-18)
(-0.213891 0.000884281 1.29963e-18)
(-0.212855 0.00109813 1.7122e-18)
(-0.211655 0.00134927 9.31843e-20)
(-0.210265 0.00164438 -7.85245e-19)
(-0.208657 0.0019916 -1.5317e-19)
(-0.206796 0.00240101 -1.59506e-18)
(-0.204641 0.00288525 -1.3566e-18)
(-0.202144 0.00346019 -1.97958e-18)
(-0.199246 0.00414625 -1.72184e-18)
(-0.195876 0.00496967 1.14057e-18)
(-0.191953 0.00596502 2.79317e-18)
(-0.18736 0.00717832 6.1921e-19)
(-0.181993 0.00866959 3.10728e-18)
(-0.175622 0.0105299 6.07498e-18)
(-0.168208 0.0128416 2.15724e-18)
(-0.159089 0.0158702 3.31638e-18)
(-0.148857 0.019455 5.08185e-18)
(-0.135042 0.0248285 2.05489e-18)
(-0.121081 0.0297419 3.05947e-18)
(-0.0995611 0.0397846 2.96274e-18)
(-0.0784649 0.0432074 4.19752e-19)
(-0.0496327 0.0520426 1.4057e-19)
(-0.0128598 0.0352099 1.70579e-18)
(-0.464452 -0.000260944 -2.34968e-19)
(-0.46518 -0.000724975 2.38728e-18)
(-0.466726 -0.00215447 -1.82813e-18)
(-0.470213 -0.0033972 5.5616e-18)
(-0.474975 -0.004524 4.1279e-18)
(-0.480776 -0.0054573 6.1222e-18)
(-0.487352 -0.00614644 8.64129e-18)
(-0.494376 -0.00660115 -9.6329e-18)
(-0.501575 -0.00682377 -1.13209e-20)
(-0.5087 -0.00681163 1.34926e-17)
(-0.515517 -0.00656194 -6.83654e-19)
(-0.521807 -0.00607517 3.87776e-18)
(-0.52737 -0.00535976 -1.28868e-18)
(-0.532027 -0.00443448 7.64073e-18)
(-0.535624 -0.00332822 9.33498e-18)
(-0.538038 -0.00207568 1.30291e-17)
(-0.539182 -0.000717456 2.7404e-17)
(-0.538996 0.000713461 -1.20612e-17)
(-0.537447 0.00217926 1.37772e-17)
(-0.534534 0.00365184 1.11529e-17)
(-0.530271 0.00510802 1.26816e-17)
(-0.52469 0.00652867 8.02861e-18)
(-0.517837 0.00789776 -1.18132e-18)
(-0.509768 0.00920082 3.60222e-18)
(-0.500553 0.0104237 2.18449e-18)
(-0.490273 0.0115522 1.27657e-17)
(-0.479021 0.0125714 1.33953e-17)
(-0.466905 0.0134665 9.2664e-18)
(-0.454045 0.0142233 1.66548e-17)
(-0.440572 0.0148289 7.0269e-18)
(-0.426631 0.0152728 4.67018e-18)
(-0.412373 0.0155472 1.868e-18)
(-0.397955 0.0156477 -1.23307e-18)
(-0.383536 0.0155746 1.58302e-19)
(-0.369275 0.0153323 2.89715e-18)
(-0.355321 0.0149305 1.00897e-18)
(-0.341815 0.0143839 3.43564e-19)
(-0.32888 0.013711 7.90743e-19)
(-0.316622 0.0129336 3.54963e-19)
(-0.305126 0.012075 -1.89615e-19)
(-0.294454 0.0111586 -4.41425e-19)
(-0.284648 0.010207 -7.73554e-19)
(-0.275729 0.00924069 -1.17373e-19)
(-0.267702 0.00827816 -1.46192e-18)
(-0.260554 0.00733543 1.59214e-19)
(-0.254259 0.00642621 -1.61322e-18)
(-0.248779 0.00556191 -1.26723e-19)
(-0.244066 0.0047518 1.28352e-19)
(-0.240064 0.00400302 -2.01514e-18)
(-0.236713 0.0033192 -2.94415e-18)
(-0.233947 0.00270502 -3.05767e-18)
(-0.231702 0.0021639 -2.1963e-18)
(-0.229911 0.00169415 -2.01892e-18)
(-0.22851 0.00129278 -1.92401e-18)
(-0.227438 0.000955608 -1.70633e-18)
(-0.226639 0.000677471 -3.8738e-19)
(-0.226061 0.000452553 -6.08083e-19)
(-0.225659 0.000274531 -4.1482e-19)
(-0.225393 0.000136955 -2.96404e-19)
(-0.225229 3.36041e-05 -1.4705e-18)
(-0.225142 -4.26467e-05 -5.29233e-19)
(-0.225107 -0.000100963 6.39946e-19)
(-0.225104 -0.000137235 -5.65576e-19)
(-0.225119 -0.000158852 -7.09901e-19)
(-0.225142 -0.000169323 -6.83404e-19)
(-0.225162 -0.000170649 4.15934e-20)
(-0.225172 -0.000164216 2.06993e-19)
(-0.225163 -0.00015027 -1.99724e-20)
(-0.22513 -0.000126452 3.56609e-21)
(-0.225067 -9.33283e-05 7.86516e-20)
(-0.22497 -5.36346e-05 1.82042e-19)
(-0.224825 -9.73604e-06 -8.30756e-20)
(-0.224625 4.1061e-05 -1.43309e-19)
(-0.224364 0.000103435 8.97631e-21)
(-0.224029 0.000178592 -5.44035e-19)
(-0.223609 0.000268375 5.89468e-19)
(-0.223087 0.000375159 -4.08984e-19)
(-0.222449 0.000501757 3.62749e-19)
(-0.221674 0.00065155 7.55467e-19)
(-0.22074 0.000828577 -1.47569e-18)
(-0.219619 0.00103775 -5.78419e-19)
(-0.218281 0.00128511 -1.65223e-18)
(-0.216689 0.00157811 -3.66126e-18)
(-0.214799 0.00192607 -1.36828e-18)
(-0.212557 0.00234079 -3.60158e-18)
(-0.209901 0.00283736 -9.13419e-19)
(-0.20675 0.00343527 -2.3491e-18)
(-0.203013 0.00416 -9.34346e-19)
(-0.198558 0.00504594 1.57993e-18)
(-0.193264 0.00613647 -1.56437e-18)
(-0.186864 0.00750168 4.328e-18)
(-0.179291 0.00919566 -7.47454e-19)
(-0.169808 0.0114397 -9.0781e-19)
(-0.158914 0.0140837 2.44832e-18)
(-0.144124 0.0181134 -2.46008e-18)
(-0.128352 0.0217711 7.46634e-19)
(-0.104871 0.0292732 -5.76372e-19)
(-0.0801247 0.0321664 -3.31086e-18)
(-0.0479792 0.0383284 1.37625e-18)
(-0.0117228 0.0269317 -1.39833e-18)
(-0.389059 -0.00131248 -5.07059e-19)
(-0.392362 -0.00305737 8.94324e-19)
(-0.397205 -0.00737434 3.57812e-18)
(-0.405789 -0.0106243 4.2187e-18)
(-0.415608 -0.0132986 -2.66301e-18)
(-0.426236 -0.0151904 -3.49168e-18)
(-0.437042 -0.016297 -5.51969e-19)
(-0.447502 -0.0167327 -9.50725e-18)
(-0.457298 -0.0165823 -3.06765e-18)
(-0.466201 -0.0159083 8.24022e-18)
(-0.474049 -0.0147591 -1.6468e-17)
(-0.480731 -0.0131769 -2.52642e-18)
(-0.486172 -0.0112064 -5.33211e-19)
(-0.490325 -0.00890081 -7.03644e-18)
(-0.493165 -0.00632127 -1.61224e-17)
(-0.494683 -0.00353389 -9.79494e-19)
(-0.494887 -0.000606489 -1.03174e-17)
(-0.493792 0.00240417 -1.75918e-17)
(-0.491417 0.00543578 -1.75752e-17)
(-0.487804 0.00844495 1.08187e-17)
(-0.482993 0.0113938 8.66605e-18)
(-0.47703 0.0142507 -4.21508e-18)
(-0.469971 0.016988 -8.39371e-18)
(-0.461877 0.0195796 -7.81591e-18)
(-0.45282 0.0219987 -2.52553e-18)
(-0.442878 0.0242179 -1.06182e-17)
(-0.432143 0.0262082 1.03857e-18)
(-0.420712 0.0279408 6.03485e-18)
(-0.408698 0.0293877 1.95812e-18)
(-0.396221 0.0305239 1.03077e-17)
(-0.383407 0.0313287 3.93668e-18)
(-0.370394 0.0317875 2.45654e-18)
(-0.35732 0.0318931 -3.90984e-18)
(-0.344325 0.0316471 -1.72576e-18)
(-0.331546 0.031061 -1.57056e-19)
(-0.319112 0.0301568 1.59295e-19)
(-0.307141 0.028966 6.03774e-19)
(-0.295737 0.0275282 4.11438e-19)
(-0.284985 0.0258885 3.05057e-19)
(-0.274954 0.0240946 1.58607e-19)
(-0.265692 0.0221942 4.52122e-20)
(-0.257229 0.0202327 2.02225e-19)
(-0.249577 0.0182519 4.67696e-19)
(-0.242733 0.016289 1.11506e-19)
(-0.236677 0.0143767 -8.14381e-19)
(-0.231377 0.0125427 -5.14894e-19)
(-0.22679 0.0108101 -3.94686e-19)
(-0.222865 0.00919717 6.16521e-19)
(-0.219538 0.00771792 -8.42906e-19)
(-0.216748 0.00638511 -8.02803e-19)
(-0.214433 0.00520258 2.19605e-19)
(-0.212524 0.00417228 1.24281e-18)
(-0.210956 0.00328881 -3.67739e-19)
(-0.20967 0.00254462 -5.29361e-19)
(-0.208609 0.00192962 -7.41867e-19)
(-0.207726 0.00143182 -1.93105e-19)
(-0.206975 0.00103817 -2.2715e-18)
(-0.20632 0.000734776 -2.26201e-18)
(-0.205728 0.000507892 -2.87692e-19)
(-0.205175 0.000344599 -1.81704e-19)
(-0.204639 0.000233199 1.45839e-18)
(-0.204104 0.000163987 -8.25082e-20)
(-0.203557 0.00013057 1.11994e-18)
(-0.202988 0.000122746 1.15853e-19)
(-0.202386 0.000134455 1.46272e-20)
(-0.201747 0.000162215 1.88183e-20)
(-0.201063 0.000204112 4.49759e-21)
(-0.200329 0.0002595 -2.05679e-20)
(-0.199539 0.00033115 -1.23578e-19)
(-0.198685 0.000419614 4.06473e-19)
(-0.197761 0.000523808 5.62937e-19)
(-0.196759 0.000645004 6.31361e-19)
(-0.195671 0.000786722 7.20135e-19)
(-0.194489 0.000951924 8.65636e-19)
(-0.193202 0.00114402 9.95144e-19)
(-0.191797 0.00136716 2.6381e-18)
(-0.190262 0.00162621 3.11472e-18)
(-0.188583 0.00192685 1.95356e-18)
(-0.186743 0.00227594 4.40908e-18)
(-0.184723 0.00268151 1.21592e-18)
(-0.182502 0.00315335 3.47639e-19)
(-0.180057 0.0037034 -4.81156e-19)
(-0.17736 0.00434632 -2.88925e-18)
(-0.174379 0.00510037 -4.28837e-18)
(-0.171081 0.00598841 -3.96858e-18)
(-0.167423 0.00703955 -8.46412e-19)
(-0.163358 0.00829088 -3.33138e-18)
(-0.158835 0.00979099 1.31966e-18)
(-0.153784 0.011603 -3.01051e-18)
(-0.148155 0.0138113 4.33873e-18)
(-0.141821 0.0165297 -7.02743e-19)
(-0.13483 0.0198973 4.20871e-18)
(-0.126759 0.0242097 -1.11181e-19)
(-0.118392 0.0293967 4.68531e-18)
(-0.10757 0.0367794 3.38771e-19)
(-0.0988032 0.0436219 3.12861e-18)
(-0.0832898 0.0570975 3.03881e-19)
(-0.0736364 0.0600404 -4.96356e-18)
(-0.0531034 0.0742027 -4.86974e-18)
(-0.0164128 0.0421442 -1.58652e-18)
(-0.418203 -0.000792643 -3.7e-19)
(-0.420219 -0.00195937 2.12256e-18)
(-0.423541 -0.00512627 1.25661e-18)
(-0.429937 -0.00765609 3.80121e-18)
(-0.437735 -0.00983624 -3.32282e-18)
(-0.446554 -0.0114857 -6.2169e-18)
(-0.455875 -0.0125583 -1.23078e-18)
(-0.465212 -0.0131149 -7.47936e-18)
(-0.474227 -0.0132 -8.03453e-19)
(-0.482656 -0.0128464 -2.58654e-18)
(-0.490291 -0.0120803 -1.06403e-17)
(-0.496969 -0.0109269 7.30178e-18)
(-0.502564 -0.00941791 -3.63151e-18)
(-0.506979 -0.0075952 1.19339e-17)
(-0.510147 -0.00551107 -5.29789e-18)
(-0.512021 -0.00322345 -1.01454e-18)
(-0.512578 -0.000795142 5.51543e-19)
(-0.511811 0.00172249 -1.06106e-17)
(-0.509724 0.00427329 -6.10827e-18)
(-0.506347 0.00681572 1.15659e-17)
(-0.501713 0.0093151 5.64246e-18)
(-0.495863 0.0117426 5.42354e-18)
(-0.488851 0.0140736 -8.88529e-18)
(-0.480738 0.0162848 -1.66539e-17)
(-0.471593 0.0183532 -1.71585e-18)
(-0.461498 0.020255 -2.99451e-18)
(-0.450543 0.0219654 2.83758e-18)
(-0.43883 0.0234595 1.30075e-17)
(-0.426474 0.0247134 5.32031e-18)
(-0.413599 0.0257055 7.65439e-18)
(-0.40034 0.0264181 4.03901e-18)
(-0.386836 0.0268383 1.26626e-18)
(-0.373235 0.0269596 -2.45086e-18)
(-0.359684 0.0267828 -1.53496e-18)
(-0.346327 0.0263169 6.96847e-19)
(-0.333302 0.0255799 4.10741e-19)
(-0.320736 0.0245977 1.41698e-18)
(-0.308739 0.0234033 6.65947e-19)
(-0.297405 0.0220346 4.09937e-19)
(-0.286808 0.0205321 6.83788e-20)
(-0.277002 0.0189358 2.13343e-19)
(-0.268022 0.0172845 7.91231e-19)
(-0.259884 0.0156134 1.49961e-18)
(-0.252586 0.013954 8.46284e-20)
(-0.246112 0.0123341 -1.32809e-18)
(-0.240432 0.0107771 -8.94245e-19)
(-0.235507 0.00930274 -8.10721e-19)
(-0.231284 0.00792708 1.94571e-18)
(-0.227706 0.00666134 -2.59264e-18)
(-0.224711 0.0055102 -2.56711e-19)
(-0.222234 0.00448503 -7.14729e-19)
(-0.220209 0.00358895 1.28062e-18)
(-0.218569 0.00281738 -2.46178e-19)
(-0.217254 0.00216407 -1.58618e-18)
(-0.216205 0.0016208 -4.32993e-19)
(-0.215371 0.00117782 -1.02865e-19)
(-0.214705 0.000824378 -1.18307e-18)
(-0.214165 0.000548913 -1.85433e-18)
(-0.213718 0.000339876 -2.49408e-19)
(-0.213334 0.000186152 6.7719e-19)
(-0.212991 7.81304e-05 3.96313e-19)
(-0.212667 9.26187e-06 6.76436e-20)
(-0.21235 -3.38645e-05 1.31593e-18)
(-0.21203 -5.4246e-05 1.29323e-19)
(-0.211693 -5.63359e-05 -1.52623e-19)
(-0.211333 -4.32497e-05 -2.35533e-20)
(-0.210942 -1.66943e-05 -2.96724e-20)
(-0.210512 2.27755e-05 -1.77902e-20)
(-0.210038 7.20692e-05 1.03115e-19)
(-0.209516 0.000130959 3.11457e-19)
(-0.208939 0.000203212 7.07552e-19)
(-0.208297 0.000293074 9.38735e-19)
(-0.207584 0.000399633 1.23554e-18)
(-0.206789 0.000525075 2.03674e-19)
(-0.205903 0.000672543 1.2374e-18)
(-0.204914 0.000845622 2.67793e-18)
(-0.203807 0.00104846 3.21619e-18)
(-0.202567 0.0012859 2.64137e-18)
(-0.201177 0.00156378 3.72643e-18)
(-0.199616 0.00188901 9.4137e-19)
(-0.197861 0.00226999 -1.63908e-18)
(-0.195886 0.00271697 1.39045e-18)
(-0.193658 0.00324264 -1.39761e-18)
(-0.191141 0.00386279 -1.96736e-18)
(-0.188293 0.00459732 -2.26255e-18)
(-0.185064 0.00547164 -3.38913e-18)
(-0.181392 0.00651834 -1.18017e-18)
(-0.17721 0.00778015 1.35028e-18)
(-0.172422 0.00931341 -6.93335e-19)
(-0.166948 0.0111918 2.59309e-18)
(-0.160605 0.013522 5.02699e-18)
(-0.15339 0.0164117 5.72536e-18)
(-0.144739 0.0201582 1.65542e-18)
(-0.135337 0.0246274 3.48078e-18)
(-0.122856 0.0311936 -2.031e-18)
(-0.111232 0.0371603 -8.32759e-19)
(-0.0923951 0.0493014 8.70164e-19)
(-0.0763505 0.0525741 -3.56533e-18)
(-0.0517343 0.063652 -1.62365e-18)
(-0.0144808 0.039472 -1.18343e-19)
(-0.326638 -0.0032328 -2.05535e-19)
(-0.334367 -0.00682791 4.46879e-19)
(-0.343389 -0.0138013 2.77404e-18)
(-0.357203 -0.0183785 3.53537e-18)
(-0.371136 -0.0216467 -8.88286e-18)
(-0.384984 -0.0235705 -3.20649e-18)
(-0.398075 -0.0243134 -5.94329e-20)
(-0.40998 -0.0241338 -8.36818e-19)
(-0.420541 -0.0232142 7.33887e-19)
(-0.429678 -0.0216752 -5.33618e-18)
(-0.437361 -0.0196033 -1.269e-17)
(-0.443592 -0.0170673 -5.9508e-18)
(-0.448399 -0.0141306 5.66164e-18)
(-0.451816 -0.0108598 -1.41807e-17)
(-0.453887 -0.00732522 -7.56735e-18)
(-0.454657 -0.00360099 1.41241e-17)
(-0.454175 0.000234206 -8.46834e-18)
(-0.452476 0.00413031 -1.17769e-17)
(-0.449601 0.00801956 6.11725e-18)
(-0.445612 0.0118522 3.06724e-18)
(-0.440548 0.0155872 1.9467e-18)
(-0.434462 0.0191891 1.42508e-18)
(-0.42741 0.0226252 -1.20722e-17)
(-0.419458 0.0258634 5.93475e-18)
(-0.410676 0.0288707 -9.47304e-18)
(-0.401143 0.0316121 -3.83829e-18)
(-0.390946 0.0340516 3.22577e-18)
(-0.380182 0.036153 3.54885e-18)
(-0.368953 0.0378818 -5.15962e-18)
(-0.357372 0.0392073 3.95874e-18)
(-0.345557 0.0401049 2.32973e-18)
(-0.333631 0.0405579 6.14001e-18)
(-0.321718 0.0405596 3.36351e-18)
(-0.309942 0.0401153 -2.28719e-18)
(-0.298424 0.0392431 -2.1349e-19)
(-0.287276 0.0379743 2.28835e-19)
(-0.276597 0.0363521 -3.66173e-19)
(-0.266474 0.0344293 1.3157e-19)
(-0.256979 0.0322646 5.7143e-20)
(-0.248165 0.0299196 8.64612e-19)
(-0.240071 0.0274551 1.74906e-20)
(-0.232716 0.0249286 -1.50432e-20)
(-0.226105 0.0223931 -7.11725e-20)
(-0.220226 0.0198961 4.60406e-20)
(-0.215053 0.0174788 -4.24619e-18)
(-0.210548 0.0151766 -6.62108e-19)
(-0.206661 0.0130185 -1.98155e-19)
(-0.203334 0.0110269 6.72583e-20)
(-0.200507 0.00921521 -2.48385e-19)
(-0.198113 0.00760022 -1.03663e-18)
(-0.196084 0.00618646 3.93103e-19)
(-0.194353 0.0049709 1.80296e-18)
(-0.192859 0.00394582 -3.62095e-19)
(-0.191548 0.00309812 6.44433e-19)
(-0.19037 0.00241206 -6.57604e-19)
(-0.189282 0.00187018 -1.88252e-19)
(-0.188249 0.00145449 -9.18928e-19)
(-0.18724 0.00114611 -4.99509e-19)
(-0.18623 0.000927061 -1.70462e-19)
(-0.185201 0.000781091 -4.84861e-19)
(-0.184138 0.000694053 4.39501e-19)
(-0.183028 0.000654447 -2.92242e-19)
(-0.181864 0.000652965 1.72951e-20)
(-0.180637 0.000681097 2.02902e-20)
(-0.179341 0.000733121 6.42479e-19)
(-0.177969 0.000805416 1.21507e-19)
(-0.176516 0.000896127 6.78615e-20)
(-0.174975 0.00100495 2.25919e-19)
(-0.173341 0.00113328 2.97787e-20)
(-0.171607 0.00128222 4.12979e-19)
(-0.169765 0.00145295 3.13543e-19)
(-0.167808 0.00164807 2.3845e-19)
(-0.165726 0.00187101 2.26197e-19)
(-0.163511 0.00212568 2.45789e-19)
(-0.161152 0.00241663 -3.82143e-19)
(-0.158638 0.00274919 1.90084e-18)
(-0.155958 0.00312953 1.15437e-18)
(-0.153098 0.00356492 2.50045e-18)
(-0.150044 0.00406405 3.9544e-18)
(-0.146782 0.00463704 1.05623e-18)
(-0.143296 0.00529625 1.25933e-18)
(-0.139568 0.00605663 1.10711e-18)
(-0.135581 0.00693649 -2.42228e-19)
(-0.131317 0.00795843 9.70919e-19)
(-0.126756 0.00915058 -6.21919e-19)
(-0.12188 0.0105484 8.36534e-19)
(-0.116673 0.0121965 -1.33137e-19)
(-0.111124 0.0141528 1.46579e-18)
(-0.105226 0.0164908 3.86051e-19)
(-0.0990013 0.0193081 4.69993e-18)
(-0.0924641 0.0227247 1.1079e-19)
(-0.0857662 0.0269141 -5.9063e-19)
(-0.0788241 0.0320646 -1.6387e-18)
(-0.0725674 0.0383164 6.87639e-19)
(-0.0655731 0.0463045 4.67274e-18)
(-0.0631141 0.0542814 9.33906e-19)
(-0.0557333 0.0668634 1.8964e-19)
(-0.0624146 0.0692626 -1.38059e-18)
(-0.0512046 0.0828325 -1.74227e-18)
(-0.0329727 0.0363768 -1.58391e-18)
(-0.358032 -0.00210754 -2.75912e-19)
(-0.363231 -0.00468354 1.33427e-18)
(-0.370021 -0.0102936 3.93344e-18)
(-0.381152 -0.014264 6.32048e-18)
(-0.393087 -0.0173188 -6.97522e-18)
(-0.405451 -0.0193112 -3.26048e-18)
(-0.417551 -0.0203076 -4.25139e-19)
(-0.428886 -0.0204913 -3.28866e-18)
(-0.439202 -0.019996 -1.36368e-18)
(-0.448338 -0.0189152 1.81106e-18)
(-0.456192 -0.0173185 -1.81735e-17)
(-0.462713 -0.0152635 -5.79897e-18)
(-0.467879 -0.0128062 1.47238e-18)
(-0.471687 -0.0100078 -7.00843e-18)
(-0.474151 -0.00693599 -9.70427e-18)
(-0.475294 -0.00366292 4.01998e-18)
(-0.475144 -0.000264572 -5.1916e-18)
(-0.473732 0.00322307 -1.08345e-17)
(-0.471092 0.00670636 -5.87268e-18)
(-0.467273 0.01015 2.93175e-18)
(-0.462318 0.0135153 1.34102e-17)
(-0.456277 0.016768 2.10994e-18)
(-0.449205 0.0198778 -1.56163e-17)
(-0.441167 0.0228152 -2.69385e-18)
(-0.432234 0.0255505 -4.04533e-18)
(-0.422483 0.0280521 -6.20026e-18)
(-0.412005 0.0302874 6.85276e-18)
(-0.400896 0.0322238 4.50631e-18)
(-0.389264 0.0338298 -8.50596e-19)
(-0.377224 0.0350774 9.38719e-18)
(-0.364901 0.0359434 3.3051e-18)
(-0.352422 0.0364121 3.62582e-18)
(-0.33992 0.0364763 -2.38939e-18)
(-0.327526 0.0361391 -1.7135e-18)
(-0.315371 0.035415 -3.93265e-19)
(-0.303572 0.0343306 8.8061e-20)
(-0.292241 0.0329231 9.76809e-20)
(-0.281472 0.0312388 2.13485e-19)
(-0.271343 0.0293298 7.15089e-20)
(-0.261917 0.027251 7.60891e-19)
(-0.253234 0.025057 4.88701e-20)
(-0.245322 0.0227995 7.48911e-20)
(-0.238188 0.0205262 8.57427e-20)
(-0.231824 0.0182796 9.60184e-20)
(-0.226209 0.0160968 -1.53777e-18)
(-0.221307 0.0140095 -4.12837e-19)
(-0.217073 0.0120435 -2.02035e-19)
(-0.213451 0.0102186 1.47358e-19)
(-0.210381 0.00854813 -2.73378e-19)
(-0.207798 0.00705689 -2.38127e-18)
(-0.205635 0.00574748 1.72017e-18)
(-0.203827 0.00461527 2.81487e-18)
(-0.20231 0.00365092 -1.65182e-18)
(-0.201027 0.00284478 -7.93631e-20)
(-0.199925 0.0021845 -1.95777e-18)
(-0.198958 0.00165561 -3.22571e-19)
(-0.198086 0.00124252 -2.29425e-18)
(-0.197275 0.000928825 -9.76387e-19)
(-0.196497 0.000698628 -2.19202e-19)
(-0.195729 0.000537222 -1.25451e-18)
(-0.194953 0.000431708 1.39143e-18)
(-0.194156 0.00037145 -8.75935e-19)
(-0.193326 0.000346556 2.71145e-19)
(-0.192456 0.000349972 3.13921e-20)
(-0.191536 0.000377036 1.6761e-19)
(-0.190561 0.000424044 4.75094e-20)
(-0.189524 0.000488486 2.95119e-20)
(-0.188419 0.000569136 1.20764e-20)
(-0.187241 0.000665908 4.92948e-20)
(-0.185983 0.000779474 4.25112e-19)
(-0.184637 0.000911657 4.24538e-19)
(-0.183197 0.00106534 3.86905e-19)
(-0.181654 0.00124298 4.20621e-19)
(-0.179999 0.00144776 4.64042e-19)
(-0.178221 0.00168371 1.04268e-18)
(-0.176309 0.00195558 1.84398e-18)
(-0.17425 0.00226888 1.78094e-18)
(-0.172032 0.00263007 1.89191e-18)
(-0.169638 0.00304691 4.5107e-18)
(-0.167053 0.0035285 1.25744e-18)
(-0.164257 0.00408589 2.44888e-18)
(-0.161229 0.00473258 2.30755e-18)
(-0.157949 0.0054851 -9.50837e-19)
(-0.154389 0.00636401 -3.51563e-18)
(-0.150523 0.00739501 -1.72595e-18)
(-0.146321 0.00861078 2.12312e-18)
(-0.14175 0.0100529 -9.93707e-19)
(-0.136778 0.0117756 3.66362e-18)
(-0.131366 0.0138495 -7.17968e-19)
(-0.125498 0.0163695 3.06117e-18)
(-0.119115 0.01946 -1.99558e-19)
(-0.112319 0.0232859 -1.87345e-18)
(-0.104852 0.0281065 -3.54597e-18)
(-0.0975591 0.0338976 1.44076e-18)
(-0.0886582 0.0417913 1.73838e-18)
(-0.0830005 0.0492986 1.42681e-18)
(-0.0714912 0.0630836 2.8764e-19)
(-0.0695735 0.065558 -2.50311e-18)
(-0.053655 0.0806029 -2.9226e-18)
(-0.020987 0.040282 -4.47827e-18)
(1.30258 0.174282 1.40835e-18)
(1.30146 0.18605 6.62559e-18)
(1.29975 0.192668 -1.39234e-18)
(1.29844 0.201758 8.34484e-18)
(1.29773 0.210378 6.92261e-18)
(1.29772 0.219626 -4.63373e-18)
(1.29856 0.229066 -7.0188e-18)
(1.30042 0.238824 2.50284e-18)
(1.30356 0.248809 -4.27248e-19)
(1.30827 0.258981 -1.07929e-18)
(1.31473 0.269138 -1.48082e-18)
(1.32239 0.278683 1.52333e-18)
(1.32787 0.28578 -4.41101e-18)
(1.31934 0.284637 -1.29103e-18)
(1.26822 0.26409 2.3876e-18)
(1.12722 0.211571 3.21844e-18)
(0.843836 0.127772 1.13752e-17)
(0.422036 0.0337199 3.18862e-18)
(0.066203 0.0189952 1.43584e-17)
(-0.0598011 0.0237914 4.77642e-18)
(1.30598 0.175961 5.12112e-18)
(1.30502 0.18747 5.52003e-18)
(1.30339 0.193985 2.92936e-18)
(1.30226 0.203021 3.71836e-18)
(1.3017 0.211537 5.16177e-18)
(1.3019 0.220691 -4.19569e-19)
(1.30299 0.229986 -1.07408e-18)
(1.30516 0.239551 5.05443e-18)
(1.30864 0.249228 -8.48957e-19)
(1.31359 0.258821 -5.63171e-19)
(1.31956 0.267686 6.3008e-19)
(1.32406 0.274199 2.95546e-19)