/*--------------------------------*- C++ -*----------------------------------*\
  =========                 |
  \\      /  F ield         | OpenFOAM: The Open Source CFD Toolbox
   \\    /   O peration     | Website:  https://openfoam.org
    \\  /    A nd           | Version:  7
     \\/     M anipulation  |
\*---------------------------------------------------------------------------*/
FoamFile
{
    version     2.0;
    format      ascii;
    class       surfaceScalarField;
    location    "80";
    object      phi;
}
// * * * * * * * * * * * * * * * * * * * * * * * * * * * * * * * * * * * * * //

dimensions      [0 3 -1 0 0 0 0];

internalField   nonuniform List<scalar> 
205
(
0.000946658
3.62396e-06
-5.32186e-06
0.000949993
9.57867e-06
-1.29138e-05
0.000955016
1.75298e-05
-2.25526e-05
0.000960949
2.33637e-05
-2.92967e-05
0.000967179
2.65718e-05
-3.28018e-05
0.000973285
2.72862e-05
-3.33922e-05
0.000978977
2.58019e-05
-3.14949e-05
0.000984059
2.25135e-05
-2.75953e-05
0.000988397
-2.21502e-05
0.000991898
-1.55494e-05
0.000994498
-8.12603e-06
0.000996188
-1.72282e-07
0.000996938
8.23357e-06
0.000996752
1.67458e-05
0.000995642
2.52706e-05
0.000993628
3.36894e-05
0.00100528
0.00100781
0.00101183
0.00101678
0.00102209
0.00102737
0.00103232
-0.0001612
0.000147447
-0.000127485
0.000134992
-9.51947e-05
0.000120915
-6.43046e-05
0.000105611
-3.47954e-05
8.94515e-05
-6.66487e-06
7.27352e-05
2.00858e-05
5.57209e-05
4.5449e-05
3.86258e-05
6.94154e-05
2.16312e-05
4.89278e-06
0.000103712
8.23713e-05
0.000155807
0.000103675
0.000195017
0.000128105
0.000233239
0.000130558
0.000268399
0.000130167
0.000301416
0.000124657
0.000332631
0.000116232
0.000362139
0.000105484
0.000390039
9.30155e-05
0.000416374
7.92757e-05
0.000441175
6.46508e-05
0.000464458
4.94522e-05
0.000486236
3.39422e-05
0.000506519
1.83431e-05
0.000525303
2.84663e-06
-1.24295e-05
0.000595317
4.74656e-05
0.000633149
6.58427e-05
0.000670522
9.07323e-05
0.000704214
9.68663e-05
0.00073577
9.86104e-05
0.000764987
9.5441e-05
0.000792242
8.89765e-05
0.000817651
8.00757e-05
0.000841297
6.93693e-05
0.000863228
5.73445e-05
0.000883476
4.44024e-05
0.000902065
3.08638e-05
0.000919018
1.69889e-05
0.00093435
3.01177e-06
0.000948104
-1.09075e-05
-2.4605e-05
0.00105273
2.47464e-05
0.00107887
3.96989e-05
0.00110957
6.00369e-05
0.00113817
6.82642e-05
0.00116527
7.15143e-05
0.00119043
7.02819e-05
0.00121369
6.57114e-05
0.00123509
5.86724e-05
0.00125466
4.98001e-05
0.00127242
3.95904e-05
0.00128837
2.84467e-05
0.00130255
1.66889e-05
0.00131495
4.58555e-06
0.00132564
-7.67554e-06
0.00133462
-1.98919e-05
-3.19161e-05
0.0014688
1.18535e-05
0.00148554
2.29552e-05
0.00150804
3.75376e-05
0.00153059
4.57152e-05
0.00155258
4.95255e-05
0.00157331
4.95546e-05
0.00159247
4.65501e-05
0.00160992
4.12193e-05
0.00162559
3.41366e-05
0.00163941
2.57657e-05
0.00165137
1.6491e-05
0.00166148
6.57712e-06
0.00166977
-3.70462e-06
0.00167619
-1.41011e-05
0.00168081
-2.45062e-05
-3.47672e-05
0.00183409
0.00184414
0.00185912
0.00187554
0.00189226
0.00190843
0.00192348
0.0019371
0.00194909
0.00195931
0.00196767
0.00197408
0.00197861
0.00198125
0.00198202
)
;

boundaryField
{
    inlet
    {
        type            calculated;
        value           nonuniform 0();
    }
    outlet
    {
        type            calculated;
        value           nonuniform List<scalar> 7(-0.00094496 -0.00100411 -5.64287e-05 -0.000560411 -0.00103001 -0.00145591 -0.00182756);
    }
    polygon
    {
        type            calculated;
        value           nonuniform 0();
    }
    top
    {
        type            symmetryPlane;
        value           uniform 0;
    }
    bottom
    {
        type            symmetryPlane;
        value           uniform 0;
    }
    outside
    {
        type            calculated;
        value           nonuniform 0();
    }
    procBoundary47to39
    {
        type            processor;
        value           nonuniform List<scalar> 
18
(
2.45379e-06
7.04652e-06
1.3506e-05
1.84218e-05
2.12581e-05
2.20044e-05
2.08497e-05
1.81063e-05
1.7813e-05
1.20476e-05
5.52626e-06
-1.51716e-06
-8.98358e-06
-1.65605e-05
-2.41606e-05
-3.16753e-05
-3.90164e-05
0.00103673
)
;
    }
    procBoundary47to46
    {
        type            processor;
        value           nonuniform List<scalar> 8(0.000990738 4.19063e-05 9.19671e-05 0.000542626 0.000960279 0.00134193 0.00168366 0.00198094);
    }
    procBoundary47to55
    {
        type            processor;
        value           nonuniform List<scalar> 
17
(
-0.000182675
-0.000168707
-0.000153205
-0.000136501
-0.000118961
-0.000100866
-8.24715e-05
-6.3989e-05
-4.55976e-05
-2.74444e-05
-0.000129654
-0.00015577
-0.000167316
-0.00016878
-0.000165327
0.000196428
-0.000157675
)
;
    }
}


// ************************************************************************* //
