/*--------------------------------*- C++ -*----------------------------------*\
  =========                 |
  \\      /  F ield         | OpenFOAM: The Open Source CFD Toolbox
   \\    /   O peration     | Website:  https://openfoam.org
    \\  /    A nd           | Version:  7
     \\/     M anipulation  |
\*---------------------------------------------------------------------------*/
FoamFile
{
    version     2.0;
    format      ascii;
    class       volVectorField;
    location    "15";
    object      U;
}
// * * * * * * * * * * * * * * * * * * * * * * * * * * * * * * * * * * * * * //

dimensions      [0 1 -1 0 0 0 0];

internalField   nonuniform List<vector> 
225
(
(1.13976 -0.0443927 2.55292e-19)
(1.16055 -0.0535275 -9.37993e-19)
(1.16814 -0.0465597 6.31192e-19)
(1.19548 -0.0592522 -2.67903e-18)
(1.20634 -0.0421895 -1.79255e-18)
(1.25084 -0.0590367 5.02595e-18)
(1.13951 -0.0451106 3.29675e-19)
(1.16041 -0.0543791 -2.22801e-19)
(1.168 -0.0477147 5.047e-19)
(1.19548 -0.060649 -2.76445e-18)
(1.2064 -0.0444202 -1.92244e-18)
(1.25115 -0.0617191 5.01442e-18)
(1.13925 -0.0458289 3.17633e-19)
(1.16025 -0.0552326 -7.6503e-20)
(1.16783 -0.048877 5.18072e-19)
(1.19544 -0.0620461 -3.72168e-18)
(1.20639 -0.0466616 -2.01326e-18)
(1.25134 -0.064388 5.37731e-18)
(1.13899 -0.0465465 3.37599e-19)
(1.16008 -0.056088 -5.42988e-20)
(1.16764 -0.0500432 5.9697e-19)
(1.19535 -0.063445 -3.22682e-18)
(1.20633 -0.0489078 -2.03107e-18)
(1.25143 -0.0670491 3.65618e-18)
(1.13872 -0.0472625 1.07833e-20)
(1.15989 -0.0569448 -6.46954e-19)
(1.16743 -0.0512119 1.20084e-18)
(1.19524 -0.0648455 -3.20747e-18)
(1.20624 -0.051156 -3.26003e-18)
(1.25145 -0.0697028 1.48301e-18)
(1.13845 -0.0479766 -4.14742e-19)
(1.15968 -0.0578029 -2.37014e-19)
(1.16721 -0.0523823 1.45197e-18)
(1.19508 -0.066247 -2.23331e-18)
(1.20611 -0.0534042 -4.6499e-18)
(1.25138 -0.0723477 -8.2273e-19)
(1.13817 -0.0486885 -5.3134e-19)
(1.15946 -0.0586616 4.5521e-19)
(1.16697 -0.0535537 1.61042e-18)
(1.1949 -0.0676489 -2.96664e-18)
(1.20593 -0.0556507 -5.12503e-18)
(1.25122 -0.0749822 -1.60523e-18)
(1.13789 -0.0493977 -9.46741e-19)
(1.15923 -0.0595207 6.83141e-19)
(1.1667 -0.0547253 1.67618e-18)
(1.19467 -0.0690502 -3.27973e-18)
(1.2057 -0.0578935 -4.31882e-18)
(1.25096 -0.0776045 -1.60133e-18)
(1.1376 -0.0501038 -1.10001e-18)
(1.15898 -0.0603795 7.17634e-19)
(1.16642 -0.0558965 1.73354e-18)
(1.19441 -0.0704501 -3.37675e-18)
(1.20543 -0.0601304 -4.24246e-18)
(1.25061 -0.0802122 -1.71344e-18)
(1.13731 -0.0508064 -1.17649e-18)
(1.15872 -0.0612377 7.93593e-19)
(1.16613 -0.0570665 1.77383e-18)
(1.19413 -0.071848 -3.63402e-18)
(1.20518 -0.0623598 -4.57706e-18)
(1.25025 -0.0828048 -1.86849e-18)
(1.1421 -0.0375892 -2.18564e-19)
(1.16144 -0.0454624 -3.86576e-18)
(1.16924 -0.0357806 -9.56523e-19)
(1.1945 -0.0457062 -2.85418e-18)
(1.2052 -0.0209751 -2.24468e-18)
(1.24541 -0.0317823 1.53755e-18)
(1.14189 -0.0382555 -1.98945e-19)
(1.16141 -0.0462506 -3.9898e-18)
(1.16921 -0.036826 -7.76719e-19)
(1.19475 -0.0470509 -2.08948e-18)
(1.20551 -0.0230529 -2.24268e-18)
(1.24631 -0.0345592 3.35447e-18)
(1.14167 -0.0389265 -1.91579e-19)
(1.16137 -0.0470426 -3.58913e-18)
(1.16915 -0.0378819 -7.40102e-19)
(1.19495 -0.0483944 -1.89507e-18)
(1.20576 -0.0251455 -2.33589e-18)
(1.24712 -0.0373152 3.94017e-18)
(1.14144 -0.0396007 -1.74441e-19)
(1.16131 -0.0478389 -3.55865e-18)
(1.16908 -0.0389455 -6.47487e-19)
(1.19512 -0.0497408 -1.96327e-18)
(1.20596 -0.0272493 -1.47246e-18)
(1.24784 -0.0400624 3.94452e-18)
(1.14121 -0.0402778 -1.68747e-19)
(1.16124 -0.0486394 -3.04877e-18)
(1.16899 -0.0400157 -7.07514e-19)
(1.19527 -0.0510906 -2.94991e-18)
(1.20611 -0.0293624 -1.37017e-18)
(1.24848 -0.0428025 4.00914e-18)
(1.14098 -0.0409573 -1.68944e-19)
(1.16115 -0.0494438 -3.5621e-18)
(1.16888 -0.0410918 -9.10088e-20)
(1.19537 -0.0524435 -3.34432e-18)
(1.20623 -0.0314833 -1.3611e-18)
(1.24904 -0.0455343 4.3969e-18)
(1.14074 -0.0416388 -5.06199e-19)
(1.16106 -0.0502518 -3.22355e-18)
(1.16876 -0.0421732 6.60221e-19)
(1.19545 -0.0537987 -3.53864e-18)
(1.2063 -0.0336105 -1.32331e-18)
(1.24952 -0.0482557 6.09372e-18)
(1.1405 -0.042322 -5.97176e-19)
(1.16095 -0.0510629 -2.59956e-18)
(1.16861 -0.0432592 9.29356e-19)
(1.19549 -0.0551554 -3.7704e-18)
(1.20632 -0.0357425 -1.52367e-18)
(1.24991 -0.0509645 6.76678e-18)
(1.14025 -0.0430067 7.99488e-20)
(1.16082 -0.0518766 -1.90778e-18)
(1.16845 -0.044349 1.08175e-18)
(1.19549 -0.0565126 -3.79375e-18)
(1.20628 -0.0378775 -1.6248e-18)
(1.25021 -0.0536576 5.35473e-18)
(1.14001 -0.0436924 -7.83488e-20)
(1.16069 -0.0526926 -1.16128e-18)
(1.16828 -0.0454421 1.15757e-18)
(1.19548 -0.0578695 -3.01705e-18)
(1.20627 -0.0400143 -1.61793e-18)
(1.25049 -0.0563333 5.01815e-18)
(1.14406 -0.0317071 1.69604e-19)
(1.16135 -0.0383764 -1.42887e-18)
(1.16929 -0.0265186 -1.04004e-18)
(1.19132 -0.0330433 1.28416e-18)
(1.20159 -0.00182136 3.42557e-19)
(1.14388 -0.0322674 -1.64211e-19)
(1.16141 -0.039059 -1.97299e-18)
(1.16936 -0.0274026 -1.11695e-18)
(1.19176 -0.034295 2.25315e-19)
(1.20215 -0.00368784 -1.07569e-20)
(1.1437 -0.0328347 5.28681e-20)
(1.16145 -0.0397459 -2.76792e-18)
(1.16941 -0.0282975 -1.69585e-18)
(1.19218 -0.0355427 6.9752e-20)
(1.20265 -0.00556498 -1.44448e-19)
(1.14351 -0.0334081 -2.07185e-19)
(1.16148 -0.0404383 -3.13372e-18)
(1.16944 -0.0292018 -1.83832e-18)
(1.19256 -0.0367933 -8.1458e-19)
(1.2031 -0.00745313 -2.37323e-19)
(1.14332 -0.033987 7.01655e-20)
(1.1615 -0.0411363 -3.27855e-18)
(1.16945 -0.0301145 -2.02008e-18)
(1.19291 -0.0380486 -2.02637e-18)
(1.20351 -0.00935171 -1.15472e-18)
(1.14313 -0.0345712 1.65717e-19)
(1.16152 -0.04184 -3.39501e-18)
(1.16945 -0.0310352 -1.54311e-18)
(1.19324 -0.0393086 -2.45647e-18)
(1.20388 -0.0112598 -2.26663e-18)
(1.14293 -0.0351604 -1.4073e-19)
(1.16152 -0.042549 -3.47398e-18)
(1.16943 -0.0319635 -1.92916e-18)
(1.19354 -0.0405729 -2.69444e-18)
(1.2042 -0.0131765 -2.72354e-18)
(1.14273 -0.0357544 -2.0801e-19)
(1.16151 -0.043263 -3.6694e-18)
(1.16939 -0.0328988 -2.06548e-18)
(1.1938 -0.0418407 -2.78238e-18)
(1.20446 -0.0151006 -2.08885e-18)
(1.14252 -0.0363531 -2.20226e-19)
(1.1615 -0.0439816 -3.74945e-18)
(1.16933 -0.0338406 -2.17347e-18)
(1.19403 -0.0431109 -2.81286e-18)
(1.20467 -0.0170307 -2.00132e-18)
(1.14231 -0.0369561 -2.21933e-19)
(1.16147 -0.0447045 -3.78029e-18)
(1.16927 -0.0347883 -1.65202e-18)
(1.19425 -0.044383 -2.80597e-18)
(1.20489 -0.0189658 -1.98757e-18)
(1.14558 -0.0278208 -5.35311e-19)
(1.16063 -0.0333419 -1.0622e-18)
(1.16852 -0.0199764 -4.25765e-19)
(1.18667 -0.0227423 2.25842e-18)
(1.19569 0.0135316 -3.22335e-18)
(1.14545 -0.0278153 -4.74302e-19)
(1.16073 -0.0334152 -1.08958e-18)
(1.16867 -0.0201051 -5.30352e-19)
(1.18724 -0.0231363 2.27672e-18)
(1.19651 0.0129189 -2.5749e-18)
(1.14532 -0.0280795 -4.47202e-19)
(1.16084 -0.0337871 -1.12368e-18)
(1.1688 -0.020602 -6.13711e-19)
(1.18779 -0.0239922 2.45733e-18)
(1.19725 0.0116202 -2.42787e-18)
(1.14517 -0.0284542 -1.73443e-19)
(1.16092 -0.0342787 -1.14258e-18)
(1.16891 -0.0212436 -6.77935e-19)
(1.18831 -0.0250209 2.52288e-18)
(1.19793 0.0100756 -2.37245e-18)
(1.14502 -0.0288762 -3.98449e-20)
(1.16101 -0.0348202 -1.17466e-18)
(1.169 -0.0219447 -1.14477e-18)
(1.1888 -0.0261162 3.38527e-18)
(1.19856 0.00844017 -2.33514e-18)
(1.14487 -0.0293204 1.36977e-20)
(1.16108 -0.0353847 -1.17804e-18)
(1.16908 -0.022673 -8.81615e-19)
(1.18927 -0.0272393 3.77232e-18)
(1.19915 0.00676895 -2.42699e-18)
(1.14472 -0.0297769 4.88525e-20)
(1.16115 -0.0359615 -1.21032e-18)
(1.16914 -0.0234159 -8.6112e-19)
(1.18971 -0.0283754 3.29828e-18)
(1.1997 0.00508171 -2.4566e-18)
(1.14456 -0.0302416 5.3549e-20)
(1.16121 -0.0365464 -1.74565e-18)
(1.16919 -0.0241684 -8.32463e-19)
(1.19013 -0.0295188 3.12489e-18)
(1.20019 0.003386 -1.74422e-18)
(1.14439 -0.030713 3.59361e-19)
(1.16126 -0.0371374 -1.50292e-18)
(1.16922 -0.0249285 -8.63156e-19)
(1.19052 -0.0306668 2.34488e-18)
(1.20063 0.00168531 -1.67146e-18)
(1.14422 -0.0311903 2.00422e-19)
(1.1613 -0.0377336 -1.4182e-18)
(1.16924 -0.0256951 -9.24952e-19)
(1.1909 -0.031818 2.19514e-18)
(1.20106 -1.85619e-05 -8.72531e-19)
(1.13859 -0.0769916 -5.06366e-19)
(1.15003 -0.0842874 1.48685e-17)
(1.16123 -0.0816337 1.86588e-17)
(1.16025 -0.085707 4.46574e-18)
(1.1603 -0.0801288 -1.30249e-17)
)
;

boundaryField
{
    inlet
    {
        type            uniformFixedValue;
        uniformValue    constant (1 0 0);
        value           nonuniform 0();
    }
    outlet
    {
        type            pressureInletOutletVelocity;
        value           nonuniform 0();
    }
    polygon
    {
        type            fixedValue;
        value           nonuniform 0();
    }
    top
    {
        type            symmetryPlane;
    }
    bottom
    {
        type            symmetryPlane;
    }
    outside
    {
        type            zeroGradient;
    }
    procBoundary2to1
    {
        type            processor;
        value           nonuniform List<vector> 6((1.13702 -0.0515055 -1.22505e-18) (1.15846 -0.0620959 7.17348e-19) (1.16587 -0.0582358 1.24282e-18) (1.19389 -0.0732451 -2.68409e-18) (1.205 -0.0645822 -3.4942e-18) (1.24999 -0.0853845 -1.76567e-18));
    }
    procBoundary2to3
    {
        type            processor;
        value           nonuniform List<vector> 5((1.15974 0.0682124 7.84762e-19) (1.16268 0.05657 -4.13384e-19) (1.1629 0.0458986 -2.97689e-17) (1.15933 0.0395669 -2.83572e-17) (1.15642 0.0246581 -3.26106e-18));
    }
    procBoundary2to6
    {
        type            processor;
        value           nonuniform List<vector> 
42
(
(1.2618 -0.0237362 5.58657e-18)
(1.26202 -0.0286277 5.20743e-18)
(1.26206 -0.0335491 3.38176e-18)
(1.262 -0.0384814 2.94946e-18)
(1.26185 -0.043416 1.28129e-18)
(1.2616 -0.0483468 8.49432e-19)
(1.26126 -0.053268 7.76137e-19)
(1.2608 -0.0581735 9.53936e-19)
(1.26025 -0.0630554 1.06217e-18)
(1.25977 -0.0679082 2.74244e-18)
(1.25853 0.0232827 4.00837e-18)
(1.24449 -0.0289622 1.54997e-18)
(1.25939 0.0186637 3.89995e-18)
(1.26006 0.0140095 3.8879e-18)
(1.26061 0.00933219 5.60164e-18)
(1.26105 0.00463746 5.76368e-18)
(1.26136 -7.05965e-05 6.09371e-18)
(1.26156 -0.00478824 8.43725e-18)
(1.26161 -0.0095112 8.90912e-18)
(1.26154 -0.0142343 7.52304e-18)
(1.26153 -0.0189537 7.07459e-18)
(1.23471 -0.00394137 8.88162e-19)
(1.23611 -0.00676539 3.51562e-19)
(1.23742 -0.00956219 3.41474e-19)
(1.23865 -0.0123514 -1.21821e-18)
(1.23981 -0.0151371 -3.15565e-18)
(1.24089 -0.0179187 -3.9359e-18)
(1.2419 -0.0206946 -2.63513e-18)
(1.24282 -0.0234624 -7.28397e-19)
(1.24367 -0.0262191 1.28986e-18)
(1.24449 -0.0289622 1.54997e-18)
(1.21985 0.0219176 5.16142e-18)
(1.2217 0.0205172 3.99871e-18)
(1.22344 0.0181825 3.74157e-18)
(1.22508 0.0155405 3.64063e-18)
(1.22664 0.0127987 3.61035e-18)
(1.22813 0.0100266 3.74613e-18)
(1.22955 0.00724813 5.02925e-18)
(1.23088 0.00447222 5.52672e-18)
(1.23213 0.00170371 4.38232e-18)
(1.23335 -0.00105445 2.68621e-18)
(1.09654 -0.0696763 1.3525e-18)
)
;
    }
}


// ************************************************************************* //
