/*--------------------------------*- C++ -*----------------------------------*\
  =========                 |
  \\      /  F ield         | OpenFOAM: The Open Source CFD Toolbox
   \\    /   O peration     | Website:  https://openfoam.org
    \\  /    A nd           | Version:  7
     \\/     M anipulation  |
\*---------------------------------------------------------------------------*/
FoamFile
{
    version     2.0;
    format      ascii;
    class       surfaceScalarField;
    location    "15";
    object      phi;
}
// * * * * * * * * * * * * * * * * * * * * * * * * * * * * * * * * * * * * * //

dimensions      [0 3 -1 0 0 0 0];

internalField   nonuniform List<scalar> 
226
(
0.00162167
-1.49221e-06
1.93638e-06
0.00162037
2.78795e-05
-2.65792e-05
0.00161931
-9.66181e-07
2.03108e-06
0.00161508
6.84874e-05
-6.42622e-05
0.00160471
8.61434e-05
-7.57662e-05
0.00157442
0.000422604
-0.000392324
0.00154238
0.000237955
-0.000205911
0.00198304
-0.0018318
0.00162155
-9.2328e-07
0.00162045
2.89773e-05
0.00161914
3.39627e-07
0.0016152
7.2429e-05
0.00160416
9.71816e-05
0.00157463
0.000452141
0.00154042
0.000272163
0.00213158
0.00162143
-2.33949e-07
0.00162052
2.98847e-05
0.001619
1.86223e-06
0.00161531
7.61148e-05
0.00160366
0.000108834
0.00157483
0.000480966
0.0015386
0.000308399
0.0022772
0.00162131
5.77633e-07
0.00162059
3.0595e-05
0.00161885
3.60554e-06
0.00161543
0.00160316
0.00157507
0.00153684
0.00162118
0.00162067
0.00191391
-4.93748e-07
0.0019108
3.10687e-06
0.00191153
-7.21086e-07
0.00190445
7.07353e-06
0.00189829
6.1651e-06
0.00185723
4.10529e-05
0.00184085
1.63799e-05
0.00165106
0.000189793
0.00017543
0.00191389
-9.67017e-07
0.00191081
6.18477e-06
0.0019115
-1.40375e-06
0.00190445
1.41139e-05
0.00189815
1.247e-05
0.00185718
8.20242e-05
0.00184023
3.33241e-05
0.00165046
0.000379565
0.000354048
0.00191385
-1.40124e-06
0.00191083
9.20573e-06
0.00191144
-2.01713e-06
0.00190448
2.10761e-05
0.00189796
1.89867e-05
0.00185721
0.000122781
0.00183954
5.09916e-05
0.0016504
0.000568701
0.000535235
0.00191379
-1.77837e-06
0.00191086
1.21424e-05
0.00191137
-2.5315e-06
0.00190453
2.79178e-05
0.00189773
2.57823e-05
0.00185731
0.000163201
0.00183878
6.95236e-05
0.00165081
0.000756676
0.000718342
0.00191372
-2.08111e-06
0.00191089
1.49684e-05
0.00191128
-2.9184e-06
0.0019046
3.45977e-05
0.00189746
3.29209e-05
0.0018575
0.000203164
0.00183797
8.90501e-05
0.00165168
0.000942971
0.000902762
0.00191363
-2.29307e-06
0.00191094
1.76583e-05
0.00191117
-3.151e-06
0.00190469
4.10766e-05
0.00189715
4.04625e-05
0.00185776
0.000242555
0.00183712
0.000109694
0.00165301
0.00112708
0.00108793
0.00191352
-2.39898e-06
0.00191099
2.01885e-05
0.00191105
-3.20445e-06
0.0019048
4.73185e-05
0.0018968
4.84627e-05
0.00185809
0.000281265
0.00183622
0.000131572
0.00165479
0.0013085
0.00127332
0.0019134
-2.38483e-06
0.00191105
2.25368e-05
0.00191091
-3.05623e-06
0.00190493
5.32909e-05
0.00189643
5.69715e-05
0.00185849
0.000319198
0.00183527
0.000154799
0.00165702
0.00148675
0.00145851
0.00191327
-2.23804e-06
0.00191112
2.46832e-05
0.00191075
-2.68637e-06
0.00190508
5.89659e-05
0.00189602
6.60331e-05
0.00185895
0.000356269
0.00183426
0.000179488
0.00165965
0.00166136
0.00164315
0.00191312
0.00191122
0.00191056
0.00190527
0.00189553
0.00185948
0.00183306
0.00166261
)
;

boundaryField
{
    inlet
    {
        type            calculated;
        value           nonuniform List<scalar> 
15
(
-0.00162212
-0.00162212
-0.00162212
-0.00162212
-0.00162212
-0.00191342
-0.00191342
-0.00191342
-0.00191342
-0.00191342
-0.00191342
-0.00191342
-0.00191342
-0.00191342
-0.00191342
)
;
    }
    outlet
    {
        type            calculated;
        value           nonuniform 0();
    }
    polygon
    {
        type            calculated;
        value           nonuniform 0();
    }
    top
    {
        type            symmetryPlane;
        value           uniform 0;
    }
    bottom
    {
        type            symmetryPlane;
        value           uniform 0;
    }
    outside
    {
        type            calculated;
        value           nonuniform 0();
    }
    procBoundary8to4
    {
        type            processor;
        value           nonuniform List<scalar> 9(4.24549e-12 2.88853e-12 -3.27186e-12 -1.15586e-11 1.95423e-11 5.89042e-12 1.0853e-12 -1.618e-11 5.85299e-12);
    }
    procBoundary8to9
    {
        type            processor;
        value           nonuniform List<scalar> 
15
(
0.00139115
0.00182698
0.00139188
0.00139298
0.0013944
0.00147563
0.00147184
0.00146922
0.0014677
0.00146726
0.00146785
0.0014694
0.00147183
0.00147501
0.00147878
)
;
    }
    procBoundary8to12
    {
        type            processor;
        value           nonuniform List<scalar> 9(7.95378e-05 0.000121101 0.000509061 0.000346626 0.00241963 1.51177e-06 3.11029e-05 0.00161871 5.57189e-06);
    }
}


// ************************************************************************* //
