/*--------------------------------*- C++ -*----------------------------------*\
  =========                 |
  \\      /  F ield         | OpenFOAM: The Open Source CFD Toolbox
   \\    /   O peration     | Website:  https://openfoam.org
    \\  /    A nd           | Version:  7
     \\/     M anipulation  |
\*---------------------------------------------------------------------------*/
FoamFile
{
    version     2.0;
    format      ascii;
    class       volScalarField;
    location    "4";
    object      p;
}
// * * * * * * * * * * * * * * * * * * * * * * * * * * * * * * * * * * * * * //

dimensions      [0 2 -2 0 0 0 0];

internalField   nonuniform List<scalar> 
7360
(
0.000198431
0.000593357
0.000989037
0.00138415
0.00177955
0.00217467
0.00256985
0.00296485
0.00335979
0.00375458
0.00414926
0.00454378
0.00493816
0.00533236
0.00572639
0.00612024
0.00651391
0.00690739
0.00730069
0.0076938
0.00808675
0.00847954
0.00887221
0.00926477
0.00965727
0.0100498
0.0104423
0.010835
0.0112279
0.0116211
0.0120149
0.0124093
0.0128046
0.0132009
0.0135986
0.0139981
0.0143996
0.0148036
0.0152106
0.0156212
0.0160361
0.016456
0.0168817
0.0173144
0.017755
0.0182048
0.0186653
0.0191381
0.0196249
0.0201279
0.0206492
0.0211915
0.0217576
0.022351
0.0229752
0.0236347
0.0243342
0.0250794
0.0258767
0.0267336
0.0276584
0.0286609
0.0297521
0.0309442
0.0322509
0.0336866
0.0352669
0.0370073
0.038923
0.0410279
0.0433329
0.0458444
0.0485609
0.0514685
0.0545327
0.0576847
0.0607993
0.0636597
0.0659002
0.0669238
0.0658506
0.0613885
0.0517084
0.0344768
0.00702864
-0.033118
-0.0888904
-0.158475
-0.240199
-0.328636
-0.415332
-0.491398
-0.548986
-0.58165
-0.586319
-0.564672
-0.526607
-0.482845
-0.451078
-0.430478
0.000198349
0.000593115
0.000988636
0.00138359
0.00177883
0.00217379
0.00256881
0.00296365
0.00335844
0.00375307
0.00414759
0.00454196
0.00493618
0.00533022
0.0057241
0.0061178
0.00651132
0.00690465
0.00729779
0.00769076
0.00808356
0.00847621
0.00886873
0.00926114
0.0096535
0.0100459
0.0104383
0.0108308
0.0112236
0.0116167
0.0120103
0.0124046
0.0127998
0.013196
0.0135936
0.013993
0.0143944
0.0147983
0.0152052
0.0156157
0.0160305
0.0164503
0.016876
0.0173086
0.0177492
0.018199
0.0186595
0.0191322
0.019619
0.020122
0.0206433
0.0211856
0.0217518
0.0223453
0.0229697
0.0236293
0.0243291
0.0250747
0.0258726
0.0267302
0.0276561
0.0286601
0.0297533
0.0309482
0.0322587
0.0336996
0.0352867
0.0370363
0.038964
0.0410843
0.0434091
0.0459458
0.0486942
0.051642
0.0547566
0.0579719
0.0611661
0.0641271
0.0664981
0.0676948
0.066822
0.0626162
0.0532838
0.0365285
0.00971183
-0.0297913
-0.0843667
-0.153091
-0.233864
-0.321535
-0.407855
-0.483906
-0.541786
-0.575239
-0.581265
-0.560235
-0.522854
-0.479567
-0.44785
-0.425617
0.00019884
0.000594558
0.000991041
0.00138695
0.00178315
0.00217907
0.00257504
0.00297083
0.00336657
0.00376215
0.00415761
0.0045529
0.00494805
0.00534302
0.00573781
0.00613241
0.00652683
0.00692105
0.00731507
0.00770891
0.00810256
0.00849606
0.00888941
0.00928264
0.00967581
0.0100689
0.0104621
0.0108554
0.0112489
0.0116428
0.0120371
0.012432
0.0128278
0.0132246
0.0136228
0.0140227
0.0144246
0.0148289
0.0152363
0.0156472
0.0160623
0.0164824
0.0169084
0.0173411
0.0177818
0.0182317
0.0186922
0.0191649
0.0196516
0.0201544
0.0206754
0.0212172
0.0217828
0.0223753
0.0229984
0.0236563
0.0243537
0.0250961
0.0258896
0.0267412
0.0276591
0.0286522
0.0297309
0.0309064
0.0321911
0.0335981
0.0351409
0.0368328
0.0386861
0.0407113
0.0429151
0.0452986
0.047854
0.0505593
0.0533697
0.0562029
0.058916
0.0612672
0.0628531
0.0630352
0.0609089
0.0550642
0.0435467
0.0238977
-0.00662192
-0.0506803
-0.110425
-0.184314
-0.269691
-0.360404
-0.44731
-0.521714
-0.576306
-0.604948
-0.605377
-0.579292
-0.53827
-0.493194
-0.463794
-0.451469
0.000198597
0.000593836
0.000989842
0.00138527
0.00178099
0.00217643
0.00257192
0.00296724
0.0033625
0.0037576
0.00415259
0.00454743
0.00494211
0.00533662
0.00573096
0.00612511
0.00651908
0.00691285
0.00730644
0.00769984
0.00809307
0.00848613
0.00887906
0.00927188
0.00966463
0.0100574
0.0104501
0.010843
0.0112362
0.0116296
0.0120236
0.0124181
0.0128136
0.0132101
0.0136079
0.0140075
0.0144091
0.0148131
0.0152202
0.0156309
0.0160457
0.0164656
0.0168914
0.0173239
0.0177645
0.0182142
0.0186746
0.0191471
0.0196337
0.0201364
0.0206574
0.0211992
0.0217648
0.0223575
0.0229809
0.0236392
0.0243373
0.0250807
0.0258756
0.0267293
0.0276501
0.0286473
0.0297317
0.0309151
0.0322105
0.033632
0.0351942
0.0369119
0.038799
0.040868
0.0431281
0.0455834
0.0482299
0.0510505
0.0540064
0.057024
0.059972
0.0626254
0.0646075
0.0653087
0.063774
0.0586926
0.0482036
0.029936
0.00121868
-0.0404897
-0.0979699
-0.16911
-0.252063
-0.34114
-0.427575
-0.502574
-0.558555
-0.590005
-0.593898
-0.569943
-0.531082
-0.487467
-0.457762
-0.442968
0.000199556
0.00059671
0.000994625
0.00139198
0.00178961
0.00218696
0.00258436
0.00298158
0.00337873
0.00377571
0.00417257
0.00456926
0.00496578
0.00536211
0.00575825
0.00615419
0.00654992
0.00694544
0.00734075
0.00773585
0.00813075
0.00852546
0.00892001
0.00931442
0.00970873
0.010103
0.0104973
0.0108916
0.0112861
0.0116809
0.0120762
0.012472
0.0128687
0.0132664
0.0136653
0.0140659
0.0144685
0.0148735
0.0152814
0.0156928
0.0161084
0.016529
0.0169553
0.0173883
0.0178293
0.0182794
0.01874
0.0192127
0.0196994
0.0202019
0.0207226
0.0212639
0.0218287
0.0224201
0.0230415
0.0236971
0.0243913
0.0251291
0.0259164
0.0267595
0.0276658
0.0286433
0.0297011
0.0308488
0.0320969
0.0334559
0.0349363
0.0365475
0.0382973
0.0401903
0.0422261
0.0443971
0.0466845
0.0490525
0.0514387
0.0537385
0.0557793
0.0572748
0.0577374
0.0564328
0.0524034
0.0440315
0.029182
0.00524057
-0.0305771
-0.0808464
-0.146516
-0.226792
-0.316204
-0.408164
-0.49268
-0.561678
-0.609046
-0.629592
-0.62232
-0.588562
-0.543963
-0.497797
-0.475901
-0.469387
0.00019916
0.000595488
0.000992587
0.0013891
0.0017859
0.00218242
0.00257899
0.00297538
0.00337172
0.00376789
0.00416396
0.00455985
0.0049556
0.00535117
0.00574656
0.00614175
0.00653675
0.00693155
0.00732616
0.00772056
0.00811478
0.00850882
0.00890271
0.00929647
0.00969015
0.0100838
0.0104774
0.0108712
0.0112651
0.0116594
0.0120541
0.0124494
0.0128455
0.0132426
0.0136411
0.0140412
0.0144433
0.0148478
0.0152553
0.0156663
0.0160815
0.0165016
0.0169275
0.0173602
0.0178008
0.0182505
0.0187108
0.0191832
0.0196695
0.0201717
0.0206921
0.0212332
0.0217978
0.0223891
0.0230107
0.0236666
0.0243614
0.0251003
0.0258893
0.026735
0.0276452
0.0286284
0.0296941
0.0308531
0.0321166
0.0334967
0.0350056
0.0366547
0.0384543
0.0404121
0.0425314
0.0448091
0.0472323
0.0497721
0.0523755
0.0549503
0.0573415
0.0592939
0.060385
0.0599442
0.0568588
0.0497301
0.0365865
0.0149157
-0.0180045
-0.0648038
-0.127069
-0.20376
-0.290358
-0.38123
-0.466745
-0.538433
-0.589424
-0.615427
-0.612821
-0.58332
-0.541438
-0.496584
-0.471964
-0.465938
0.000200628
0.000600015
0.00100008
0.00139961
0.0017994
0.00219892
0.00259848
0.00299784
0.00339713
0.00379625
0.00419523
0.00459402
0.00499263
0.00539103
0.00578922
0.00618719
0.00658493
0.00698243
0.00737969
0.00777672
0.00817351
0.00857007
0.00896643
0.00936261
0.00975865
0.0101546
0.0105505
0.0109464
0.0113424
0.0117387
0.0121353
0.0125324
0.0129303
0.0133291
0.0137292
0.0141307
0.0145342
0.01494
0.0153486
0.0157607
0.0161768
0.0165977
0.0170243
0.0174576
0.0178987
0.0183488
0.0188093
0.0192818
0.019768
0.02027
0.0207899
0.02133
0.0218931
0.0224823
0.0231007
0.023752
0.0244404
0.0251703
0.0259468
0.0267756
0.0276626
0.0286148
0.0296393
0.0307439
0.0319362
0.0332237
0.0346127
0.0361075
0.0377093
0.0394143
0.0412115
0.0430794
0.0449812
0.0468568
0.0486117
0.0500974
0.0510812
0.0512055
0.0499503
0.0463755
0.0391649
0.026625
0.00647247
-0.0239424
-0.067217
-0.125271
-0.198116
-0.283438
-0.374299
-0.463096
-0.53948
-0.596588
-0.630211
-0.63841
-0.61869
-0.577338
-0.532186
-0.491494
-0.485223
-0.479525
0.000199991
0.000597945
0.000996622
0.00139473
0.0017931
0.0021912
0.00258935
0.00298732
0.00338523
0.00378299
0.00418062
0.00457809
0.0049754
0.00537253
0.00576947
0.00616622
0.00656276
0.0069591
0.00735523
0.00775115
0.00814687
0.00854241
0.00893777
0.00933299
0.0097281
0.0101232
0.0105182
0.0109133
0.0113086
0.0117042
0.0121001
0.0124967
0.012894
0.0132923
0.0136918
0.014093
0.0144961
0.0149016
0.01531
0.0157218
0.0161378
0.0165587
0.0169853
0.0174186
0.0178597
0.01831
0.0187707
0.0192435
0.0197302
0.0202327
0.0207532
0.0212942
0.0218584
0.022449
0.0230693
0.0237232
0.024415
0.0251494
0.025932
0.0267686
0.0276661
0.0286319
0.0296742
0.0308019
0.032024
0.0333497
0.0347878
0.0363454
0.0380272
0.0398343
0.0417614
0.0437946
0.045907
0.0480517
0.0501509
0.0520782
0.0536277
0.0544631
0.0540485
0.051747
0.0463989
0.0363218
0.0193618
-0.00709229
-0.0457426
-0.098939
-0.167194
-0.249914
-0.340104
-0.430559
-0.512632
-0.577668
-0.619986
-0.635907
-0.624121
-0.586663
-0.54094
-0.495521
-0.481252
-0.478203
-0.247208
-0.247971
-0.250964
-0.255238
-0.261277
-0.269002
-0.2786
-0.290197
-0.303986
-0.320182
-0.339031
-0.360779
-0.385981
-0.414653
-0.445547
-0.480815
-0.521342
-0.540396
-0.565229
-0.543701
-0.248596
-0.249772
-0.25318
-0.257968
-0.264589
-0.272979
-0.28333
-0.295765
-0.31047
-0.327657
-0.347595
-0.370598
-0.397356
-0.42824
-0.460815
-0.494686
-0.531661
-0.543017
-0.552781
-0.506664
-0.242944
-0.242895
-0.245076
-0.248401
-0.253374
-0.259907
-0.268175
-0.278311
-0.290522
-0.305052
-0.322226
-0.342475
-0.366497
-0.394625
-0.428063
-0.4684
-0.514939
-0.557554
-0.58485
-0.604331
-0.245363
-0.245721
-0.248306
-0.252108
-0.257614
-0.264742
-0.273675
-0.284542
-0.297551
-0.312946
-0.331045
-0.352266
-0.37732
-0.406166
-0.43843
-0.475486
-0.514849
-0.539491
-0.564758
-0.565543
-0.236304
-0.23545
-0.236858
-0.23926
-0.243207
-0.248608
-0.25563
-0.264405
-0.275152
-0.288134
-0.30374
-0.322446
-0.345068
-0.372328
-0.406107
-0.447389
-0.501223
-0.560582
-0.606734
-0.65419
-0.239941
-0.239499
-0.241291
-0.244158
-0.248621
-0.254592
-0.262241
-0.271702
-0.283196
-0.296982
-0.313437
-0.33303
-0.35647
-0.384181
-0.417499
-0.456873
-0.50454
-0.553888
-0.582737
-0.613449
-0.227256
-0.225513
-0.226181
-0.227689
-0.230631
-0.234943
-0.240783
-0.24828
-0.257663
-0.269205
-0.283332
-0.300535
-0.321757
-0.347692
-0.380716
-0.422061
-0.478568
-0.543488
-0.620536
-0.67825
-0.232083
-0.230801
-0.231839
-0.233803
-0.237248
-0.242107
-0.24854
-0.256678
-0.266749
-0.279024
-0.293914
-0.311903
-0.333835
-0.360391
-0.393465
-0.434251
-0.488541
-0.549114
-0.605575
-0.647342
-0.216064
-0.213294
-0.21322
-0.213767
-0.215715
-0.218952
-0.223632
-0.229851
-0.237867
-0.24794
-0.260517
-0.275997
-0.295532
-0.3193
-0.351205
-0.38951
-0.446364
-0.509684
-0.607334
-0.669762
-0.221907
-0.219669
-0.219969
-0.221013
-0.22347
-0.227252
-0.232523
-0.239405
-0.248134
-0.258979
-0.272382
-0.288799
-0.309271
-0.334259
-0.366819
-0.406815
-0.462883
-0.525859
-0.608219
-0.651081
-0.203643
-0.19969
-0.198961
-0.198583
-0.199556
-0.201631
-0.205043
-0.209773
-0.216136
-0.224374
-0.234962
-0.248109
-0.265279
-0.285479
-0.314806
-0.344982
-0.400697
-0.447598
-0.559258
-0.603509
-0.209924
-0.206579
-0.206158
-0.206208
-0.207655
-0.21033
-0.214405
-0.219912
-0.227164
-0.236407
-0.248123
-0.262578
-0.281173
-0.303262
-0.334297
-0.368157
-0.424501
-0.476508
-0.576794
-0.609661
-0.190961
-0.1857
-0.184747
-0.183591
-0.184081
-0.185272
-0.187699
-0.191558
-0.196838
-0.203724
-0.212558
-0.223438
-0.23748
-0.253674
-0.277297
-0.298786
-0.346316
-0.36491
-0.476492
-0.436445
-0.197407
-0.192799
-0.191913
-0.191202
-0.19188
-0.193427
-0.19623
-0.200367
-0.205995
-0.213343
-0.222845
-0.234664
-0.250202
-0.26835
-0.295282
-0.320892
-0.373422
-0.401285
-0.509022
-0.485305
-0.176156
-0.169813
-0.168102
-0.165084
-0.16414
-0.163618
-0.164223
-0.165967
-0.168942
-0.173297
-0.179261
-0.186901
-0.196687
-0.207909
-0.222213
-0.233746
-0.251823
-0.241767
-0.269333
-0.131756
-0.183842
-0.17796
-0.176908
-0.174842
-0.174935
-0.17561
-0.177646
-0.18112
-0.18608
-0.192693
-0.201229
-0.211761
-0.224982
-0.240039
-0.259963
-0.277006
-0.309222
-0.30871
-0.37487
-0.254504
0.0621951
0.0615889
0.0627372
0.0618058
0.0638668
0.0625041
0.0660379
0.0643227
0.0701761
0.0683968
0.0782202
0.0770946
0.0942107
0.0950586
0.12704
0.132551
0.196669
0.205318
0.336578
0.205858
0.062177
0.0615802
0.0627042
0.0618052
0.0638182
0.0625324
0.0659712
0.0643525
0.0701158
0.0684926
0.0781964
0.0773802
0.0942741
0.0957346
0.127303
0.133726
0.195893
0.203616
0.320063
0.150426
0.062227
0.0616084
0.0627865
0.0618176
0.0639368
0.0625223
0.0661394
0.0643278
0.0703301
0.0683745
0.0784627
0.0769834
0.0946256
0.0948467
0.128059
0.132826
0.201165
0.213375
0.364413
0.318487
0.0622114
0.0616005
0.0627623
0.0618146
0.0639007
0.0625291
0.0660797
0.0643343
0.0702301
0.0683906
0.0783258
0.077038
0.0943904
0.0949676
0.127489
0.132724
0.198717
0.209211
0.350163
0.265635
0.0622512
0.0616213
0.0628234
0.0618268
0.0639905
0.0625334
0.0662178
0.0643339
0.0704447
0.0683625
0.078645
0.0769019
0.0949343
0.0946686
0.128778
0.132862
0.204034
0.218946
0.380224
0.40658
0.0622403
0.0616164
0.0628066
0.0618247
0.0639657
0.0625355
0.066177
0.0643362
0.0703695
0.0683673
0.078537
0.0769213
0.0947377
0.0947051
0.128279
0.132685
0.202187
0.215671
0.371714
0.368919
0.0622625
0.0616271
0.0628403
0.0618316
0.0640151
0.0625394
0.0662536
0.0643383
0.0704944
0.0683594
0.0787288
0.0768664
0.0950766
0.0945859
0.129097
0.132854
0.205212
0.221503
0.386181
0.448097
0.0622586
0.0616255
0.0628343
0.0618309
0.0640063
0.0625399
0.0662389
0.0643388
0.0704666
0.0683605
0.078689
0.076872
0.0950033
0.0945961
0.12891
0.132785
0.204551
0.22028
0.383387
0.4346
0.0622586
0.0616255
0.0628343
0.0618309
0.0640063
0.0625399
0.0662389
0.0643388
0.0704666
0.0683605
0.078689
0.076872
0.0950033
0.0945961
0.12891
0.132785
0.204551
0.22028
0.383387
0.4346
0.0622625
0.0616271
0.0628403
0.0618316
0.0640151
0.0625394
0.0662536
0.0643383
0.0704944
0.0683594
0.0787288
0.0768664
0.0950766
0.0945859
0.129097
0.132854
0.205212
0.221503
0.386181
0.448097
0.0622403
0.0616164
0.0628066
0.0618247
0.0639657
0.0625355
0.066177
0.0643362
0.0703695
0.0683673
0.078537
0.0769213
0.0947377
0.0947051
0.128279
0.132685
0.202187
0.215671
0.371714
0.368919
0.0622512
0.0616213
0.0628234
0.0618268
0.0639905
0.0625334
0.0662178
0.0643339
0.0704447
0.0683625
0.078645
0.0769019
0.0949343
0.0946686
0.128778
0.132862
0.204034
0.218946
0.380224
0.40658
0.0622114
0.0616005
0.0627623
0.0618146
0.0639007
0.0625291
0.0660797
0.0643343
0.0702301
0.0683906
0.0783258
0.077038
0.0943904
0.0949676
0.127489
0.132724
0.198717
0.209211
0.350163
0.265635
0.062227
0.0616084
0.0627865
0.0618176
0.0639368
0.0625223
0.0661394
0.0643278
0.0703301
0.0683745
0.0784627
0.0769834
0.0946256
0.0948467
0.128059
0.132826
0.201165
0.213375
0.364413
0.318487
0.062177
0.0615802
0.0627042
0.0618052
0.0638182
0.0625324
0.0659712
0.0643525
0.0701158
0.0684926
0.0781964
0.0773802
0.0942741
0.0957346
0.127303
0.133726
0.195893
0.203616
0.320063
0.150426
0.0621951
0.0615889
0.0627372
0.0618058
0.0638668
0.0625041
0.0660379
0.0643227
0.0701761
0.0683968
0.0782202
0.0770946
0.0942107
0.0950586
0.12704
0.132551
0.196669
0.205318
0.336578
0.205858
-0.183842
-0.17796
-0.176908
-0.174842
-0.174935
-0.17561
-0.177646
-0.18112
-0.18608
-0.192693
-0.201229
-0.211761
-0.224982
-0.240039
-0.259963
-0.277006
-0.309222
-0.30871
-0.37487
-0.254504
-0.176156
-0.169813
-0.168102
-0.165084
-0.16414
-0.163618
-0.164223
-0.165967
-0.168942
-0.173297
-0.179261
-0.186901
-0.196687
-0.207909
-0.222213
-0.233746
-0.251823
-0.241767
-0.269333
-0.131756
-0.197407
-0.192799
-0.191913
-0.191202
-0.19188
-0.193427
-0.19623
-0.200367
-0.205995
-0.213343
-0.222845
-0.234664
-0.250202
-0.26835
-0.295282
-0.320892
-0.373422
-0.401285
-0.509022
-0.485305
-0.190961
-0.1857
-0.184747
-0.183591
-0.184081
-0.185272
-0.187699
-0.191558
-0.196838
-0.203724
-0.212558
-0.223438
-0.23748
-0.253674
-0.277297
-0.298786
-0.346316
-0.36491
-0.476492
-0.436445
-0.209924
-0.206579
-0.206158
-0.206208
-0.207655
-0.21033
-0.214405
-0.219912
-0.227164
-0.236407
-0.248123
-0.262578
-0.281173
-0.303262
-0.334297
-0.368157
-0.424501
-0.476508
-0.576794
-0.609661
-0.203643
-0.19969
-0.198961
-0.198583
-0.199556
-0.201631
-0.205043
-0.209773
-0.216136
-0.224374
-0.234962
-0.248109
-0.265279
-0.285479
-0.314806
-0.344982
-0.400697
-0.447598
-0.559258
-0.603509
-0.221907
-0.219669
-0.219969
-0.221013
-0.22347
-0.227252
-0.232523
-0.239405
-0.248134
-0.258979
-0.272382
-0.288799
-0.309271
-0.334259
-0.366819
-0.406815
-0.462883
-0.525859
-0.608219
-0.651081
-0.216064
-0.213294
-0.21322
-0.213767
-0.215715
-0.218952
-0.223632
-0.229851
-0.237867
-0.24794
-0.260517
-0.275997
-0.295532
-0.3193
-0.351205
-0.38951
-0.446364
-0.509684
-0.607334
-0.669762
-0.232083
-0.230801
-0.231839
-0.233803
-0.237248
-0.242107
-0.24854
-0.256678
-0.266749
-0.279024
-0.293914
-0.311903
-0.333835
-0.360391
-0.393465
-0.434251
-0.488541
-0.549114
-0.605575
-0.647342
-0.227256
-0.225513
-0.226181
-0.227689
-0.230631
-0.234943
-0.240783
-0.24828
-0.257663
-0.269205
-0.283332
-0.300535
-0.321757
-0.347692
-0.380716
-0.422061
-0.478568
-0.543488
-0.620536
-0.67825
-0.239941
-0.239499
-0.241291
-0.244158
-0.248621
-0.254592
-0.262241
-0.271702
-0.283196
-0.296982
-0.313437
-0.33303
-0.35647
-0.384181
-0.417499
-0.456873
-0.50454
-0.553888
-0.582737
-0.613449
-0.236304
-0.23545
-0.236858
-0.23926
-0.243207
-0.248608
-0.25563
-0.264405
-0.275152
-0.288134
-0.30374
-0.322446
-0.345068
-0.372328
-0.406107
-0.447389
-0.501223
-0.560582
-0.606734
-0.65419
-0.245363
-0.245721
-0.248306
-0.252108
-0.257614
-0.264742
-0.273675
-0.284542
-0.297551
-0.312946
-0.331045
-0.352266
-0.37732
-0.406166
-0.43843
-0.475486
-0.514849
-0.539491
-0.564758
-0.565543
-0.242944
-0.242895
-0.245076
-0.248401
-0.253374
-0.259907
-0.268175
-0.278311
-0.290522
-0.305052
-0.322226
-0.342475
-0.366497
-0.394625
-0.428063
-0.4684
-0.514939
-0.557554
-0.58485
-0.604331
-0.248596
-0.249772
-0.25318
-0.257968
-0.264589
-0.272979
-0.28333
-0.295765
-0.31047
-0.327657
-0.347595
-0.370598
-0.397356
-0.42824
-0.460815
-0.494686
-0.531661
-0.543017
-0.552781
-0.506664
-0.247208
-0.247971
-0.250964
-0.255238
-0.261277
-0.269002
-0.2786
-0.290197
-0.303986
-0.320182
-0.339031
-0.360779
-0.385981
-0.414653
-0.445547
-0.480815
-0.521342
-0.540396
-0.565229
-0.543701
0.000199991
0.000597945
0.000996622
0.00139473
0.0017931
0.0021912
0.00258935
0.00298732
0.00338523
0.00378299
0.00418062
0.00457809
0.0049754
0.00537253
0.00576947
0.00616622
0.00656276
0.0069591
0.00735523
0.00775115
0.00814687
0.00854241
0.00893777
0.00933299
0.0097281
0.0101232
0.0105182
0.0109133
0.0113086
0.0117042
0.0121001
0.0124967
0.012894
0.0132923
0.0136918
0.014093
0.0144961
0.0149016
0.01531
0.0157218
0.0161378
0.0165587
0.0169853
0.0174186
0.0178597
0.01831
0.0187707
0.0192435
0.0197302
0.0202327
0.0207532
0.0212942
0.0218584
0.022449
0.0230693
0.0237232
0.024415
0.0251494
0.025932
0.0267686
0.0276661
0.0286319
0.0296742
0.0308019
0.032024
0.0333497
0.0347878
0.0363454
0.0380272
0.0398343
0.0417614
0.0437946
0.045907
0.0480517
0.0501509
0.0520782
0.0536277
0.0544631
0.0540485
0.051747
0.0463989
0.0363218
0.0193618
-0.00709229
-0.0457426
-0.098939
-0.167194
-0.249914
-0.340104
-0.430559
-0.512632
-0.577668
-0.619986
-0.635907
-0.624121
-0.586663
-0.54094
-0.495521
-0.481252
-0.478203
0.000200628
0.000600015
0.00100008
0.00139961
0.0017994
0.00219892
0.00259848
0.00299784
0.00339713
0.00379625
0.00419523
0.00459402
0.00499263
0.00539103
0.00578922
0.00618719
0.00658493
0.00698243
0.00737969
0.00777672
0.00817351
0.00857007
0.00896643
0.00936261
0.00975865
0.0101546
0.0105505
0.0109464
0.0113424
0.0117387
0.0121353
0.0125324
0.0129303
0.0133291
0.0137292
0.0141307
0.0145342
0.01494
0.0153486
0.0157607
0.0161768
0.0165977
0.0170243
0.0174576
0.0178987
0.0183488
0.0188093
0.0192818
0.019768
0.02027
0.0207899
0.02133
0.0218931
0.0224823
0.0231007
0.023752
0.0244404
0.0251703
0.0259468
0.0267756
0.0276626
0.0286148
0.0296393
0.0307439
0.0319362
0.0332237
0.0346127
0.0361075
0.0377093
0.0394143
0.0412115
0.0430794
0.0449812
0.0468568
0.0486117
0.0500974
0.0510812
0.0512055
0.0499503
0.0463755
0.0391649
0.026625
0.00647247
-0.0239424
-0.067217
-0.125271
-0.198116
-0.283438
-0.374299
-0.463096
-0.53948
-0.596588
-0.630211
-0.63841
-0.61869
-0.577338
-0.532186
-0.491494
-0.485223
-0.479525
0.00019916
0.000595488
0.000992587
0.0013891
0.0017859
0.00218242
0.00257899
0.00297538
0.00337172
0.00376789
0.00416396
0.00455985
0.0049556
0.00535117
0.00574656
0.00614175
0.00653675
0.00693155
0.00732616
0.00772056
0.00811478
0.00850882
0.00890271
0.00929647
0.00969015
0.0100838
0.0104774
0.0108712
0.0112651
0.0116594
0.0120541
0.0124494
0.0128455
0.0132426
0.0136411
0.0140412
0.0144433
0.0148478
0.0152553
0.0156663
0.0160815
0.0165016
0.0169275
0.0173602
0.0178008
0.0182505
0.0187108
0.0191832
0.0196695
0.0201717
0.0206921
0.0212332
0.0217978
0.0223891
0.0230107
0.0236666
0.0243614
0.0251003
0.0258893
0.026735
0.0276452
0.0286284
0.0296941
0.0308531
0.0321166
0.0334967
0.0350056
0.0366547
0.0384543
0.0404121
0.0425314
0.0448091
0.0472323
0.0497721
0.0523755
0.0549503
0.0573415
0.0592939
0.060385
0.0599442
0.0568588
0.0497301
0.0365865
0.0149157
-0.0180045
-0.0648038
-0.127069
-0.20376
-0.290358
-0.38123
-0.466745
-0.538433
-0.589424
-0.615427
-0.612821
-0.58332
-0.541438
-0.496584
-0.471964
-0.465938
0.000199556
0.00059671
0.000994625
0.00139198
0.00178961
0.00218696
0.00258436
0.00298158
0.00337873
0.00377571
0.00417257
0.00456926
0.00496578
0.00536211
0.00575825
0.00615419
0.00654992
0.00694544
0.00734075
0.00773585
0.00813075
0.00852546
0.00892001
0.00931442
0.00970873
0.010103
0.0104973
0.0108916
0.0112861
0.0116809
0.0120762
0.012472
0.0128687
0.0132664
0.0136653
0.0140659
0.0144685
0.0148735
0.0152814
0.0156928
0.0161084
0.016529
0.0169553
0.0173883
0.0178293
0.0182794
0.01874
0.0192127
0.0196994
0.0202019
0.0207226
0.0212639
0.0218287
0.0224201
0.0230415
0.0236971
0.0243913
0.0251291
0.0259164
0.0267595
0.0276658
0.0286433
0.0297011
0.0308488
0.0320969
0.0334559
0.0349363
0.0365475
0.0382973
0.0401903
0.0422261
0.0443971
0.0466845
0.0490525
0.0514387
0.0537385
0.0557793
0.0572748
0.0577374
0.0564328
0.0524034
0.0440315
0.029182
0.00524057
-0.0305771
-0.0808464
-0.146516
-0.226792
-0.316204
-0.408164
-0.49268
-0.561678
-0.609046
-0.629592
-0.62232
-0.588562
-0.543963
-0.497797
-0.475901
-0.469387
0.000198597
0.000593836
0.000989842
0.00138527
0.00178099
0.00217643
0.00257192
0.00296724
0.0033625
0.0037576
0.00415259
0.00454743
0.00494211
0.00533662
0.00573096
0.00612511
0.00651908
0.00691285
0.00730644
0.00769984
0.00809307
0.00848613
0.00887906
0.00927188
0.00966463
0.0100574
0.0104501
0.010843
0.0112362
0.0116296
0.0120236
0.0124181
0.0128136
0.0132101
0.0136079
0.0140075
0.0144091
0.0148131
0.0152202
0.0156309
0.0160457
0.0164656
0.0168914
0.0173239
0.0177645
0.0182142
0.0186746
0.0191471
0.0196337
0.0201364
0.0206574
0.0211992
0.0217648
0.0223575
0.0229809
0.0236392
0.0243373
0.0250807
0.0258756
0.0267293
0.0276501
0.0286473
0.0297317
0.0309151
0.0322105
0.033632
0.0351942
0.0369119
0.038799
0.040868
0.0431281
0.0455834
0.0482299
0.0510505
0.0540064
0.057024
0.059972
0.0626254
0.0646075
0.0653087
0.063774
0.0586926
0.0482036
0.029936
0.00121868
-0.0404897
-0.0979699
-0.16911
-0.252063
-0.34114
-0.427575
-0.502574
-0.558555
-0.590005
-0.593898
-0.569943
-0.531082
-0.487467
-0.457762
-0.442968
0.00019884
0.000594558
0.000991041
0.00138695
0.00178315
0.00217907
0.00257504
0.00297083
0.00336657
0.00376215
0.00415761
0.0045529
0.00494805
0.00534302
0.00573781
0.00613241
0.00652683
0.00692105
0.00731507
0.00770891
0.00810256
0.00849606
0.00888941
0.00928264
0.00967581
0.0100689
0.0104621
0.0108554
0.0112489
0.0116428
0.0120371
0.012432
0.0128278
0.0132246
0.0136228
0.0140227
0.0144246
0.0148289
0.0152363
0.0156472
0.0160623
0.0164824
0.0169084
0.0173411
0.0177818
0.0182317
0.0186922
0.0191649
0.0196516
0.0201544
0.0206754
0.0212172
0.0217828
0.0223753
0.0229984
0.0236563
0.0243537
0.0250961
0.0258896
0.0267412
0.0276591
0.0286522
0.0297309
0.0309064
0.0321911
0.0335981
0.0351409
0.0368328
0.0386861
0.0407113
0.0429151
0.0452986
0.047854
0.0505593
0.0533697
0.0562029
0.058916
0.0612672
0.0628531
0.0630352
0.0609089
0.0550642
0.0435467
0.0238977
-0.00662192
-0.0506803
-0.110425
-0.184314
-0.269691
-0.360404
-0.44731
-0.521714
-0.576306
-0.604948
-0.605377
-0.579292
-0.53827
-0.493194
-0.463794
-0.451469
0.000198349
0.000593115
0.000988636
0.00138359
0.00177883
0.00217379
0.00256881
0.00296365
0.00335844
0.00375307
0.00414759
0.00454196
0.00493618
0.00533022
0.0057241
0.0061178
0.00651132
0.00690465
0.00729779
0.00769076
0.00808356
0.00847621
0.00886873
0.00926114
0.0096535
0.0100459
0.0104383
0.0108308
0.0112236
0.0116167
0.0120103
0.0124046
0.0127998
0.013196
0.0135936
0.013993
0.0143944
0.0147983
0.0152052
0.0156157
0.0160305
0.0164503
0.016876
0.0173086
0.0177492
0.018199
0.0186595
0.0191322
0.019619
0.020122
0.0206433
0.0211856
0.0217518
0.0223453
0.0229697
0.0236293
0.0243291
0.0250747
0.0258726
0.0267302
0.0276561
0.0286601
0.0297533
0.0309482
0.0322587
0.0336996
0.0352867
0.0370363
0.038964
0.0410843
0.0434091
0.0459458
0.0486942
0.051642
0.0547566
0.0579719
0.0611661
0.0641271
0.0664981
0.0676948
0.066822
0.0626162
0.0532838
0.0365285
0.00971183
-0.0297913
-0.0843667
-0.153091
-0.233864
-0.321535
-0.407855
-0.483906
-0.541786
-0.575239
-0.581265
-0.560235
-0.522854
-0.479567
-0.44785
-0.425617
0.000198431
0.000593357
0.000989037
0.00138415
0.00177955
0.00217467
0.00256985
0.00296485
0.00335979
0.00375458
0.00414926
0.00454378
0.00493816
0.00533236
0.00572639
0.00612024
0.00651391
0.00690739
0.00730069
0.0076938
0.00808675
0.00847954
0.00887221
0.00926477
0.00965727
0.0100498
0.0104423
0.010835
0.0112279
0.0116211
0.0120149
0.0124093
0.0128046
0.0132009
0.0135986
0.0139981
0.0143996
0.0148036
0.0152106
0.0156212
0.0160361
0.016456
0.0168817
0.0173144
0.017755
0.0182048
0.0186653
0.0191381
0.0196249
0.0201279
0.0206492
0.0211915
0.0217576
0.022351
0.0229752
0.0236347
0.0243342
0.0250794
0.0258767
0.0267336
0.0276584
0.0286609
0.0297521
0.0309442
0.0322509
0.0336866
0.0352669
0.0370073
0.038923
0.0410279
0.0433329
0.0458444
0.0485609
0.0514685
0.0545327
0.0576847
0.0607993
0.0636597
0.0659002
0.0669238
0.0658506
0.0613885
0.0517084
0.0344768
0.00702864
-0.033118
-0.0888904
-0.158475
-0.240199
-0.328636
-0.415332
-0.491398
-0.548986
-0.58165
-0.586319
-0.564672
-0.526607
-0.482845
-0.451078
-0.430478
0.060676
0.0605658
0.0603516
0.0600303
0.0595512
0.0588961
0.0579296
0.0567343
0.0550505
0.0524501
0.0488794
0.0442803
0.0369199
0.0279304
0.0130574
-0.00372651
-0.0315169
-0.0590728
-0.105767
-0.143819
0.0607388
0.0606084
0.0604711
0.0601173
0.0597959
0.0590828
0.0584335
0.0571292
0.0558515
0.0533009
0.0503717
0.0459157
0.0392791
0.0310807
0.017003
0.00194211
-0.0258866
-0.0506074
-0.0996245
-0.135486
0.0607891
0.0606448
0.0605601
0.0601896
0.0599689
0.0592347
0.0587453
0.0574433
0.0563736
0.0539783
0.051353
0.047257
0.0411439
0.0335958
0.0202265
0.00628263
-0.0212435
-0.044402
-0.0950816
-0.129844
0.0608542
0.0606901
0.0606691
0.060275
0.0601815
0.0594096
0.0591598
0.0578098
0.0571302
0.0547431
0.0527049
0.0487748
0.0434318
0.036461
0.0241073
0.0112438
-0.0157084
-0.0372871
-0.0899177
-0.123493
0.0609255
0.0607404
0.060785
0.0603684
0.0604037
0.0596001
0.0595812
0.0582052
0.0578797
0.0555591
0.0541025
0.0503938
0.0459487
0.0395285
0.0284236
0.0165203
-0.00948878
-0.029775
-0.0843474
-0.117045
0.061003
0.0607949
0.0609081
0.0604677
0.0606366
0.0598005
0.0600228
0.0586207
0.0586937
0.0564144
0.0556153
0.0520937
0.0486951
0.0427687
0.0331658
0.0220958
-0.00256164
-0.0218366
-0.0782546
-0.110381
0.0610861
0.0608528
0.0610372
0.0605718
0.0608785
0.0600094
0.0604812
0.0590546
0.0595486
0.0573042
0.0572214
0.0538602
0.0516586
0.0461682
0.0383419
0.0279717
0.00514895
-0.0134259
-0.0714458
-0.103393
0.0611735
0.0609132
0.0611712
0.0606793
0.0611268
0.0602247
0.0609513
0.0595025
0.0604344
0.0582221
0.0589024
0.0556848
0.0548173
0.0496974
0.0439614
0.034145
0.013712
-0.00451263
-0.0636866
-0.096047
0.0612642
0.0609751
0.0613085
0.060789
0.0613789
0.0604441
0.0614284
0.0599598
0.0613414
0.059161
0.0606407
0.0575584
0.0581381
0.0533286
0.0500229
0.0406258
0.0231942
0.00493878
-0.0546972
-0.0882955
0.0613571
0.0610379
0.0614479
0.0609006
0.0616322
0.0606653
0.0619076
0.060422
0.0622588
0.0601133
0.0624162
0.0594699
0.061583
0.0570524
0.0564893
0.0474371
0.0336718
0.0149687
-0.0441293
-0.0801336
0.0614511
0.0611007
0.0615877
0.0610109
0.0618844
0.0608862
0.0623838
0.0608846
0.0631755
0.0610707
0.0642073
0.061407
0.0651105
0.0608643
0.0633148
0.0545483
0.0452735
0.0256344
-0.0315733
-0.0716117
0.061545
0.0611628
0.0617265
0.06112
0.0621329
0.061105
0.0628523
0.0613433
0.0640802
0.0620241
0.065991
0.0633553
0.0686756
0.0647525
0.0704069
0.0619401
0.0580923
0.0370571
-0.0165362
-0.0628593
0.0616376
0.0612235
0.061863
0.0612267
0.0623753
0.0613197
0.0633083
0.0617934
0.0649621
0.0629642
0.0677444
0.0652982
0.0722304
0.0686949
0.0776686
0.0696254
0.0720981
0.0495149
0.00156994
-0.0540894
0.0617277
0.0612822
0.0619957
0.0613298
0.0626093
0.0615281
0.0637474
0.0622304
0.065811
0.063881
0.0694452
0.0672169
0.0757255
0.072664
0.0849927
0.0776265
0.0871848
0.0633504
0.0234267
-0.0455203
0.061814
0.0613383
0.0621231
0.0614282
0.0628324
0.061728
0.0641649
0.0626493
0.0666174
0.064764
0.0710728
0.06909
0.0791117
0.0766251
0.092263
0.0859448
0.10315
0.0786601
0.0500966
-0.037129
0.0618953
0.0613915
0.0622438
0.0615206
0.0630424
0.0619164
0.0645561
0.0630447
0.0673729
0.0656029
0.0726086
0.0708929
0.0823427
0.080533
0.0993638
0.0945366
0.119694
0.0956868
0.0823673
-0.0283451
0.0619703
0.0614413
0.0623565
0.0616059
0.0632372
0.0620902
0.0649165
0.0634119
0.0680702
0.066386
0.0740363
0.072597
0.085375
0.0843263
0.106184
0.103308
0.136527
0.114668
0.120905
-0.0175819
0.0620377
0.0614873
0.0624599
0.0616823
0.0634137
0.0622602
0.0652441
0.0637448
0.0687056
0.0670993
0.0753432
0.0741683
0.0881715
0.0879202
0.11262
0.112101
0.153337
0.135762
0.16635
-0.0019071
0.0620965
0.0615292