/*--------------------------------*- C++ -*----------------------------------*\
  =========                 |
  \\      /  F ield         | OpenFOAM: The Open Source CFD Toolbox
   \\    /   O peration     | Website:  https://openfoam.org
    \\  /    A nd           | Version:  7
     \\/     M anipulation  |
\*---------------------------------------------------------------------------*/
FoamFile
{
    version     2.0;
    format      ascii;
    class       surfaceScalarField;
    location    "20";
    object      phi;
}
// * * * * * * * * * * * * * * * * * * * * * * * * * * * * * * * * * * * * * //

dimensions      [0 3 -1 0 0 0 0];

internalField   nonuniform List<scalar> 
84
(
-0.000227068
-0.0187836
0.000258594
-0.0186794
0.000747046
-0.0185583
0.00119975
-0.0184299
0.00165887
-0.0183462
-0.000224961
-0.0192805
0.000249127
-0.0191534
0.000717702
-0.0190269
0.00114932
-0.0188615
-0.0187589
-0.000216179
-0.0197711
0.000250743
-0.0196204
0.00070885
-0.019485
0.00112648
-0.0192791
-0.0191505
-0.000209793
-0.0202548
0.000247764
-0.0200779
0.000691338
-0.0199286
0.00109089
-0.0196787
-0.0195076
-0.000201036
-0.0207325
0.000248702
-0.0205277
0.000681104
-0.020361
0.00106507
-0.0200626
-0.0198396
-0.000192158
-0.0212045
0.000249873
-0.0209697
0.000671132
-0.0207823
0.00104035
-0.0204318
-0.0201455
-0.000182001
-0.0216713
0.000253177
-0.0214049
0.000665125
-0.0211942
0.0010218
-0.0207885
-0.0204312
-0.000171187
-0.0221333
0.00025743
-0.0218335
0.000660833
-0.0215976
0.00100592
-0.0211336
-0.0206986
-0.00015942
-0.022591
0.000263545
-0.0222564
0.000659952
-0.021994
0.000995669
-0.0214693
-0.000147151
0.000273193
0.000663158
)
;

boundaryField
{
    inlet
    {
        type            calculated;
        value           nonuniform 0();
    }
    outlet
    {
        type            calculated;
        value           nonuniform 0();
    }
    polygon
    {
        type            calculated;
        value           nonuniform 0();
    }
    top
    {
        type            symmetryPlane;
        value           uniform 0;
    }
    bottom
    {
        type            symmetryPlane;
        value           uniform 0;
    }
    outside
    {
        type            calculated;
        value           nonuniform List<scalar> 10(0.000732015 0.000721814 0.000706752 0.000693521 0.000678748 0.000664139 0.000648828 0.000633204 0.000617089 0.000598993);
    }
    procBoundary1to0
    {
        type            processor;
        value           nonuniform List<scalar> 4(-0.0230428 -0.0226768 -0.022384 -0.0218023);
    }
    procBoundary1to2
    {
        type            processor;
        value           nonuniform List<scalar> 6(0.0182787 0.0181937 0.0180699 0.0179772 0.0178871 0.0178969);
    }
    procBoundary1to5
    {
        type            processor;
        value           nonuniform List<scalar> 
12
(
0.00204385
-0.0182818
0.00156204
0.0015181
0.00144796
0.00139706
0.00134625
0.00130756
0.00127332
0.00124773
-0.0209507
0.000996146
)
;
    }
}


// ************************************************************************* //
