/*--------------------------------*- C++ -*----------------------------------*\
  =========                 |
  \\      /  F ield         | OpenFOAM: The Open Source CFD Toolbox
   \\    /   O peration     | Website:  https://openfoam.org
    \\  /    A nd           | Version:  7
     \\/     M anipulation  |
\*---------------------------------------------------------------------------*/
FoamFile
{
    version     2.0;
    format      ascii;
    class       surfaceScalarField;
    location    "10";
    object      phi;
}
// * * * * * * * * * * * * * * * * * * * * * * * * * * * * * * * * * * * * * //

dimensions      [0 3 -1 0 0 0 0];

internalField   nonuniform List<scalar> 
84
(
-0.00142659
0.0189343
-0.00212692
0.0188812
-0.00283269
0.0187895
-0.00355785
0.0187482
-0.00431912
0.0187209
-0.00144272
0.0196383
-0.00214771
0.0195862
-0.00286097
0.0195028
-0.0035945
0.0194817
0.0194882
-0.00145783
0.0203438
-0.00216681
0.0202952
-0.00288747
0.0202234
-0.00363153
0.0202258
0.0202675
-0.00147148
0.0210504
-0.00218408
0.0210078
-0.00291057
0.0209499
-0.00366213
0.0209773
0.0210514
-0.0014839
0.0217576
-0.00219968
0.0217236
-0.00293168
0.0216819
-0.0036908
0.0217364
0.0218347
-0.00149455
0.0224652
-0.00221351
0.0224425
-0.0029495
0.0224179
-0.00370912
0.0224961
0.0225994
-0.00150455
0.0231726
-0.00222548
0.0231634
-0.00296488
0.0231573
-0.0037263
0.0232575
0.0233474
-0.00151152
0.02388
-0.00223555
0.0238875
-0.00297716
0.0238989
-0.00372891
0.0240092
0.0240474
-0.00152021
0.0245856
-0.00224382
0.0246111
-0.00298479
0.0246399
-0.00373045
0.0247549
-0.00152002
-0.00225203
-0.00299477
)
;

boundaryField
{
    inlet
    {
        type            calculated;
        value           nonuniform 0();
    }
    outlet
    {
        type            calculated;
        value           nonuniform 0();
    }
    polygon
    {
        type            calculated;
        value           nonuniform 0();
    }
    top
    {
        type            symmetryPlane;
        value           uniform 0;
    }
    bottom
    {
        type            symmetryPlane;
        value           uniform 0;
    }
    outside
    {
        type            calculated;
        value           nonuniform List<scalar> 10(0.000724185 0.000738751 0.000752353 0.000764878 0.000776693 0.000786892 0.000797187 0.000804102 0.000814636 0.000815503);
    }
    procBoundary14to10
    {
        type            processor;
        value           nonuniform List<scalar> 
12
(
-0.005117
0.0187847
-0.00436176
-0.00441085
-0.004446
-0.00447406
-0.00447386
-0.00447431
-0.00442891
-0.00440019
0.0247172
-0.00372268
)
;
    }
    procBoundary14to13
    {
        type            processor;
        value           nonuniform List<scalar> 6(-0.0182319 -0.0181808 -0.0180838 -0.018023 -0.0179597 -0.0179868);
    }
    procBoundary14to15
    {
        type            processor;
        value           nonuniform List<scalar> 4(0.0252901 0.0253431 0.0253826 0.0254828);
    }
}


// ************************************************************************* //
