/*--------------------------------*- C++ -*----------------------------------*\
  =========                 |
  \\      /  F ield         | OpenFOAM: The Open Source CFD Toolbox
   \\    /   O peration     | Website:  https://openfoam.org
    \\  /    A nd           | Version:  7
     \\/     M anipulation  |
\*---------------------------------------------------------------------------*/
FoamFile
{
    version     2.0;
    format      ascii;
    class       volVectorField;
    location    "114";
    object      U;
}
// * * * * * * * * * * * * * * * * * * * * * * * * * * * * * * * * * * * * * //

dimensions      [0 1 -1 0 0 0 0];

internalField   nonuniform List<vector> 
7360
(
(-0.314906 -1.91256e-05 4.99967e-20)
(-0.314987 -7.79409e-05 1.72873e-19)
(-0.315212 -0.000171594 2.3636e-19)
(-0.315619 -0.000247024 9.92545e-19)
(-0.316144 -0.000287121 -4.35097e-19)
(-0.316719 -0.000286291 9.96302e-19)
(-0.317277 -0.000244756 8.02564e-19)
(-0.317755 -0.000167236 -6.6643e-19)
(-0.318102 -6.02405e-05 1.87917e-18)
(-0.318278 6.76504e-05 2.71186e-18)
(-0.318253 0.000213289 2.78802e-19)
(-0.318005 0.000369257 1.90753e-18)
(-0.31752 0.000530003 2.0659e-18)
(-0.316794 0.000691599 2.93518e-18)
(-0.315825 0.000850325 6.03521e-19)
(-0.314618 0.00100302 2.96456e-18)
(-0.313179 0.00114716 7.01658e-18)
(-0.311519 0.00128073 -1.41382e-18)
(-0.309648 0.00140227 4.50899e-18)
(-0.307582 0.00151074 8.43184e-18)
(-0.305335 0.00160552 -9.15043e-19)
(-0.302922 0.00168631 6.7579e-19)
(-0.300361 0.00175308 5.92558e-18)
(-0.297669 0.00180603 -1.51804e-18)
(-0.294864 0.00184552 1.60446e-18)
(-0.291965 0.00187206 6.91254e-18)
(-0.28899 0.00188626 1.14135e-18)
(-0.28596 0.00188884 5.60461e-18)
(-0.282892 0.0018806 1.08425e-17)
(-0.279806 0.00186242 -5.65914e-19)
(-0.27672 0.00183526 3.1637e-18)
(-0.273653 0.00180014 2.2082e-18)
(-0.27062 0.00175814 -6.76738e-19)
(-0.267639 0.00171035 4.26824e-18)
(-0.264724 0.00165789 1.27764e-18)
(-0.261889 0.00160184 2.67268e-19)
(-0.259146 0.00154325 3.24531e-18)
(-0.256506 0.00148308 1.10935e-18)
(-0.253978 0.0014222 4.15951e-18)
(-0.25157 0.00136137 1.95596e-18)
(-0.249289 0.00130122 2.13157e-18)
(-0.247138 0.00124224 9.80348e-18)
(-0.245121 0.0011848 3.87472e-18)
(-0.24324 0.00112912 1.85804e-18)
(-0.241497 0.00107532 2.21061e-19)
(-0.23989 0.0010233 -3.92951e-18)
(-0.238417 0.000973009 7.71713e-18)
(-0.237077 0.000924234 4.38946e-19)
(-0.235866 0.000876677 -2.72721e-18)
(-0.23478 0.000829985 9.63366e-18)
(-0.233814 0.000783766 3.70924e-18)
(-0.232962 0.000737614 -2.26955e-18)
(-0.232219 0.000691122 -6.29882e-19)
(-0.231578 0.000643707 3.54835e-18)
(-0.231033 0.000595057 3.66289e-19)
(-0.230576 0.000545056 2.51739e-18)
(-0.230202 0.000493494 1.67474e-18)
(-0.229903 0.00044027 7.94734e-18)
(-0.229672 0.000385401 4.35939e-18)
(-0.229502 0.000328812 7.53478e-19)
(-0.229385 0.000271065 7.05942e-18)
(-0.229314 0.000212708 8.37203e-18)
(-0.229283 0.00015451 3.54948e-18)
(-0.229284 9.72475e-05 -9.5736e-20)
(-0.229311 4.16748e-05 -3.93302e-18)
(-0.229355 -1.20645e-05 -7.15978e-18)
(-0.229409 -6.20766e-05 -7.95499e-19)
(-0.229467 -0.000106231 1.44373e-18)
(-0.229519 -0.00014458 3.1571e-18)
(-0.229558 -0.000174817 -6.75396e-19)
(-0.229574 -0.000195471 -5.49813e-18)
(-0.229558 -0.000206175 -4.1939e-18)
(-0.2295 -0.000205087 -2.18295e-18)
(-0.229389 -0.000189893 -6.88061e-18)
(-0.229212 -0.000155488 1.98805e-18)
(-0.228958 -0.000100415 -9.56025e-19)
(-0.22861 -3.06447e-05 -3.90406e-18)
(-0.228148 5.53764e-05 -2.36979e-19)
(-0.22755 0.000162628 1.2521e-18)
(-0.226795 0.000289234 -2.13024e-18)
(-0.225857 0.000440343 -1.03423e-18)
(-0.224702 0.00061846 7.0226e-19)
(-0.223291 0.000826589 -1.12958e-17)
(-0.221577 0.00106895 -5.47037e-18)
(-0.219506 0.00135128 -5.27221e-18)
(-0.217009 0.00168139 8.95529e-19)
(-0.214003 0.00206992 -1.93132e-18)
(-0.210388 0.00253124 8.61993e-18)
(-0.206023 0.0030858 1.2694e-17)
(-0.200777 0.00375948 2.54659e-19)
(-0.194358 0.00459598 2.20517e-17)
(-0.186679 0.00562649 6.20416e-18)
(-0.176965 0.00698986 8.93907e-18)
(-0.165648 0.00858631 6.55239e-18)
(-0.150233 0.0110279 -3.29745e-18)
(-0.133271 0.0132703 1.13283e-19)
(-0.108487 0.0178431 1.07901e-17)
(-0.0813458 0.0198225 -1.04895e-17)
(-0.0465183 0.0235855 1.52772e-17)
(-0.0106306 0.017383 -6.44551e-19)
(-0.318092 -5.37947e-06 -3.98336e-20)
(-0.318158 -2.05053e-05 7.95877e-20)
(-0.318358 -4.53515e-05 -2.44364e-19)
(-0.318727 -6.36897e-05 -8.43213e-20)
(-0.319208 -7.02214e-05 3.94774e-20)
(-0.319736 -6.32282e-05 -9.98086e-19)
(-0.320248 -4.27246e-05 5.52681e-19)
(-0.320681 -1.01414e-05 -1.17845e-19)
(-0.320986 3.25649e-05 1.29287e-18)
(-0.321121 8.19719e-05 -2.86128e-19)
(-0.321056 0.00013854 1.79123e-19)
(-0.32077 0.000197579 -4.68858e-19)
(-0.320247 0.000257485 -4.78415e-19)
(-0.319482 0.000316857 -3.50744e-19)
(-0.318476 0.000373959 -1.28363e-18)
(-0.31723 0.000427273 -1.23582e-18)
(-0.315752 0.000475566 -1.05091e-18)
(-0.314052 0.000517878 -3.81948e-18)
(-0.312141 0.000553542 3.48341e-18)
(-0.310034 0.000582175 4.44007e-18)
(-0.307745 0.000603655 -1.41587e-18)
(-0.305291 0.000618099 1.2116e-18)
(-0.302687 0.00062582 1.37338e-18)
(-0.299953 0.000627289 1.07409e-18)
(-0.297105 0.000623098 -3.79259e-18)
(-0.294164 0.000613911 7.00791e-18)
(-0.291147 0.000600441 5.0632e-18)
(-0.288075 0.000583459 4.94315e-18)
(-0.284966 0.000563733 5.34242e-18)
(-0.281839 0.000542022 8.42378e-19)
(-0.278713 0.000519074 -6.95741e-19)
(-0.275607 0.000495613 -4.45725e-18)
(-0.272536 0.000472326 -1.49038e-18)
(-0.269518 0.000449855 4.13025e-18)
(-0.266568 0.000428783 7.19164e-18)
(-0.263699 0.00040962 -4.18117e-19)
(-0.260923 0.000392793 1.44287e-18)
(-0.258253 0.000378627 -1.3818e-18)
(-0.255697 0.000367343 -1.9626e-18)
(-0.253263 0.000359048 2.70758e-19)
(-0.250957 0.000353733 3.28939e-18)
(-0.248784 0.000351273 6.34623e-18)
(-0.246749 0.000351434 7.09148e-18)
(-0.244852 0.000353879 -2.99043e-19)
(-0.243096 0.000358165 -1.40973e-19)
(-0.241478 0.000363944 -5.40098e-18)
(-0.239999 0.000370517 4.26112e-18)
(-0.238655 0.000377276 -2.05206e-18)
(-0.237443 0.000383582 -1.3829e-18)
(-0.236359 0.000388788 2.91928e-18)
(-0.235398 0.000392266 9.28097e-19)
(-0.234555 0.000393427 -2.77367e-18)
(-0.233824 0.000391755 -5.9725e-18)
(-0.233198 0.000386166 6.74065e-18)
(-0.232672 0.000376489 7.3244e-18)
(-0.232237 0.000362586 6.68108e-18)
(-0.231888 0.000343878 2.0385e-18)
(-0.231617 0.000320243 9.35857e-18)
(-0.231417 0.000291928 -4.4154e-18)
(-0.231281 0.000258882 -5.2136e-18)
(-0.231201 0.000221541 6.2537e-18)
(-0.231171 0.000180286 1.20684e-17)
(-0.231182 0.000136098 4.73307e-18)
(-0.231229 8.97883e-05 -7.36886e-18)
(-0.231304 4.23061e-05 -4.42246e-18)
(-0.231401 -4.42231e-06 -4.05535e-18)
(-0.23151 -5.17565e-05 -1.02776e-17)
(-0.231624 -9.70844e-05 3.87134e-18)
(-0.231736 -0.000141455 2.45294e-18)
(-0.231836 -0.000180462 3.43458e-19)
(-0.231917 -0.0002131 -7.99172e-19)
(-0.231969 -0.000237656 -7.32146e-18)
(-0.231982 -0.000253772 -1.7348e-18)
(-0.231944 -0.000261399 -1.59725e-18)
(-0.231844 -0.000260501 -5.88435e-18)
(-0.231668 -0.000250063 -6.94884e-18)
(-0.231398 -0.000225835 -9.03126e-18)
(-0.231018 -0.000187495 -9.13018e-19)
(-0.230508 -0.000138637 1.24856e-18)
(-0.229842 -8.30516e-05 -8.64006e-20)
(-0.228992 -1.58647e-05 -6.31999e-19)
(-0.227925 6.32707e-05 8.75277e-18)
(-0.226602 0.000154458 -9.65806e-19)
(-0.224975 0.000258253 -9.51237e-18)
(-0.222988 0.000375741 -3.94802e-18)
(-0.220571 0.000508744 7.97551e-18)
(-0.217636 0.00066018 1.39698e-18)
(-0.214083 0.000834464 7.07003e-18)
(-0.209763 0.00103791 8.11315e-18)
(-0.204539 0.00127871 1.51477e-18)
(-0.198111 0.00157221 7.57133e-18)
(-0.190379 0.00192739 1.5122e-17)
(-0.180547 0.00239539 3.71861e-18)
(-0.169009 0.00294087 1.23972e-17)
(-0.153283 0.00378492 -5.3993e-18)
(-0.135716 0.00454542 -1.05185e-18)
(-0.110288 0.00610523 1.17593e-17)
(-0.0819906 0.00677824 -4.7087e-18)
(-0.0458505 0.00798403 -1.24854e-18)
(-0.0101158 0.00580381 -7.6327e-20)
(-0.299651 -6.66197e-05 -3.76549e-20)
(-0.299822 -0.000236093 5.55342e-19)
(-0.300183 -0.000496499 4.90055e-20)
(-0.30079 -0.0007024 1.19322e-18)
(-0.301536 -0.000817116 1.48765e-19)
(-0.302335 -0.000830534 5.52698e-20)
(-0.303112 -0.000746391 -7.06991e-19)
(-0.303799 -0.000578075 -2.65973e-18)
(-0.304345 -0.000342076 1.30467e-18)
(-0.30471 -5.36102e-05 9.57833e-19)
(-0.30487 0.00026625 -2.53954e-18)
(-0.304803 0.000611244 5.82019e-19)
(-0.304498 0.000968186 -2.36492e-18)
(-0.303952 0.00132824 3.38477e-18)
(-0.303165 0.00168386 -1.65568e-18)
(-0.302142 0.0020288 8.64323e-19)
(-0.300891 0.00235814 2.08211e-18)
(-0.299421 0.00266798 -4.44101e-18)
(-0.297745 0.00295536 3.11673e-18)
(-0.295875 0.00321808 -6.82839e-20)
(-0.293827 0.00345457 1.25394e-18)
(-0.291615 0.00366375 3.83262e-18)
(-0.289255 0.00384497 -8.87342e-19)
(-0.286766 0.00399787 -4.54315e-18)
(-0.284163 0.00412239 2.45657e-18)
(-0.281465 0.00421868 1.79758e-18)
(-0.278691 0.00428713 5.21e-18)
(-0.275858 0.00432837 6.79148e-18)
(-0.272985 0.00434325 3.86985e-18)
(-0.27009 0.00433292 5.42208e-18)
(-0.267191 0.00429872 1.8395e-18)
(-0.264305 0.00424229 -2.51829e-18)
(-0.261449 0.00416545 -4.92889e-18)
(-0.258637 0.00407022 -9.32043e-19)
(-0.255885 0.00395875 4.87835e-18)
(-0.253205 0.00383327 1.14328e-18)
(-0.250608 0.00369602 4.59009e-18)
(-0.248105 0.00354924 2.18957e-18)
(-0.245705 0.00339507 5.27186e-19)
(-0.243413 0.00323552 1.32418e-18)
(-0.241237 0.00307247 -2.41044e-18)
(-0.239179 0.0029076 3.50334e-18)
(-0.237244 0.0027424 -4.08766e-19)
(-0.235432 0.00257817 1.29816e-18)
(-0.233743 0.00241599 -2.16362e-18)
(-0.232177 0.00225674 4.80662e-18)
(-0.230732 0.00210114 4.91143e-18)
(-0.229404 0.00194969 -6.77978e-19)
(-0.228191 0.00180276 6.43366e-18)
(-0.227087 0.00166055 -3.75155e-19)
(-0.226088 0.00152313 6.24723e-18)
(-0.225188 0.00139049 5.22965e-18)
(-0.224381 0.00126252 2.37061e-18)
(-0.223661 0.00113903 -6.59895e-19)
(-0.223021 0.00101984 2.2701e-18)
(-0.222454 0.000904898 8.12918e-19)
(-0.221955 0.000794087 6.48072e-18)
(-0.221514 0.000687361 -2.36743e-19)
(-0.221127 0.00058483 9.51416e-19)
(-0.220785 0.000486613 5.875e-18)
(-0.220482 0.00039315 9.46875e-19)
(-0.22021 0.000304997 -1.80828e-19)
(-0.219962 0.000222933 -6.45135e-18)
(-0.219732 0.000147841 3.13792e-19)
(-0.219512 8.08374e-05 7.28217e-18)
(-0.219293 2.42351e-05 8.29124e-19)
(-0.219071 -2.4145e-05 -2.14435e-18)
(-0.21884 -6.08719e-05 6.09026e-18)
(-0.21859 -8.66393e-05 1.23218e-18)
(-0.21831 -9.52104e-05 1.5422e-18)
(-0.217995 -8.48245e-05 9.125e-18)
(-0.217636 -5.83873e-05 8.39767e-18)
(-0.217218 -1.03553e-05 9.1273e-18)
(-0.216732 6.28628e-05 6.69833e-18)
(-0.216165 0.00015943 1.9232e-18)
(-0.215508 0.000281684 1.20673e-17)
(-0.214745 0.00043745 1.1399e-17)
(-0.213859 0.000630371 5.64652e-18)
(-0.212828 0.000861947 6.50568e-18)
(-0.211633 0.0011365 -2.05168e-19)
(-0.210248 0.00145967 -3.18616e-18)
(-0.208643 0.00183862 -5.85681e-19)
(-0.206783 0.00228207 -5.2496e-18)
(-0.204629 0.00280118 -4.0349e-18)
(-0.202132 0.00341045 -5.35657e-18)
(-0.199233 0.00412896 -4.90972e-18)
(-0.195862 0.00498177 4.42049e-18)
(-0.191937 0.00600243 8.26678e-18)
(-0.187343 0.0072363 1.36136e-18)
(-0.181975 0.00874285 8.7543e-18)
(-0.175602 0.0106131 1.64881e-17)
(-0.168189 0.0129294 5.28805e-18)
(-0.159069 0.0159579 8.74518e-18)
(-0.148838 0.0195381 1.37598e-17)
(-0.135025 0.0249039 5.5229e-18)
(-0.121065 0.029807 8.84741e-18)
(-0.0995479 0.0398389 8.54972e-18)
(-0.0784551 0.04325 2.30198e-18)
(-0.0496286 0.0520717 7.65514e-19)
(-0.0128595 0.0352202 5.89134e-18)
(-0.30867 -3.8523e-05 -1.20683e-20)
(-0.308783 -0.000148481 4.94786e-19)
(-0.309061 -0.000320193 -3.14144e-19)
(-0.309547 -0.000458646 1.22021e-18)
(-0.31016 -0.00053582 8.44701e-19)
(-0.310826 -0.000543044 1.38462e-18)
(-0.311473 -0.000481563 1.48964e-18)
(-0.312037 -0.000359922 -2.13841e-18)
(-0.312466 -0.000189343 5.56519e-19)
(-0.31272 1.98877e-05 2.88639e-18)
(-0.312772 0.000251771 -3.15153e-19)
(-0.312599 0.000502372 7.27462e-19)
(-0.312188 0.000761924 -7.5684e-20)
(-0.311536 0.00102381 1.89743e-18)
(-0.310642 0.00128228 2.12302e-18)
(-0.30951 0.00153258 3.63024e-18)
(-0.308148 0.00177087 5.94149e-18)
(-0.306566 0.00199418 -3.64671e-18)
(-0.304775 0.00220024 4.38613e-18)
(-0.302789 0.00238738 3.06657e-18)
(-0.300624 0.00255449 3.26756e-18)
(-0.298293 0.00270085 1.98571e-18)
(-0.295815 0.00282609 -9.67812e-19)
(-0.293206 0.00293011 7.40919e-19)
(-0.290484 0.00301306 1.19744e-18)
(-0.287668 0.00307524 5.61465e-18)
(-0.284776 0.00311716 5.50457e-18)
(-0.281827 0.00313946 4.35144e-18)
(-0.278839 0.00314297 7.95701e-18)
(-0.275832 0.0031287 2.55341e-18)
(-0.272824 0.00309779 1.82701e-18)
(-0.269831 0.00305156 2.57488e-19)
(-0.266872 0.00299146 -1.70975e-18)
(-0.263961 0.00291905 7.33961e-19)
(-0.261114 0.00283596 5.03457e-18)
(-0.258343 0.00274385 1.05177e-18)
(-0.255661 0.00264437 -5.9676e-19)
(-0.253079 0.00253912 4.01794e-18)
(-0.250604 0.00242963 4.95184e-18)
(-0.248245 0.00231729 4.70282e-18)
(-0.246008 0.00220336 3.47563e-18)
(-0.243896 0.00208895 4.54699e-18)
(-0.241914 0.001975 1.57405e-18)
(-0.240063 0.00186229 4.39722e-18)
(-0.238344 0.00175141 -1.44958e-19)
(-0.236755 0.00164281 3.47178e-18)
(-0.235295 0.00153683 9.46863e-19)
(-0.233962 0.00143361 -4.5639e-20)
(-0.232751 0.0013332 4.48671e-18)
(-0.231659 0.00123555 6.78884e-18)
(-0.230681 0.00114051 7.41388e-18)
(-0.229811 0.00104789 5.39044e-18)
(-0.229043 0.000957434 4.76398e-18)
(-0.228372 0.000868797 5.04601e-18)
(-0.22779 0.000781748 5.29202e-18)
(-0.22729 0.000696181 1.51867e-18)
(-0.226866 0.000611888 2.71523e-18)
(-0.226512 0.000528793 2.61565e-18)
(-0.226218 0.000447036 1.84557e-18)
(-0.22598 0.000366715 6.55244e-18)
(-0.225789 0.000288286 3.22318e-18)
(-0.225638 0.000212287 -1.62239e-18)
(-0.225521 0.000139565 3.63652e-18)
(-0.22543 7.1042e-05 4.99806e-18)
(-0.225358 7.60629e-06 6.34456e-18)
(-0.225299 -5.20999e-05 -1.05677e-18)
(-0.225246 -0.000108866 -6.21556e-18)
(-0.225187 -0.000156322 1.60326e-18)
(-0.225118 -0.000191043 6.68102e-18)
(-0.22503 -0.000214473 -4.45143e-18)
(-0.224913 -0.000224442 5.62538e-19)
(-0.224759 -0.000215207 -4.34456e-18)
(-0.224558 -0.000187512 -3.89593e-18)
(-0.2243 -0.000140506 -3.62495e-19)
(-0.223973 -7.6194e-05 -5.01672e-18)
(-0.223559 9.30549e-06 2.91466e-18)
(-0.223042 0.000118268 -3.75035e-18)
(-0.22241 0.000251797 1.30796e-18)
(-0.221641 0.000415296 2.69956e-18)
(-0.220712 0.000614744 -7.14259e-18)
(-0.219597 0.00085146 -2.09273e-18)
(-0.218263 0.00112996 -6.70285e-18)
(-0.216673 0.00145642 -1.32577e-17)
(-0.214785 0.00183883 -4.03302e-18)
(-0.212544 0.00228762 -1.13619e-17)
(-0.209888 0.00281656 -2.51707e-18)
(-0.206737 0.00344396 -7.19092e-18)
(-0.202999 0.00419431 -3.52709e-18)
(-0.198544 0.00510126 4.28337e-18)
(-0.193249 0.0062076 -4.92358e-18)
(-0.186849 0.00758342 1.11265e-17)
(-0.179275 0.00928255 -3.3799e-18)
(-0.169792 0.0115275 -3.3637e-18)
(-0.158899 0.0141675 5.78526e-18)
(-0.14411 0.0181902 -7.30707e-18)
(-0.12834 0.0218381 1.86576e-18)
(-0.10486 0.0293298 -2.35198e-18)
(-0.0801167 0.0322121 -1.05159e-17)
(-0.0479758 0.0383614 4.30923e-18)
(-0.0117227 0.0269455 -5.13417e-18)
(-0.274885 -0.000173865 -1.06454e-19)
(-0.275283 -0.000508965 2.34189e-19)
(-0.275925 -0.000993038 8.58528e-19)
(-0.27691 -0.00135221 7.54479e-19)
(-0.278041 -0.00154364 -7.67693e-19)
(-0.279213 -0.0015637 -7.13443e-19)
(-0.280341 -0.00142744 -2.08854e-19)
(-0.281356 -0.00116134 -2.11507e-18)
(-0.282212 -0.000793612 -2.7029e-19)
(-0.282871 -0.000350637 1.39601e-18)
(-0.283315 0.000144314 -3.61427e-18)
(-0.283531 0.000668195 -1.36823e-19)
(-0.283507 0.00120876 -1.6198e-20)
(-0.283244 0.00175306 -1.68798e-18)
(-0.282745 0.00229018 -3.43979e-18)
(-0.282014 0.00281142 1.73262e-19)
(-0.28106 0.00330995 -2.91965e-18)
(-0.279893 0.00378043 -4.61866e-18)
(-0.278525 0.00421873 -3.68762e-18)
(-0.276967 0.00462176 3.84004e-18)
(-0.275234 0.0049872 2.21928e-18)
(-0.27334 0.00531334 -2.22536e-18)
(-0.2713 0.00559899 -3.35951e-18)
(-0.269129 0.00584335 -2.31062e-18)
(-0.266845 0.00604594 -6.55509e-19)
(-0.264464 0.00620663 -3.80783e-18)
(-0.262002 0.00632561 1.47692e-18)
(-0.259477 0.00640343 2.84031e-18)
(-0.256907 0.00644105 6.0452e-19)
(-0.254307 0.00643985 6.20853e-18)
(-0.251697 0.00640163 1.53095e-18)
(-0.24909 0.00632864 1.10279e-18)
(-0.246502 0.00622347 -4.96544e-18)
(-0.243949 0.00608904 -1.69094e-18)
(-0.241442 0.0059285 3.59441e-19)
(-0.238993 0.00574516 4.00704e-19)
(-0.236614 0.00554241 1.4966e-18)
(-0.234312 0.00532361 7.3382e-19)
(-0.232096 0.00509207 -4.78429e-18)
(-0.229972 0.00485096 -2.99963e-18)
(-0.227943 0.00460324 -1.06355e-18)
(-0.226013 0.00435167 -1.05869e-18)
(-0.224185 0.00409874 -1.56934e-18)
(-0.222458 0.00384669 -3.04e-19)
(-0.220832 0.00359744 2.53228e-18)
(-0.219306 0.00335268 1.64895e-18)
(-0.217876 0.00311381 1.30102e-18)
(-0.21654 0.00288198 -1.24045e-18)
(-0.215293 0.00265808 2.10908e-18)
(-0.214131 0.00244275 2.34268e-18)
(-0.213047 0.00223648 -1.11093e-19)
(-0.212037 0.00203954 -2.92463e-18)
(-0.211093 0.00185208 1.12509e-18)
(-0.21021 0.00167412 1.38364e-18)
(-0.209381 0.00150565 2.60061e-18)
(-0.208599 0.00134665 8.38994e-19)
(-0.207857 0.0011971 8.31419e-18)
(-0.207147 0.001057 8.71674e-18)
(-0.206464 0.000926476 1.9333e-18)
(-0.2058 0.000805712 1.82827e-18)
(-0.205148 0.000695122 -7.10014e-18)
(-0.204501 0.000595259 9.44524e-19)
(-0.203851 0.000506867 -8.1463e-18)
(-0.203193 0.00043084 -1.47993e-18)
(-0.202519 0.000368326 -7.33908e-20)
(-0.20182 0.000320497 4.46288e-20)
(-0.20109 0.000288023 -3.9621e-19)
(-0.200323 0.000273 1.13774e-19)
(-0.19951 0.00028011 1.76282e-18)
(-0.198643 0.000308143 1.02041e-17)
(-0.197712 0.000359094 5.76719e-18)
(-0.19671 0.000439793 5.00149e-18)
(-0.195625 0.000551095 4.78698e-18)
(-0.194447 0.000694725 6.76957e-18)
(-0.193164 0.00087395 5.90112e-18)
(-0.191765 0.00109286 1.47079e-17)
(-0.190237 0.00135678 1.58029e-17)
(-0.188563 0.0016707 7.83717e-18)
(-0.186728 0.00204003 1.88382e-17)
(-0.184711 0.00247184 4.26832e-18)
(-0.182492 0.00297445 1.02177e-18)
(-0.180048 0.00355849 -2.57698e-18)
(-0.17735 0.00423715 -1.03041e-17)
(-0.174369 0.00502721 -1.43888e-17)
(-0.171068 0.00595007 -1.24042e-17)
(-0.167407 0.00703352 -2.42128e-18)
(-0.16334 0.0083135 -9.89013e-18)
(-0.158814 0.00983768 3.24982e-18)
(-0.153761 0.0116685 -9.42851e-18)
(-0.14813 0.0138902 1.1786e-17)
(-0.141795 0.0166163 -2.7656e-18)
(-0.134804 0.0199865 1.13668e-17)
(-0.126733 0.0242969 -3.07641e-19)
(-0.118368 0.0294775 1.22628e-17)
(-0.107548 0.0368505 4.26549e-19)
(-0.0987842 0.0436813 8.55957e-18)
(-0.0832746 0.0571448 1.09601e-18)
(-0.0736258 0.0600744 -1.47483e-17)
(-0.0530994 0.0742221 -1.27229e-17)
(-0.0164124 0.0421469 -3.86757e-18)
(-0.288228 -0.000110138 -5.66435e-20)
(-0.28849 -0.000354906 4.91871e-19)
(-0.288972 -0.000720431 3.39908e-19)
(-0.289746 -0.00100166 7.01304e-19)
(-0.290667 -0.00115637 -8.68185e-19)
(-0.291637 -0.00117574 -1.26774e-18)
(-0.292577 -0.001068 -4.09504e-19)
(-0.293417 -0.000852484 -1.60775e-18)
(-0.294108 -0.000551399 1.49441e-19)
(-0.294611 -0.00018579 -8.48781e-19)
(-0.294904 0.000223528 -2.17684e-18)
(-0.29497 0.000658903 1.79196e-18)
(-0.294796 0.00110897 -6.67105e-19)
(-0.294382 0.00156309 2.69796e-18)
(-0.293729 0.00201177 -1.34021e-18)
(-0.292842 0.00244738 1.5883e-19)
(-0.291729 0.00286392 -2.24014e-19)
(-0.2904 0.00325668 -2.94454e-18)
(-0.288867 0.00362208 -7.38101e-19)
(-0.287142 0.0039574 3.76335e-18)
(-0.28524 0.00426065 1.52598e-18)
(-0.283177 0.00453041 8.68758e-19)
(-0.280966 0.00476574 -3.82007e-18)
(-0.278625 0.00496602 -5.46223e-18)
(-0.276171 0.00513097 5.06253e-20)
(-0.273621 0.0052606 -7.11182e-19)
(-0.270993 0.00535516 1.98278e-18)
(-0.268304 0.00541525 6.2506e-18)
(-0.265573 0.00544176 2.0627e-18)
(-0.262816 0.00543594 3.89745e-18)
(-0.260053 0.00539936 1.57439e-18)
(-0.257298 0.00533393 -8.59812e-20)
(-0.254568 0.00524187 -3.30359e-18)
(-0.251879 0.00512564 -1.26575e-18)
(-0.249242 0.00498789 1.43388e-18)
(-0.246672 0.00483139 6.49264e-19)
(-0.244179 0.00465897 4.95175e-18)
(-0.241772 0.00447347 1.58914e-18)
(-0.23946 0.00427761 -4.24427e-18)
(-0.237249 0.00407403 -1.0126e-18)
(-0.235144 0.00386517 -1.32203e-18)
(-0.233149 0.00365328 -2.47974e-18)
(-0.231267 0.00344038 -4.10662e-18)
(-0.229498 0.00322827 -1.69547e-19)
(-0.227843 0.00301848 3.27868e-18)
(-0.226299 0.00281232 2.45569e-18)
(-0.224866 0.00261089 2.31284e-18)
(-0.223539 0.00241503 -3.79524e-18)
(-0.222315 0.00222538 5.79236e-18)
(-0.221189 0.00204241 1.19558e-18)
(-0.220156 0.00186639 2.1313e-18)
(-0.21921 0.00169748 -2.60295e-18)
(-0.218346 0.00153571 8.97773e-19)
(-0.217556 0.00138101 4.05401e-18)
(-0.216835 0.00123331 1.95976e-18)
(-0.216175 0.00109257 5.55129e-19)
(-0.21557 0.000958716 5.01869e-18)
(-0.215012 0.000831735 7.146e-18)
(-0.214495 0.000711746 1.70267e-18)
(-0.214012 0.000598912 -1.59226e-18)
(-0.213555 0.000493641 -1.84342e-18)
(-0.213118 0.00039646 2.70099e-20)
(-0.212694 0.000308086 -9.19537e-18)
(-0.212275 0.00022931 -1.3172e-18)
(-0.211855 0.000160957 2.01791e-18)
(-0.211426 0.000104665 6.11373e-19)
(-0.210982 6.48664e-05 -7.92625e-19)
(-0.210513 3.93095e-05 1.93552e-18)
(-0.210012 2.66377e-05 -4.23097e-18)
(-0.209475 3.23636e-05 8.79258e-18)
(-0.208886 5.989e-05 1.11118e-17)
(-0.20824 0.000106839 1.11038e-17)
(-0.207528 0.000177192 1.15786e-17)
(-0.206738 0.000275115 -7.82453e-19)
(-0.205858 0.000406563 8.61061e-18)
(-0.204875 0.000575339 1.5448e-17)
(-0.203774 0.000782281 1.69091e-17)
(-0.202541 0.00103094 1.2521e-17)
(-0.201156 0.00132679 1.5752e-17)
(-0.199599 0.00167656 3.27923e-18)
(-0.197848 0.00208697 -7.61201e-18)
(-0.195874 0.00256687 5.62166e-18)
(-0.193647 0.00312749 -4.33653e-18)
(-0.19113 0.00378319 -6.0998e-18)
(-0.188281 0.00455244 -6.3168e-18)
(-0.18505 0.00545931 -1.03479e-17)
(-0.181376 0.00653523 -2.7712e-18)
(-0.177192 0.00782194 3.60116e-18)
(-0.172402 0.0093751 -2.25122e-18)
(-0.166927 0.011268 6.49764e-18)
(-0.160582 0.0136071 1.33792e-17)
(-0.153367 0.0165004 1.52757e-17)
(-0.144716 0.0202461 4.0493e-18)
(-0.135315 0.0247097 8.67343e-18)
(-0.122835 0.0312673 -6.1093e-18)
(-0.111214 0.0372229 -3.00991e-18)
(-0.0923803 0.0493526 2.32971e-18)
(-0.0763396 0.0526128 -1.09382e-17)
(-0.05173 0.0636764 -3.89456e-18)
(-0.0144804 0.0394784 2.44162e-19)
(-0.244711 -0.000390262 -4.7289e-20)
(-0.245549 -0.000972014 1.20265e-19)
(-0.246621 -0.00172396 6.75841e-19)
(-0.248129 -0.00224161 6.23844e-19)
(-0.249753 -0.00249075 -1.94558e-18)
(-0.251374 -0.00249469 -5.15482e-19)
(-0.25291 -0.00228881 1.1274e-20)
(-0.254299 -0.00191533 -2.40919e-19)
(-0.255504 -0.00141436 1.41636e-19)
(-0.2565 -0.000820643 -1.58775e-18)
(-0.257268 -0.000158426 -2.96922e-18)
(-0.257803 0.000526264 -9.17375e-19)
(-0.258105 0.00122749 1.395e-18)
(-0.258171 0.00193254 -3.10905e-18)
(-0.258005 0.00262745 -1.02417e-18)
(-0.257615 0.00330147 3.44743e-18)
(-0.257008 0.00394637 -2.81544e-18)
(-0.256195 0.0045557 -2.91481e-18)
(-0.255185 0.00512452 2.35355e-18)
(-0.25399 0.00564904 1.11373e-18)
(-0.252623 0.00612638 3.61526e-19)
(-0.251097 0.00655436 -2.35016e-19)
(-0.249426 0.00693133 -3.88685e-18)
(-0.247623 0.00725607 2.69072e-18)
(-0.245704 0.00752779 -3.27588e-18)
(-0.243684 0.00774605 -7.92891e-19)
(-0.241579 0.00791084 1.84681e-18)
(-0.239404 0.00802264 1.35326e-18)
(-0.237175 0.00808248 -3.08077e-18)
(-0.234908 0.00809199 2.43598e-18)
(-0.232619 0.00805339 1.23466e-18)
(-0.230322 0.00796948 4.97583e-18)
(-0.22803 0.0078436 3.13501e-18)
(-0.225757 0.00767953 -3.60829e-18)
(-0.223515 0.00748138 4.32426e-21)
(-0.221313 0.00725352 4.33893e-19)
(-0.219161 0.0070004 -3.2049e-18)
(-0.217066 0.00672651 2.26972e-19)
(-0.215035 0.00643623 -2.34791e-19)
(-0.213071 0.00613376 -5.75985e-18)
(-0.211179 0.00582309 -7.52692e-19)
(-0.20936 0.00550788 2.30761e-19)
(-0.207615 0.0051915 3.3751e-19)
(-0.205943 0.00487697 2.34468e-19)
(-0.204343 0.00456691 9.94842e-18)
(-0.202812 0.00426366 2.44421e-18)
(-0.201346 0.00396917 9.88646e-19)
(-0.199943 0.00368508 8.12991e-20)
(-0.198595 0.00341265 6.63516e-19)
(-0.197299 0.00315287 2.77305e-18)
(-0.196048 0.00290645 -5.6557e-19)
(-0.194835 0.00267389 -4.55745e-18)
(-0.193654 0.00245547 7.45557e-19)
(-0.192499 0.00225132 -2.2098e-18)
(-0.191362 0.0020615 2.13132e-18)
(-0.190236 0.00188603 1.08019e-18)
(-0.189114 0.00172488 4.05334e-18)
(-0.187989 0.00157809 3.13979e-18)
(-0.186853 0.00144579 1.46066e-18)
(-0.185699 0.00132819 3.21589e-18)
(-0.184521 0.00122571 -2.34989e-18)
(-0.18331 0.00113894 2.10508e-18)
(-0.18206 0.00106867 -6.35672e-19)
(-0.180763 0.00101591 8.38812e-21)
(-0.179411 0.000981944 -5.8549e-18)
(-0.177998 0.000968285 -1.45637e-19)
(-0.176515 0.000976529 4.02086e-19)
(-0.174956 0.00100844 -6.04004e-18)
(-0.17331 0.00106721 -2.06328e-18)
(-0.171571 0.00115463 8.76049e-18)
(-0.169728 0.00127361 2.34771e-18)
(-0.167774 0.00142828 1.05505e-18)
(-0.165697 0.0016213 9.35581e-19)
(-0.163487 0.00185618 1.14422e-18)
(-0.161134 0.00213746 -3.91767e-18)
(-0.158625 0.00247001 1.05228e-17)
(-0.155949 0.0028595 4.89833e-18)
(-0.153093 0.00331209 1.14288e-17)
(-0.150041 0.00383527 1.6737e-17)
(-0.14678 0.00443794 3.81423e-18)
(-0.143293 0.00513089 4.60718e-18)
(-0.139563 0.0059276 3.93959e-18)
(-0.135573 0.00684478 -6.63563e-19)
(-0.131305 0.00790348 4.20615e-18)
(-0.126739 0.00913033 -1.61867e-18)
(-0.121858 0.0105595 2.27622e-18)
(-0.116647 0.0122345 -5.5481e-19)
(-0.111094 0.0142126 3.8217e-18)
(-0.105194 0.0165666 1.03059e-18)
(-0.0989672 0.019394 1.3049e-17)
(-0.0924299 0.022815 -9.78748e-20)
(-0.0857331 0.0270041 -1.52898e-18)
(-0.0787929 0.0321485 -4.5881e-18)
(-0.0725398 0.0383912 1.83135e-18)
(-0.0655497 0.0463676 1.26959e-17)
(-0.063096 0.0543315 2.16747e-18)
(-0.0557207 0.0668999 7.06633e-19)
(-0.0624071 0.0692856 -3.44308e-18)
(-0.0512033 0.0828405 -3.86898e-18)
(-0.032973 0.0363748 -3.80459e-18)
(-0.260179 -0.00026596 -5.30614e-20)
(-0.260767 -0.000716068 3.41783e-19)
(-0.261608 -0.00133091 9.53077e-19)
(-0.262842 -0.00177154 1.18503e-18)
(-0.264212 -0.00199595 -1.58489e-18)
(-0.265605 -0.00201174 -5.87114e-19)
(-0.266935 -0.00184309 -1.14369e-19)
(-0.268137 -0.00152425 -8.3297e-19)
(-0.269166 -0.0010895 -1.20357e-19)
(-0.269992 -0.000569633 -5.99714e-20)
(-0.270598 1.37326e-05 -4.0608e-18)
(-0.270974 0.000616392 -7.6286e-19)
(-0.271111 0.00123925 5.13443e-19)
(-0.271011 0.00186661 -1.6867e-18)
(-0.270676 0.00248538 -1.70384e-18)
(-0.270114 0.00308584 1.16272e-18)
(-0.269332 0.00366037 -1.83781e-18)
(-0.268339 0.00420304 -2.79903e-18)
(-0.267148 0.00470926 -7.74337e-19)
(-0.26577 0.00517556 1.57602e-18)
(-0.264218 0.00559928 3.7129e-18)
(-0.262506 0.00597846 -3.92245e-19)
(-0.260649 0.00631164 -5.34297e-18)
(-0.258662 0.00659779 -2.88125e-19)
(-0.256559 0.00683626 -1.35029e-18)
(-0.254357 0.00702673 -1.80848e-18)
(-0.252073 0.00716928 3.90281e-18)
(-0.249723 0.0072644 1.75907e-18)
(-0.247323 0.00731308 -8.35665e-19)
(-0.24489 0.00731681 5.73929e-18)
(-0.24244 0.00727763 1.5227e-18)
(-0.239989 0.00719807 2.40469e-18)
(-0.23755 0.00708112 -3.27029e-18)
(-0.235139 0.00693017 -2.16444e-18)
(-0.232766 0.00674888 -1.7657e-19)
(-0.230443 0.00654113 2.40087e-19)
(-0.22818 0.00631087 -5.62403e-19)
(-0.225985 0.00606205 3.07227e-19)
(-0.223865 0.00579853 -1.65455e-18)
(-0.221825 0.00552402 -6.30033e-18)
(-0.219869 0.00524201 -1.1248e-18)
(-0.218 0.00495573 -3.86947e-19)
(-0.216219 0.00466813 -4.10608e-19)
(-0.214526 0.00438182 -1.43532e-19)
(-0.21292 0.00409913 4.35924e-18)
(-0.2114 0.00382206 1.87488e-18)
(-0.209961 0.00355231 1.07876e-18)
(-0.208601 0.00329126 -1.9002e-19)
(-0.207314 0.00304 7.77025e-19)
(-0.206095 0.00279936 5.43684e-18)
(-0.20494 0.00256994 -3.31058e-18)
(-0.203842 0.00235213 -6.48717e-18)
(-0.202793 0.00214615 3.7785e-18)
(-0.201789 0.00195208 -8.1182e-20)
(-0.200822 0.00176995 5.45857e-18)
(-0.199884 0.00159974 1.16454e-18)
(-0.19897 0.00144144 8.13588e-18)
(-0.198072 0.00129505 4.763e-18)
(-0.197183 0.00116067 1.79383e-18)
(-0.196295 0.00103849 6.03503e-18)
(-0.195402 0.000928886 -6.84406e-18)
(-0.194497 0.000832397 4.83518e-18)
(-0.193573 0.000749739 -2.81683e-18)
(-0.192621 0.000681796 -6.21825e-19)
(-0.191636 0.000629685 -2.07184e-18)
(-0.19061 0.000594998 -1.93921e-19)
(-0.189536 0.000580165 1.77589e-20)
(-0.188405 0.000586089 -1.81345e-18)
(-0.18721 0.000614179 -5.78029e-18)
(-0.185942 0.000667208 5.99123e-18)
(-0.184593 0.000748231 3.4735e-18)
(-0.183154 0.000859489 2.40191e-18)
(-0.181615 0.001004 2.38589e-18)
(-0.179964 0.00118564 2.59053e-18)
(-0.178192 0.00140907 7.26908e-18)
(-0.176286 0.00167862 9.32936e-18)
(-0.174233 0.00199874 7.89148e-18)
(-0.172019 0.00237468 7.60428e-18)
(-0.169629 0.00281317 1.91049e-17)
(-0.167046 0.00332235 4.2687e-18)
(-0.16425 0.00391179 9.55947e-18)
(-0.161223 0.00459351 8.48879e-18)
(-0.15794 0.00538255 -2.81557e-18)
(-0.154378 0.00629792 -1.19121e-17)
(-0.150508 0.00736388 -5.00731e-18)
(-0.146303 0.00861177 7.19932e-18)
(-0.141728 0.010082 -2.74013e-18)
(-0.136753 0.0118281 1.04458e-17)
(-0.131339 0.0139199 -2.66706e-18)
(-0.125468 0.0164522 7.98066e-18)
(-0.119085 0.0195493 -7.43211e-19)
(-0.11229 0.0233771 -5.43777e-18)
(-0.104824 0.028193 -1.00138e-17)
(-0.0975333 0.0339763 3.37748e-18)
(-0.0886354 0.0418592 4.48653e-18)
(-0.0829816 0.0493542 3.64831e-18)
(-0.0714769 0.0631263 1.02448e-18)
(-0.069564 0.0655872 -6.9333e-18)
(-0.053652 0.0806165 -7.23809e-18)
(-0.0209867 0.0402819 -1.12363e-17)
(1.30259 0.174285 1.49641e-18)
(1.30147 0.186054 2.72808e-18)
(1.29976 0.192673 -1.12221e-18)
(1.29845 0.201764 4.22445e-18)
(1.29773 0.210385 3.90719e-18)
(1.29773 0.219633 -1.43116e-18)
(1.29857 0.229074 -2.5556e-18)
(1.30043 0.238832 1.83587e-18)
(1.30356 0.248818 -6.40467e-19)
(1.30827 0.258991 5.92645e-19)
(1.31473 0.269149 1.08436e-18)
(1.3224 0.278694 2.36598e-19)
(1.32787 0.285791 -1.11184e-18)
(1.31934 0.284647 4.34939e-18)
(1.26821 0.264099 1.41145e-18)
(1.12721 0.211578 2.29953e-18)
(0.843823 0.127777 1.61914e-17)
(0.422021 0.0337232 3.60687e-18)
(0.0661942 0.0189983 2.0127e-17)
(-0.0598027 0.0237923 7.21766e-18)
(1.30599 0.175964 2.7503e-18)
(1.30503 0.187475 2.26522e-18)
(1.3034 0.19399 7.56865e-19)
(1.30227 0.203027 2.26815e-18)
(1.30171 0.211544 2.96747e-18)
(1.30191 0.220698 -7.26974e-20)
(1.303 0.229994 -6.29971e-19)
(1.30516 0.23956 2.19239e-18)