/*--------------------------------*- C++ -*----------------------------------*\
  =========                 |
  \\      /  F ield         | OpenFOAM: The Open Source CFD Toolbox
   \\    /   O peration     | Website:  https://openfoam.org
    \\  /    A nd           | Version:  7
     \\/     M anipulation  |
\*---------------------------------------------------------------------------*/
FoamFile
{
    version     2.0;
    format      ascii;
    class       surfaceScalarField;
    location    "56";
    object      phi;
}
// * * * * * * * * * * * * * * * * * * * * * * * * * * * * * * * * * * * * * //

dimensions      [0 3 -1 0 0 0 0];

internalField   nonuniform List<scalar> 
15760
(
0.00145436
1.04521e-06
-1.85598e-06
0.00145603
3.58411e-07
-2.02761e-06
0.00145866
-1.3799e-06
-1.2531e-06
0.00146158
-6.60748e-06
3.69097e-06
0.00146409
-1.5462e-05
1.29466e-05
0.00146573
-2.70696e-05
2.54358e-05
0.00146615
-4.06304e-05
4.02029e-05
0.00146515
-5.54894e-05
5.64945e-05
0.00146255
-7.11145e-05
7.37092e-05
0.00145826
-8.71134e-05
9.14041e-05
0.00145221
-0.000103209
0.000109264
0.00144434
-0.000119192
0.000127058
0.00143464
-0.000134909
0.000144607
0.00142311
-0.000150232
0.000161762
0.00140978
-0.000165045
0.000178383
0.00139468
-0.000179229
0.000194325
0.00137789
-0.000192656
0.000209441
0.00135951
-0.000205202
0.000223588
0.00133962
-0.000216756
0.000236642
0.00131834
-0.000227238
0.000248517
0.00129578
-0.000236619
0.000259178
0.00127205
-0.000244917
0.000268647
0.00124726
-0.000252202
0.000276993
0.00122152
-0.000258579
0.000284324
0.00119493
-0.000264168
0.000290759
0.0011676
-0.000269079
0.000296406
0.00113965
-0.000273392
0.000301339
0.00111121
-0.000277136
0.000305575
0.00108242
-0.000280276
0.000309066
0.00105344
-0.000282709
0.000311693
0.00102443
-0.000284269
0.000313275
0.000995594
-0.000284746
0.000313586
0.000967122
-0.000283902
0.000312374
0.000939228
-0.000281502
0.000309396
0.00091213
-0.000277333
0.000304432
0.000886041
-0.000271229
0.000297317
0.000861171
-0.000263087
0.000287957
0.000837711
-0.000252881
0.000276341
0.000815828
-0.000240671
0.000262553
0.000795658
-0.000226609
0.00024678
0.000777293
-0.000210941
0.000229306
0.00076078
-0.000193992
0.000210505
0.000746117
-0.000176157
0.00019082
0.000733252
-0.000157872
0.000170736
0.000722091
-0.000139585
0.000150747
0.000712501
-0.000121731
0.000131321
0.000704325
-0.0001047
0.000112875
0.000697381
-8.8795e-05
9.5739e-05
0.000691476
-7.42517e-05
8.01571e-05
0.000686421
-6.12274e-05
6.62822e-05
0.000682037
-4.9801e-05
5.41853e-05
0.000678156
-3.99834e-05
4.38647e-05
0.000674627
-3.17264e-05
3.52548e-05
0.000671321
-2.49366e-05
2.82429e-05
0.000668127
-1.94863e-05
2.26807e-05
0.000664954
-1.52276e-05
1.84002e-05
0.000661731
-1.20037e-05
1.52263e-05
0.000658403
-9.65963e-06
1.29885e-05
0.000654924
-8.04907e-06
1.15277e-05
0.000651263
-7.04539e-06
1.07065e-05
0.000647397
-6.53674e-06
1.0403e-05
0.000643305
-6.42126e-06
1.05132e-05
0.00063897
-6.62147e-06
1.09565e-05
0.000634375
-7.07833e-06
1.16729e-05
0.000629504
-7.75154e-06
1.26223e-05
0.00062434
-8.61625e-06
1.37809e-05
0.000618862
-9.67006e-06
1.51474e-05
0.00061305
-1.09045e-05
1.67172e-05
0.000606876
-1.233e-05
1.85034e-05
0.000600316
-1.39727e-05
2.05331e-05
0.000593337
-1.58507e-05
2.28293e-05
0.000585907
-1.79986e-05
2.54291e-05
0.000577988
-2.04538e-05
2.83728e-05
0.00056954
-2.32561e-05
3.1704e-05
0.000560519
-2.64524e-05
3.54736e-05
0.000550876
-3.00981e-05
3.97408e-05
0.000540559
-3.42562e-05
4.45734e-05
0.000529509
-3.90015e-05
5.00511e-05
0.000517664
-4.442e-05
5.62655e-05
0.000504953
-5.06147e-05
6.33259e-05
0.000491299
-5.77089e-05
7.13627e-05
0.000476618
-6.58516e-05
8.05329e-05
0.000460815
-7.52242e-05
9.10264e-05
0.000443789
-8.60508e-05
0.000103077
0.000425427
-9.8609e-05
0.000116971
0.000405607
-0.000113251
0.000133071
0.000384201
-0.000130414
0.00015182
0.00036107
-0.000150705
0.000173836
0.000336091
-0.000174827
0.000199805
0.000309157
-0.000203817
0.000230751
0.00028022
-0.000238888
0.000267824
0.000249314
-0.000282002
0.000312909
0.000216799
-0.000335032
0.000367547
0.000182912
-0.000401757
0.000435644
0.000150041
-0.000485267
0.000518138
0.000117912
-0.000585677
0.000617806
9.5069e-05
-0.000718132
0.000740975
7.35959e-05
-0.000812364
0.000833837
5.05103e-05
-0.000956938
0.000980024
-0.000558963
0.000609473
0.00153571
5.61875e-07
0.0015367
-6.36849e-07
0.00153826
-2.94024e-06
0.00153988
-8.22197e-06
0.00154098
-1.65651e-05
0.00154116
-2.725e-05
0.00154013
-3.95992e-05
0.00153768
-5.30393e-05
0.00153366
-6.71004e-05
0.00152799
-8.14367e-05
0.00152058
-9.58044e-05
0.00151141
-0.000110019
0.00150045
-0.000123948
0.0014877
-0.000137485
0.00147319
-0.000150537
0.00145697
-0.000163006
0.0014391
-0.000174788
0.00141968
-0.000185775
0.00139879
-0.000195871
0.00137656
-0.000205007
0.0013531
-0.000213153
0.00132851
-0.000220331
0.00130291
-0.000226604
0.00127641
-0.000232074
0.0012491
-0.000236857
0.00122108
-0.000241064
0.00119247
-0.000244776
0.00116336
-0.000248031
0.00113389
-0.000250805
0.00110419
-0.00025301
0.00107442
-0.000254498
0.00104475
-0.000255076
0.00101537
-0.000254525
0.000986491
-0.00025262
0.00095832
-0.000249162
0.000931077
-0.000243986
0.000904979
-0.000236988
0.000880228
-0.00022813
0.00085701
-0.000217452
0.000835479
-0.000205079
0.000815753
-0.000191215
0.000797906
-0.000176145
0.000781963
-0.000160214
0.000767899
-0.000143808
0.000755645
-0.000127331
0.00074509
-0.000111176
0.000736091
-9.57006e-05
0.00072848
-8.11844e-05
0.000722073
-6.78452e-05
0.000716685
-5.58388e-05
0.000712132
-4.52483e-05
0.000708242
-3.60937e-05
0.000704857
-2.83413e-05
0.000701836
-2.1915e-05
0.000699056
-1.67063e-05
0.000696415
-1.2587e-05
0.00069383
-9.41886e-06
0.000691234
-7.06303e-06
0.000688572
-5.38723e-06
0.000685805
-4.27903e-06
0.000682901
-3.63269e-06
0.000679836
-3.35615e-06
0.00067659
-3.375e-06
0.000673143
-3.63136e-06
0.000669477
-4.08552e-06
0.00066557
-4.70956e-06
0.000661409
-5.50868e-06
0.00065697
-6.46614e-06
0.000652231
-7.59091e-06
0.000647165
-8.90618e-06
0.000641741
-1.0427e-05
0.000635928
-1.21851e-05
0.000629689
-1.42148e-05
0.000622984
-1.65513e-05
0.000615769
-1.92373e-05
0.000607994
-2.23233e-05
0.000599605
-2.58674e-05
0.000590542
-2.9938e-05
0.000580736
-3.46143e-05
0.000570113
-3.99917e-05
0.000558588
-4.6184e-05
0.000546066
-5.33297e-05
0.00053244
-6.15981e-05
0.000517588
-7.11991e-05
0.000501374
-8.23941e-05
0.00048364
-9.55177e-05
0.000464213
-0.000110986
0.00044289
-0.000129382
0.000419457
-0.000151394
0.000393678
-0.000178038
0.000365327
-0.000210536
0.000334159
-0.000250834
0.000300158
-0.000301031
0.000263024
-0.000364623
0.000224012
-0.000446256
0.000182335
-0.000544
0.000142428
-0.000678225
9.97808e-05
-0.000769716
4.10332e-05
-0.00089819
-0.000517929
0.00160994
2.77037e-07
0.00161045
-1.15365e-06
0.00161122
-3.70775e-06
0.00161181
-8.81121e-06
0.00161175
-1.65003e-05
0.00161067
-2.61778e-05
0.00160834
-3.72646e-05
0.00160456
-4.92589e-05
0.0015992
-6.17469e-05
0.00159219
-7.44254e-05
0.00158347
-8.70813e-05
0.001573
-9.95532e-05
0.00156078
-0.000111728
0.00154682
-0.00012352
0.00153114
-0.000134854
0.00151378
-0.000145654
0.00149483
-0.000155836
0.00147437
-0.000165312
0.0014525
-0.000173999
0.00142933
-0.000181838
0.00140498
-0.000188803
0.00137956
-0.000194914
0.00135319
-0.000200231
0.00132596
-0.000204848
0.00129798
-0.000208873
0.00126933
-0.000212414
0.0012401
-0.000215553
0.0012104
-0.00021833
0.00118033
-0.000220732
0.00115
-0.000222685
0.00111957
-0.000224059
0.00108917
-0.000224682
0.001059
-0.000224354
0.00102925
-0.00022287
0.00100013
-0.000220042
0.000971861
-0.000215716
0.000944661
-0.000209789
0.000918748
-0.000202216
0.000894318
-0.000193023
0.000871546
-0.000182306
0.00085057
-0.00017024
0.000831489
-0.000157063
0.000814352
-0.000143076
0.00079916
-0.000128616
0.000785866
-0.000114037
0.000774378
-9.96884e-05
0.00076457
-8.58926e-05
0.00075629
-7.29036e-05
0.000749359
-6.09146e-05
0.000743596
-5.00759e-05
0.000738818
-4.04705e-05
0.000734849
-3.21245e-05
0.000731523
-2.50155e-05
0.000728691
-1.90828e-05
0.000726221
-1.4236e-05
0.000723999
-1.03656e-05
0.000721933
-7.35191e-06
0.000719942
-5.07297e-06
0.000717966
-3.41066e-06
0.000715949
-2.26168e-06
0.000713866
-1.55052e-06
0.00071168
-1.16962e-06
0.000709364
-1.05916e-06
0.000706899
-1.16603e-06
0.000704264
-1.45088e-06
0.000701448
-1.89381e-06
0.000698423
-2.48359e-06
0.00069517
-3.21336e-06
0.000691663
-4.08391e-06
0.000687884
-5.12674e-06
0.000683801
-6.34423e-06
0.000679382
-7.76561e-06
0.000674591
-9.42434e-06
0.00066939
-1.13501e-05
0.000663733
-1.35806e-05
0.000657571
-1.6161e-05
0.000650847
-1.91436e-05
0.000643499
-2.25898e-05
0.000635456
-2.65711e-05
0.000626637
-3.11733e-05
0.000616953
-3.64995e-05
0.000606298
-4.26752e-05
0.000594554
-4.98541e-05
0.000581583
-5.8228e-05
0.000567225
-6.80361e-05
0.000551294
-7.9587e-05
0.000533574
-9.32661e-05
0.000513805
-0.000109613
0.000491691
-0.00012928
0.000466877
-0.000153224
0.000438969
-0.000182629
0.000407469
-0.000219334
0.000371978
-0.00026554
0.000331689
-0.000324333
0.00028684
-0.000401408
0.000236048
-0.000493207
0.000180664
-0.000622842
0.000120101
-0.000709153
4.05617e-05
-0.000818651
-0.000477368
0.00167636
1.1597e-07
0.00167655
-1.34866e-06
0.00167675
-3.90237e-06
0.00167656
-8.61906e-06
0.00167556
-1.55056e-05
0.00167345
-2.40673e-05
0.00167
-3.38112e-05
0.00166504
-4.43019e-05
0.00165847
-5.51789e-05
0.00165023
-6.61786e-05
0.00164026
-7.71174e-05
0.00162856
-8.78555e-05
0.00161513
-9.82976e-05
0.00159999
-0.000108375
0.00158317
-0.00011803
0.00156472
-0.000127204
0.00154471
-0.000135833
0.00152325
-0.000143846
0.00150042
-0.000151175
0.00147635
-0.000157769
0.00145116
-0.000163609
0.00142496
-0.000168711
0.00139786
-0.00017313
0.00136996
-0.000176949
0.00134135
-0.000180269
0.00131213
-0.000183189
0.00128236
-0.000185787
0.00125214
-0.000188104
0.00122154
-0.000190135
0.00119068
-0.00019182
0.00115966
-0.000193048
0.00112865
-0.000193668
0.0010978
-0.000193503
0.0010673
-0.00019237
0.00103736
-0.000190099
0.00100819
-0.00018655
0.000980025
-0.000181624
0.000953084
-0.000175276
0.000927579
-0.000167517
0.000903698
-0.000158425
0.000881599
-0.000148141
0.000861401
-0.000136865
0.000843176
-0.000124851
0.000826946
-0.000112387
0.000812687
-9.97776e-05
0.000800324
-8.73259e-05
0.000789747
-7.53157e-05
0.000780816
-6.39721e-05
0.000773361
-5.34605e-05
0.000767206
-4.39208e-05
0.000762168
-3.54326e-05
0.000758069
-2.80249e-05
0.000754737
-2.16841e-05
0.000752017
-1.63627e-05
0.000749768
-1.1987e-05
0.000747868
-8.4652e-06
0.000746212
-5.69611e-06
0.000744713
-3.57396e-06
0.000743297
-1.9951e-06
0.000741923
-8.8744e-07
0.000740518
-1.45127e-07
0.000739072
2.76495e-07
0.00073755
4.62782e-07
0.000735924
4.59684e-07
0.000734174
2.99217e-07
0.00073226
2.03673e-08
0.000730199
-4.22953e-07
0.000727953
-9.67347e-07
0.000725508
-1.639e-06
0.000722825
-2.44368e-06
0.000719882
-3.40124e-06
0.000716652
-4.53504e-06
0.000713096
-5.8692e-06
0.000709178
-7.43126e-06
0.00070485
-9.25313e-06
0.000700064
-1.13745e-05
0.000694761
-1.38411e-05
0.000688878
-1.67066e-05
0.000682341
-2.00338e-05
0.000675065
-2.38978e-05
0.000666955
-2.83893e-05
0.000657899
-3.36188e-05
0.000647766
-3.97219e-05
0.000636407
-4.68685e-05
0.000623642
-5.52708e-05
0.000609259
-6.52041e-05
0.000593006
-7.70133e-05
0.000574574
-9.11818e-05
0.000553597
-0.000108302
0.000529616
-0.000129244
0.000502091
-0.000155103
0.0004703
-0.000187543
0.000433501
-0.000228741
0.000390442
-0.000281274
0.00034045
-0.000351416
0.000281667
-0.000434424
0.000213109
-0.000554284
0.000137526
-0.000633571
4.40882e-05
-0.000725213
-0.000433279
0.00173439
3.03929e-08
0.00173437
-1.33237e-06
0.00173416
-3.69312e-06
0.00173339
-7.85071e-06
0.00173168
-1.37968e-05
0.00172875
-2.11288e-05
0.00172437
-2.94352e-05
0.00171841
-3.83464e-05
0.00171079
-4.75544e-05
0.00170145
-5.68353e-05
0.00169036
-6.60343e-05
0.00167754
-7.50323e-05
0.00166299
-8.37505e-05
0.00164675
-9.21347e-05
0.00162886
-0.000100142
0.00160939
-0.00010773
0.00158841
-0.000114849
0.001566
-0.000121445
0.00154229
-0.000127465
0.00151739
-0.000132867
0.00149142
-0.000137636
0.00146449
-0.000141785
0.00143673
-0.000145363
0.00140822
-0.000148441
0.00137906
-0.000151109
0.00134932
-0.000153454
0.00131908
-0.000155546
0.0012884
-0.000157426
0.00125736
-0.000159094
0.00122604
-0.000160502
0.00119455
-0.000161558
0.00116302
-0.000162134
0.00113159
-0.000162079
0.00110046
-0.000161236
0.00106982
-0.000159457
0.00103989
-0.000156618
0.00101089
-0.000152629
0.000983065
-0.000147448
0.000956624
-0.000141077
0.000931774
-0.000133575
0.000908687
-0.000125054
0.000887501
-0.000115679
0.000868307
-0.000105657
0.000851148
-9.52275e-05
0.000836015
-8.46451e-05
0.000822854
-7.41645e-05
0.000811566
-6.40282e-05
0.000802023
-5.44292e-05
0.000794066
-4.55032e-05
0.000787521
-3.73756e-05
0.000782208
-3.01192e-05
0.000777946
-2.37631e-05
0.000774562
-1.83002e-05
0.000771894
-1.36943e-05
0.000769793
-9.88672e-06
0.000768131
-6.80296e-06
0.000766795
-4.35992e-06
0.00076569
-2.46859e-06
0.000764737
-1.04249e-06
0.000763845
4.59379e-09
0.000763031
6.68942e-07
0.0007622
1.1071e-06
0.000761328
1.33507e-06
0.000760391
1.3968e-06
0.000759366
1.32386e-06
0.000758254
1.13219e-06
0.000756999
8.32753e-07
0.000755596
4.34889e-07
0.000754003
-4.55249e-08
0.000752243
-6.84092e-07
0.000750264
-1.42188e-06
0.000748026
-2.29701e-06
0.000745506
-3.34866e-06
0.000742662
-4.58771e-06
0.00073945
-6.04125e-06
0.000735819
-7.74349e-06
0.000731711
-9.73326e-06
0.000727061
-1.2056e-05
0.000721792
-1.47648e-05
0.000715817
-1.79234e-05
0.000709036
-2.16086e-05
0.000701332
-2.59144e-05
0.000692566
-3.09562e-05
0.000682577
-3.68787e-05
0.000671169
-4.38635e-05
0.000658111
-5.21463e-05
0.000643122
-6.2024e-05
0.000625852
-7.39121e-05
0.000605877
-8.83265e-05
0.000582654
-0.000106021
0.000555518
-0.000127967
0.00052357
-0.000155595
0.000485768
-0.00019094
0.000440517
-0.000236023
0.000386304
-0.000297203
0.000321004
-0.000369124
0.000241728
-0.000475008
0.000153686
-0.000545529
4.99746e-05
-0.000621501
-0.000383305
0.00178352
-9.97663e-09
0.00178337
-1.18001e-06
0.00178288
-3.20635e-06
0.0017817
-6.6707e-06
0.00177946
-1.15594e-05
0.00177589
-1.75562e-05
0.00177078
-2.43303e-05
0.00176402
-3.15802e-05
0.00175552
-3.9052e-05
0.00174524
-4.65633e-05
0.0017332
-5.39881e-05
0.00171939
-6.12284e-05
0.00170386
-6.82211e-05
0.00168665
-7.49246e-05
0.00166782
-8.13079e-05
0.00164743
-8.73409e-05
0.00162557
-9.29888e-05
0.00160234
-9.82108e-05
0.00157784
-0.000102967
0.00155219
-0.000107225
0.00152553
-0.000110972
0.00149797
-0.000114221
0.00146962
-0.000117011
0.00144058
-0.000119402
0.00141094
-0.000121468
0.00138076
-0.000123281
0.00135012
-0.000124903
0.00131906
-0.000126371
0.00128766
-0.000127685
0.00125597
-0.000128811
0.00122408
-0.000129677
0.00119213
-0.000130177
0.00116024
-0.00013019
0.00112859
-0.000129584
0.00109737
-0.000128239
0.0010668
-0.000126049
0.00103711
-0.000122941
0.00100854
-0.000118873
0.000981305
-0.000113845
0.00095563
-0.0001079
0.000931698
-0.000101123
0.000909662
-9.36431e-05
0.00088963
-8.56245e-05
0.00087166
-7.72576e-05
0.000855761
-6.87466e-05
0.000841893
-6.02965e-05
0.00082997
-5.21054e-05
0.000819873
-4.43322e-05
0.000811452
-3.70817e-05
0.000804537
-3.04611e-05
0.000798951
-2.45334e-05
0.000794514
-1.93253e-05
0.000791048
-1.48341e-05
0.000788386
-1.10331e-05
0.000786377
-7.8773e-06
0.000784882
-5.30853e-06
0.000783783
-3.2609e-06
0.000782976
-1.66068e-06
0.000782371
-4.37943e-07
0.000781934
4.41672e-07
0.000781551
1.05185e-06
0.000781211
1.44686e-06
0.000780871
1.67499e-06
0.0007805
1.76786e-06
0.000780074
1.75009e-06
0.000779566
1.64071e-06
0.000778964
1.4342e-06
0.000778246
1.15318e-06
0.000777413
7.87347e-07
0.000776388
3.40863e-07
0.000775171
-2.05083e-07
0.000773756
-8.82112e-07
0.000772083
-1.67533e-06
0.00077012
-2.62438e-06
0.000767822
-3.74359e-06
0.000765139
-5.06056e-06
0.000762013
-6.60696e-06
0.000758376
-8.4195e-06
0.000754153
-1.05411e-05
0.000749253
-1.30234e-05
0.000743572
-1.59284e-05
0.00073699
-1.93323e-05
0.000729363
-2.33286e-05
0.000720519
-2.80348e-05
0.000710254
-3.35985e-05
0.000698319
-4.02119e-05
0.000684413
-4.81172e-05
0.000668154
-5.76537e-05
0.000649075
-6.92469e-05
0.000626568
-8.35138e-05
0.000599872
-0.000101272
0.00056795
-0.000123672
0.000529521
-0.000152511
0.000482741
-0.000189243
0.000425363
-0.000239826
0.000355132
-0.000298893
0.000267574
-0.00038745
0.000169406
-0.000447361
5.73251e-05
-0.00050942
-0.00032598
0.00182333
-2.39905e-08
0.0018231
-9.41686e-07
0.00182242
-2.53452e-06
0.00182096
-5.20729e-06
0.00181835
-8.94709e-06
0.00181431
-1.35205e-05
0.00180866
-1.86781e-05
0.00180127
-2.41899e-05
0.00179208
-2.98596e-05
0.00178106
-3.55483e-05
0.00176824
-4.11603e-05
0.00175363
-4.66193e-05
0.00173728
-5.18779e-05
0.00171926
-5.69057e-05
0.00169964
-6.16813e-05
0.00167848
-6.61849e-05
0.00165589
-7.03926e-05
0.00163195
-7.42762e-05
0.00160679
-7.78069e-05
0.00158053
-8.09618e-05
0.00155329
-8.37317e-05
0.00152519
-8.61263e-05
0.00149636
-8.81752e-05
0.00146688
-8.99249e-05
0.00143684
-9.1432e-05
0.00140632
-9.27539e-05
0.00137535
-9.39385e-05
0.001344
-9.50155e-05
0.0013123
-9.59886e-05
0.00128032
-9.68325e-05
0.00124814
-9.7493e-05
0.00121585
-9.7892e-05
0.0011836
-9.79355e-05
0.00115154
-9.75243e-05
0.00111986
-9.65641e-05
0.00108879
-9.49744e-05
0.00105854
-9.26958e-05
0.00102937
-8.96955e-05
0.00100149
-8.59702e-05
0.00097514
-8.15493e-05
0.000950513
-7.64954e-05
0.000927772
-7.09026e-05
0.000907041
-6.48927e-05
0.000888391
-5.86078e-05
0.000871845
-5.22011e-05
0.000857376
-4.58269e-05
0.000844907
-3.96364e-05
0.000834328
-3.37532e-05
0.000825497
-2.82504e-05
0.000818249
-2.32137e-05
0.00081241
-1.86938e-05
0.000807797
-1.4713e-05
0.000804234
-1.12709e-05
0.00080155
-8.34903e-06
0.000799588
-5.91502e-06
0.000798205
-3.92613e-06
0.000797278
-2.33401e-06
0.0007967
-1.08204e-06
0.000796368
-1.06375e-07
0.000796224
5.8598e-07
0.000796205
1.07105e-06
0.000796249
1.40216e-06
0.000796321
1.6034e-06
0.00079639
1.69922e-06
0.00079643
1.70956e-06
0.000796422
1.64856e-06
0.000796338
1.51884e-06
0.00079616
1.33131e-06
0.000795862
1.08538e-06
0.000795442
7.59967e-07
0.000794865
3.71929e-07
0.000794067
-8.31879e-08
0.000793064
-6.73164e-07
0.000791798
-1.35794e-06
0.000790224
-2.17007e-06
0.000788293
-3.12948e-06
0.000785947
-4.2603e-06
0.000783117
-5.59022e-06
0.000779728
-7.15157e-06
0.000775688
-8.98314e-06
0.000770891
-1.11318e-05
0.000765214
-1.36549e-05
0.000758508
-1.66231e-05
0.000750599
-2.01252e-05
0.000741273
-2.42726e-05
0.000730272
-2.92109e-05
0.000717278
-3.51238e-05
0.000701893
-4.2268e-05
0.000683615
-5.0969e-05
0.000661794
-6.16932e-05
0.0006356
-7.50776e-05
0.000603903
-9.19748e-05
0.000565236
-0.000113844
0.00051761
-0.000141617
0.000458163
-0.000180378
0.000384605
-0.000225334
0.000291114
-0.000293959
0.000185082
-0.000341329
6.57877e-05
-0.000390126
-0.000260192
0.0018535
-2.26385e-08
0.00185321
-6.51313e-07
0.00185242
-1.74486e-06
0.00185077
-3.55916e-06
0.00184791
-6.08493e-06
0.00184356
-9.16858e-06
0.00183752
-1.26434e-05
0.00182969
-1.6354e-05
0.00181999
-2.01656e-05
0.00180843
-2.3985e-05
0.00179502
-2.77484e-05
0.0017798
-3.14028e-05
0.00176284
-3.49162e-05
0.0017442
-3.82688e-05
0.00172397
-4.14472e-05
0.00170222
-4.44393e-05
0.00167906
-4.72308e-05
0.00165459
-4.98038e-05
0.00162892
-5.21399e-05
0.00160218
-5.42243e-05
0.0015745
-5.6051e-05
0.001546
-5.76267e-05
0.0015168
-5.89714e-05
0.00148699
-6.01165e-05
0.00145666
-6.11006e-05
0.00142587
-6.1963e-05
0.00139467
-6.27368e-05
0.0013631
-6.34429e-05
0.00133119
-6.40851e-05
0.00129901
-6.46471e-05
0.00126661
-6.50932e-05
0.00123409
-6.53712e-05
0.00120157
-6.5418e-05
0.00116921
-6.51664e-05
0.0011372
-6.45523e-05
0.00110575
-6.35207e-05
0.00107508
-6.20307e-05
0.00104544
-6.00588e-05
0.00101708
-5.76016e-05
0.000990203
-5.46772e-05
0.000965034
-5.1326e-05
0.000941741
-4.76097e-05
0.000920457
-4.36087e-05
0.000901266
-3.94172e-05
0.000884202
-3.51371e-05
0.000869247
-3.08714e-05
0.000856333
-2.67226e-05
0.000845356
-2.27767e-05
0.000836181
-1.90755e-05
0.000828649
-1.56816e-05
0.000822586
-1.26307e-05
0.000817812
-9.93869e-06
0.000814147
-7.60612e-06
0.00081142
-5.62159e-06
0.000809469
-3.96414e-06
0.000808148
-2.6057e-06
0.000807328
-1.51411e-06
0.000806897
-6.50773e-07
0.000806772
1.88409e-08
0.000806857
5.00498e-07
0.000807083
8.45788e-07
0.000807403
1.08195e-06
0.000807776
1.2302e-06
0.000808168
1.30741e-06
0.000808551
1.32683e-06
0.000808901
1.29863e-06
0.000809196
1.223e-06
0.000809419
1.10834e-06
0.000809551
9.53947e-07
0.000809556
7.5468e-07
0.000809419
5.08574e-07
0.000809132
2.04191e-07
0.000808621
-1.61827e-07
0.000807872
-6.09587e-07
0.000806839
-1.13687e-06
0.000805471
-1.76159e-06
0.000803711
-2.49981e-06
0.000801491
-3.37009e-06
0.000798733
-4.394e-06
0.000795347
-5.5974e-06
0.000791227
-7.01151e-06
0.000786247
-8.67453e-06
0.000780257
-1.06336e-05
0.00077308
-1.29478e-05
0.000764499
-1.56916e-05
0.00075425
-1.89621e-05
0.000742008
-2.2882e-05
0.000727362
-2.76222e-05
0.000709795
-3.34019e-05
0.000688632
-4.05301e-05
0.000662998
-4.94434e-05
0.000631716
-6.0693e-05
0.000593187
-7.53151e-05
0.000545372
-9.38023e-05
0.00048492
-0.000119926
0.000409601
-0.000150016
0.000312425
-0.000196783
0.000200848
-0.000229752
7.51495e-05
-0.000264427
-0.000185043
0.00187376
-1.29081e-08
0.00187344
-3.31812e-07
0.00187258
-8.87113e-07
0.00187083
-1.80299e-06
0.00186782
-3.07465e-06
0.00186327
-4.62603e-06
0.001857
-6.37376e-06
0.00184889
-8.23965e-06
0.00183888
-1.01542e-05
0.00182696
-1.2071e-05
0.00181317
-1.39594e-05
0.00179756
-1.57909e-05
0.0017802
-1.75498e-05
0.00176115
-1.92261e-05
0.00174052
-2.08134e-05
0.00171839
-2.2306e-05
0.00169485
-2.36973e-05
0.00167003
-2.49785e-05
0.00164403
-2.61408e-05
0.00161698
-2.71769e-05
0.00158901
-2.8084e-05
0.00156025
-2.88652e-05
0.00153081
-2.95308e-05
0.00150079
-3.00966e-05
0.00147027
-3.05822e-05
0.00143932
-3.10074e-05
0.00140797
-3.13893e-05
0.00137627
-3.17386e-05
0.00134424
-3.20577e-05
0.00131193
-3.23388e-05
0.0012794
-3.2564e-05
0.00124674
-3.27075e-05
0.00121406
-3.27374e-05
0.00118151
-3.262e-05
0.00114928
-3.23229e-05
0.00111758
-3.18181e-05
0.00108663
-3.10846e-05
0.00105668
-3.01102e-05
0.00102798
-2.88927e-05
0.00100074
-2.74407e-05
0.000975187
-2.57737e-05
0.000951499
-2.39223e-05
0.000929816
-2.19261e-05
0.000910231
-1.9832e-05
0.000892785
-1.76908e-05
0.000877467
-1.55537e-05
0.000864219
-1.34739e-05
0.000852938
-1.1496e-05
0.000843496
-9.63347e-06
0.000835738
-7.92419e-06
0.000829494
-6.38582e-06
0.000824582
-5.02662e-06
0.000820823
-3.84717e-06
0.000818043
-2.84207e-06
0.00081608
-2.00111e-06
0.000814785
-1.31048e-06
0.000814025
-7.54454e-07
0.000813687
-3.12469e-07
0.000813669
3.70397e-08
0.000813892
2.77366e-07
0.000814282
4.5572e-07
0.000814783
5.80453e-07
0.000815353
6.60309e-07
0.000815957
7.03742e-07
0.000816566
7.17695e-07
0.000817157
7.0753e-07
0.000817706
6.74167e-07
0.000818193
6.21165e-07
0.000818599
5.48433e-07
0.000818902
4.51043e-07
0.000819078
3.3251e-07
0.000819095
1.8803e-07
0.00081892
1.29396e-08
0.000818524
-2.13532e-07
0.000817859
-4.71832e-07
0.000816875
-7.78065e-07
0.000815516
-1.14085e-06
0.000813715
-1.56934e-06
0.000811396
-2.07421e-06
0.000808467
-2.66828e-06
0.000804822
-3.36705e-06
0.000800337
-4.18948e-06
0.000794862
-5.15897e-06
0.000788219
-6.3049e-06
0.000780192
-7.66421e-06
0.000770515
-9.285e-06
0.000758861
-1.12285e-05
0.000744818
-1.35788e-05
0.000727862
-1.64462e-05
0.000707313
-1.99809e-05
0.000682278
-2.44078e-05
0.000651567
-2.99823e-05
0.000613518
-3.72665e-05
0.000566129
-4.64125e-05
0.000505669
-5.94667e-05
0.000430077
-7.44231e-05
0.000331368
-9.80742e-05
0.000216691
-0.000115076
8.60318e-05
-0.000133768
-9.90107e-05
0.00188393
-4.62997e-12
0.0018836
-1.22351e-10
0.00188272
-3.50781e-10
0.00188091
-6.873e-10
0.00187784
-1.11989e-09
0.00187322
-1.6296e-09
0.00186684
-2.19322e-09
0.00185861
-2.7854e-09
0.00184846
-3.3783e-09
0.00183639
-3.94206e-09
0.00182243
-4.44754e-09
0.00180665
-4.86718e-09
0.0017891
-5.17563e-09
0.00176988
-5.35013e-09
0.00174908
-5.36664e-09
0.00172677
-5.19605e-09
0.00170308
-4.80553e-09
0.00167811
-4.16863e-09
0.00165197
-3.27572e-09
0.0016248
-2.15053e-09
0.00159671
-8.53382e-10
0.00156785
5.26369e-10
0.00153831
1.8786e-09
0.00150821
3.10877e-09
0.00147763
4.14077e-09
0.00144662
4.93489e-09
0.00141522
5.48236e-09
0.00138348
5.80191e-09
0.00135141
5.92837e-09
0.00131907
5.90285e-09
0.0012865
5.76456e-09
0.00125379
5.54572e-09
0.00122104
5.27107e-09
0.00118842
4.95709e-09
0.00115609
4.61379e-09
0.00112427
4.2464e-09
0.00109318
3.85702e-09
0.00106307
3.44693e-09
0.00103417
3.01665e-09
0.00100673
2.56693e-09
0.000980951
2.09956e-09
0.000957027
1.61735e-09
0.000935099
1.12365e-09
0.000915267
6.22946e-10
0.000897576
1.19832e-10
0.000882023
-3.75928e-10
0.000868549
-8.59293e-10
0.000857055
-1.32327e-09
0.000847423
-1.76017e-09
0.000839501
-2.16132e-09
0.000833118
-2.51755e-09
0.000828094
-2.82197e-09
0.00082425
-3.06883e-09
0.000821411
-3.25145e-09
0.000819413
-3.37085e-09
0.000818106
-3.4113e-09
0.000817355
-3.42638e-09
0.000817046
-3.33472e-09
0.000817086
-2.96685e-09
0.000817366
-2.7047e-09
0.000817824
-2.43727e-09
0.000818407
-2.05266e-09
0.000819069
-1.65599e-09
0.000819774
-1.2221e-09
0.000820492
-7.62432e-10
0.0008212
-2.9424e-10
0.000821874
1.77211e-10
0.000822495
6.20415e-10
0.000823042
1.07898e-09
0.000823491
1.43739e-09
0.000823822
1.77558e-09
0.000824008
2.07975e-09
0.000824019
2.4049e-09
0.000823803
2.53186e-09
0.000823328
2.61366e-09
0.000822548
2.58285e-09
0.000821404
2.48208e-09
0.000819833
2.3114e-09
0.000817756
2.07421e-09
0.000815086
1.78259e-09
0.000811718
1.45295e-09
0.000807527
1.10241e-09
0.000802367
7.46758e-10
0.000796062
3.99871e-10
0.000788398
7.34852e-11
0.000779113
-2.18452e-10
0.000767885
-4.71228e-10
0.000754307
-6.76035e-10
0.000737862
-8.26599e-10
0.000717882
-9.20613e-10
0.000693475
-9.5993e-10
0.000663494
-9.4717e-10
0.000626228
-8.90512e-10
0.000579816
-8.00115e-10
0.00052035
-6.85002e-10
0.000445928
-5.61136e-10
0.000347854
-4.32927e-10
0.000232779
-3.17783e-10
9.90107e-05
-1.97426e-10
-5.57416e-11
-0.000672408
0.00956645
-0.00944107
-0.000798031
0.00955168
-0.00942606
-0.000924374
0.00952814
-0.00940179
-0.00105199
0.00950646
-0.00937884
-0.00118127
0.00948828
-0.00935901
-0.00131248
0.00947454
-0.00934332
-0.00144608
0.00946589
-0.00933229
-0.00158253
0.00946286
-0.00932641
-0.00172252
0.00946625
-0.00932627
-0.00186708
0.00947787
-0.00933331
-0.00201812
0.00950113
-0.00935009
-0.00217811
0.00954345
-0.00938347
-0.00235109
0.00961308
-0.0094401
-0.00253896
0.00972093
-0.00953306
-0.00273639
0.00985599
-0.00965856
-0.00290418
0.00996997
-0.00980219
-0.00293607
0.00985586
-0.00982397
-0.00257652
0.00906747
-0.00942702
-0.0015084
0.00661513
-0.00768325
0.00216142
-0.00366982
-0.000679919
0.00969132
-0.000805304
0.00967706
-0.000931483
0.00965432
-0.00105901
0.00963398
-0.00118811
0.00961738
-0.00131915
0.00960558
-0.00145249
0.00959923
-0.00158858
0.00959895
-0.00172808
0.00960575
-0.00187205
0.00962184
-0.00202233
0.00965141
-0.00218153
0.00970266
-0.00235256
0.00978411
-0.0025341
0.00990248
-0.00271068
0.0100326
-0.00282273
0.010082
-0.0027326
0.00976572
-0.00220151
0.00853638
-0.00107159
0.00548521
0.00108982
-0.000687148
0.00981575
-0.000812186
0.0098021
-0.000938156
0.00978029
-0.00106549
0.00976131
-0.00119439
0.00974628
-0.00132521
0.0097364
-0.00145828
0.0097323
-0.00159403
0.0097347
-0.00173312
0.00974483
-0.00187663
0.00976535
-0.00202643
0.00980121
-0.00218489
0.00986112
-0.00235339
0.00995261
-0.00252571
0.0100748
-0.00267443
0.0101813
-0.00272038
0.010128
-0.00250816
0.00955351
-0.00183664
0.00786486
-0.000694987
0.00434356
0.000394836
-0.000694058
0.0099397
-0.000818707
0.00992675
-0.000944391
0.00990597
-0.00107144
0.00988837
-0.00120008
0.00987492
-0.00133061
0.00986693
-0.00146335
0.00986503
-0.00159869
0.00987005
-0.00173731
0.00988345
-0.00188031
0.00990835
-0.0020295
0.0099504
-0.00218667
0.0100183
-0.00235105
0.010117
-0.00251028
0.010234
-0.00262405
0.0102951
-0.00259702
0.0101009
-0.00226776
0.00922424
-0.00147987
0.00707697
-0.000428955
0.00329265
-3.41194e-05
-0.000700627
0.0100632
-0.000824864
0.010051
-0.000950202
0.0100313
-0.00107692
0.0100151
-0.00120522
0.0100032
-0.00133537
0.00999708
-0.00146766
0.00999733
-0.00160249
0.0100049
-0.00174051
0.0100215
-0.00188284
0.0100507
-0.0020311
0.0100987
-0.00218619
0.0101734
-0.00234431
0.0102751
-0.00248579
0.0103755
-0.00255737
0.0103666
-0.00245255
0.00999612
-0.00201861
0.00879031
-0.0011556
0.00621395
-0.000243672
0.00238073
-0.000277791
-0.000706859
0.0101861
-0.000830666
0.0101748
-0.000955623
0.0101563
-0.00108196
0.0101414
-0.00120986
0.0101311
-0.00133957
0.0101268
-0.00147134
0.0101291
-0.00160553
0.0101391
-0.00174278
0.0101587
-0.00188416
0.0101921
-0.00203089
0.0102454
-0.00218249
0.010325
-0.00233146
0.0104241
-0.00245052
0.0104946
-0.00247482
0.0103909
-0.00229134
0.00981264
-0.00176989
0.00826887
-0.000879851
0.0053239
-0.000126003
0.00162688
-0.000403794
-0.000712727
0.0103085
-0.000836081
0.0102981
-0.000960612
0.0102808
-0.00108652
0.0102673
-0.00121397
0.0102586
-0.00134315
0.010256
-0.00147429
0.0102602
-0.00160775
0.0102725
-0.00174414
0.0102951
-0.00188446
0.0103324
-0.00202947
0.0103904
-0.00217702
0.0104725
-0.00231514
0.0105622
-0.0024082
0.0105876
-0.00238126
0.010364
-0.0021202
0.00955158
-0.00152534
0.00767401
-0.000659673
0.00445824
-6.24479e-05
0.00102965
-0.000466242
-0.000718282
0.0104302
-0.000841191
0.0104211
-0.000965289
0.0104049
-0.00109077
0.0103928
-0.00121775
0.0103855
-0.00134639
0.0103846
-0.00147689
0.0103907
-0.00160957
0.0104052
-0.001745
0.0104305
-0.00188392
0.0104713
-0.00202621
0.0105327
-0.0021673
0.0106136
-0.00229016
0.0106851
-0.00235206
0.0106495
-0.00227249
0.0102844
-0.00194238
0.00922147
-0.0012961
0.00702773
-0.000494716
0.00365686
-3.80641e-05
0.000573001
-0.000504306
-0.000723367
0.0105513
-0.000845822
0.0105435
-0.000969378
0.0105284
-0.00109435
0.0105178
-0.00122072
0.0105119
-0.00134869
0.0105126
-0.0014784
0.0105204
-0.00161016
0.010537