/*--------------------------------*- C++ -*----------------------------------*\
  =========                 |
  \\      /  F ield         | OpenFOAM: The Open Source CFD Toolbox
   \\    /   O peration     | Website:  https://openfoam.org
    \\  /    A nd           | Version:  7
     \\/     M anipulation  |
\*---------------------------------------------------------------------------*/
FoamFile
{
    version     2.0;
    format      ascii;
    class       volVectorField;
    location    "62";
    object      U;
}
// * * * * * * * * * * * * * * * * * * * * * * * * * * * * * * * * * * * * * //

dimensions      [0 1 -1 0 0 0 0];

internalField   nonuniform List<vector> 
125
(
(1.24166 -0.221808 2.11137e-17)
(1.2409 -0.234621 6.91137e-18)
(1.24096 -0.248234 1.10865e-18)
(1.24202 -0.262754 -1.94141e-17)
(1.24442 -0.278546 -2.41506e-17)
(1.23552 -0.22268 3.43636e-17)
(1.23444 -0.236204 6.85232e-18)
(1.23416 -0.250641 1.46126e-18)
(1.23484 -0.266144 -2.34625e-17)
(1.23687 -0.283098 -2.71363e-17)
(1.22925 -0.222609 1.61317e-17)
(1.22783 -0.236643 -4.33312e-18)
(1.22716 -0.251675 3.98615e-18)
(1.22738 -0.26788 -3.7665e-17)
(1.22885 -0.285656 -3.23032e-17)
(1.22513 -0.209086 9.0738e-18)
(1.22269 -0.222714 2.7041e-17)
(1.22084 -0.237318 1.00057e-17)
(1.2197 -0.253014 -4.16107e-18)
(1.21936 -0.270007 -1.88088e-17)
(1.22017 -0.288709 -3.65358e-17)
(1.21878 -0.208456 2.07697e-17)
(1.21593 -0.222543 2.89187e-17)
(1.21361 -0.237666 6.22138e-18)
(1.21192 -0.253967 -2.18222e-18)
(1.21092 -0.271678 -1.65827e-17)
(1.21095 -0.291217 -4.30196e-17)
(1.21235 -0.207708 1.89602e-17)
(1.20907 -0.222235 3.43995e-17)
(1.20624 -0.237857 7.72654e-18)
(1.20393 -0.254741 1.02602e-17)
(1.2022 -0.273142 -1.9309e-17)
(1.20596 -0.206793 2.12464e-17)
(1.20226 -0.221727 4.1181e-17)
(1.19894 -0.237804 7.51632e-18)
(1.19602 -0.255219 9.17967e-18)
(1.19355 -0.274244 -2.13299e-17)
(1.19942 -0.205747 2.28897e-17)
(1.19533 -0.221061 4.88152e-17)
(1.19155 -0.237562 6.32582e-18)
(1.1881 -0.255465 1.39255e-17)
(1.18498 -0.275059 -9.51981e-18)
(1.19211 -0.204566 -3.82332e-18)
(1.1875 -0.220239 4.51598e-17)
(1.18315 -0.237142 1.9135e-17)
(1.17906 -0.25551 2.49185e-18)
(1.17522 -0.275641 -2.68226e-17)
(1.18346 -0.20316 1.57071e-17)
(1.17798 -0.219158 4.26936e-17)
(1.1726 -0.236432 2.23995e-18)
(1.16729 -0.255235 -5.54173e-18)
(1.16201 -0.275877 -2.34323e-17)
(1.29036 -0.217895 1.88371e-17)
(1.2913 -0.227394 -2.55006e-18)
(1.29329 -0.23727 1.47263e-18)
(1.29666 -0.247377 -5.10871e-18)
(1.30196 -0.257698 -4.65276e-18)
(1.2863 -0.217469 2.30611e-17)
(1.28705 -0.227239 3.09272e-18)
(1.2888 -0.23743 2.34385e-18)
(1.29187 -0.247918 -5.42809e-18)
(1.29683 -0.258741 -5.67936e-18)
(1.28206 -0.217217 2.08708e-17)
(1.28258 -0.227316 2.49972e-18)
(1.28409 -0.237886 -2.38564e-18)
(1.28685 -0.248816 -5.66258e-18)
(1.29143 -0.260161 -1.23271e-17)
(1.27769 -0.216735 1.23739e-17)
(1.27798 -0.227128 4.71892e-18)
(1.27922 -0.238039 6.29522e-18)
(1.28166 -0.249377 -5.25369e-18)
(1.28582 -0.261229 -6.83128e-18)
(1.27316 -0.216176 1.08332e-17)
(1.27321 -0.226864 4.55607e-18)
(1.27417 -0.238114 -1.49473e-18)
(1.27626 -0.249856 -5.51548e-18)
(1.27996 -0.262185 -1.12815e-17)
(1.26849 -0.215468 1.36848e-17)
(1.26829 -0.226432 6.52224e-18)
(1.26895 -0.238002 2.90392e-18)
(1.27067 -0.250127 -4.7705e-18)
(1.27388 -0.262918 -1.26278e-17)
(1.2793 -0.276544 2.8366e-18)
(1.26368 -0.214629 1.54848e-17)
(1.26319 -0.225854 7.52402e-18)
(1.26353 -0.237725 2.86393e-18)
(1.26484 -0.25021 3.69441e-18)
(1.26751 -0.263426 -1.71215e-17)
(1.27218 -0.277587 8.4389e-19)
(1.25874 -0.213635 1.79013e-17)
(1.25794 -0.225097 1.82484e-17)
(1.25791 -0.237242 3.07494e-18)
(1.25878 -0.250056 4.44681e-18)
(1.26085 -0.263661 -2.12138e-17)
(1.2647 -0.278313 -6.09428e-18)
(1.25257 -0.224152 1.99396e-17)
(1.25218 -0.236538 3.55972e-18)
(1.25261 -0.249639 9.12516e-19)
(1.2541 -0.263576 -1.57225e-17)
(1.25712 -0.278643 -1.50883e-17)
(1.24714 -0.223033 1.50673e-17)
(1.2465 -0.235631 4.79501e-18)
(1.24665 -0.248985 -3.54046e-18)
(1.24779 -0.263211 -1.85982e-17)
(1.25031 -0.278638 -1.70288e-17)
(1.05805 -0.0742982 1.66368e-17)
(1.07027 -0.13945 -2.50767e-17)
(1.11884 -0.137239 1.2442e-16)
(1.14216 -0.194996 5.31523e-17)
(1.0507 -0.0777527 2.28866e-18)
(1.06043 -0.150506 1.61574e-17)
(1.11073 -0.144852 1.43757e-17)
(1.13137 -0.212038 2.77563e-17)
(1.04269 -0.0807143 -2.01955e-17)
(1.04982 -0.161525 6.3783e-17)
(1.10181 -0.152087 1.41763e-17)
(1.11947 -0.230491 9.17303e-17)
(1.03387 -0.083171 -6.67265e-17)
(1.03845 -0.172443 -3.76252e-17)
(1.09193 -0.15889 5.64025e-17)
(1.1062 -0.250661 8.03679e-18)
(1.02407 -0.0851344 1.84569e-18)
(1.02644 -0.183186 -2.68276e-17)
(1.08077 -0.165169 -1.04589e-17)
(1.09122 -0.272879 -3.15876e-17)
)
;

boundaryField
{
    inlet
    {
        type            uniformFixedValue;
        uniformValue    constant (1 0 0);
        value           nonuniform 0();
    }
    outlet
    {
        type            pressureInletOutletVelocity;
        value           nonuniform 0();
    }
    polygon
    {
        type            fixedValue;
        value           nonuniform 0();
    }
    top
    {
        type            symmetryPlane;
    }
    bottom
    {
        type            symmetryPlane;
    }
    outside
    {
        type            zeroGradient;
    }
    procBoundary9to0
    {
        type            processor;
        value           nonuniform List<vector> 2((1.03396 -0.0851884 2.46381e-17) (1.02744 -0.0904857 3.97402e-17));
    }
    procBoundary9to1
    {
        type            processor;
        value           nonuniform List<vector> 
26
(
(1.24313 -0.209755 1.31359e-17)
(1.23728 -0.210005 1.51142e-17)
(1.23132 -0.209482 4.49428e-18)
(1.23132 -0.209482 4.49428e-18)
(1.22817 -0.196112 -1.07671e-18)
(1.22218 -0.195087 -4.04832e-19)
(1.21613 -0.193962 8.89416e-18)
(1.21009 -0.192703 1.83803e-17)
(1.20388 -0.191337 3.11517e-17)
(1.19701 -0.189855 1.89094e-17)
(1.18909 -0.188183 1.45151e-17)
(1.29026 -0.208518 7.52997e-18)
(1.28639 -0.207862 6.52549e-18)
(1.28236 -0.207322 -1.41263e-18)
(1.2782 -0.206587 -1.85088e-18)
(1.27389 -0.205775 -4.25141e-18)
(1.26946 -0.20483 1.6418e-18)
(1.2649 -0.203767 -2.50319e-18)
(1.26023 -0.202569 -3.69359e-18)
(1.25368 -0.21248 9.64429e-18)
(1.25368 -0.21248 9.64429e-18)
(1.24847 -0.211172 1.26845e-17)
(1.06477 -0.0703551 2.31262e-17)
(1.07938 -0.128424 -8.38584e-18)
(1.12626 -0.129263 3.04032e-17)
(1.15204 -0.179176 2.58167e-17)
)
;
    }
    procBoundary9to2
    {
        type            processor;
        value           nonuniform List<vector> 3((1.29895 -0.217102 1.23844e-17) (1.30031 -0.225676 -1.5835e-18) (1.30277 -0.234493 5.10644e-19));
    }
    procBoundary9to8
    {
        type            processor;
        value           nonuniform List<vector> 3((1.02053 -0.0952761 4.1319e-17) (1.0133 -0.0994501 5.99181e-17) (1.00581 -0.102822 1.86563e-17));
    }
    procBoundary9to10
    {
        type            processor;
        value           nonuniform List<vector> 2((1.30666 -0.243395 -4.05929e-18) (1.31239 -0.25232 -3.10446e-18));
    }
    procBoundary9to17
    {
        type            processor;
        value           nonuniform List<vector> 
26
(
(1.24893 -0.295694 -5.64201e-18)
(1.24093 -0.301701 -1.96933e-18)
(1.23223 -0.305248 -1.25011e-17)
(1.22276 -0.309444 -9.58292e-18)
(1.21257 -0.31297 -2.29742e-17)
(1.20131 -0.293489 -5.01145e-17)
(1.20131 -0.293489 -5.01145e-17)
(1.19173 -0.295318 -6.02963e-17)
(1.18236 -0.296787 -5.91274e-17)
(1.17176 -0.297979 -6.2968e-17)
(1.15685 -0.298802 -7.71371e-17)
(1.30947 -0.267899 -3.21079e-18)
(1.30428 -0.269768 -2.42135e-18)
(1.2985 -0.271857 -3.40836e-18)
(1.29248 -0.273639 -3.45355e-19)
(1.28602 -0.275208 -2.47938e-18)
(1.28602 -0.275208 -2.47938e-18)
(1.28802 -0.291053 -5.00306e-19)
(1.27998 -0.292822 -2.02315e-18)
(1.27142 -0.294181 2.66514e-18)
(1.2627 -0.295006 -9.57377e-19)
(1.25514 -0.295392 5.85918e-18)
(1.01311 -0.086688 -3.17365e-18)
(1.014 -0.193645 -7.53018e-17)
(1.06767 -0.170772 -3.87487e-17)
(1.07428 -0.297568 -7.34372e-17)
)
;
    }
}


// ************************************************************************* //
