/*--------------------------------*- C++ -*----------------------------------*\
  =========                 |
  \\      /  F ield         | OpenFOAM: The Open Source CFD Toolbox
   \\    /   O peration     | Website:  https://openfoam.org
    \\  /    A nd           | Version:  7
     \\/     M anipulation  |
\*---------------------------------------------------------------------------*/
FoamFile
{
    version     2.0;
    format      ascii;
    class       surfaceScalarField;
    location    "15";
    object      phi;
}
// * * * * * * * * * * * * * * * * * * * * * * * * * * * * * * * * * * * * * //

dimensions      [0 3 -1 0 0 0 0];

internalField   nonuniform List<scalar> 
203
(
-0.0132357
0.0147145
-0.0117607
-0.0102889
-0.0088195
-0.00735165
-0.00588439
-0.00441669
-0.00294748
-0.00147563
0.00114855
-0.00411621
0.00437744
-0.0250005
0.0261491
0.00114019
-0.00384995
-0.0238603
0.00113849
-0.00358508
-0.0227218
0.00113843
-0.00332285
-0.0215834
0.00113921
-0.00306383
-0.0204442
0.00114064
-0.00280833
-0.0193036
0.00114262
-0.00255654
-0.018161
0.00114511
-0.00230868
-0.0170158
0.0011484
-0.0020652
-0.0158674
0.00115293
0.000582265
-0.0191057
0.0190106
0.000619759
-0.019586
0.0195485
0.000638317
-0.020296
0.0202775
-0.0193579
0.0199962
0.000566157
-0.0191939
0.000592284
-0.0196121
0.000579737
-0.0202835
-0.0187782
0.000550619
-0.0192757
0.000567373
-0.0196289
0.000529514
-0.0202456
-0.0182487
0.000535209
-0.0193512
0.000543576
-0.0196373
0.000484113
-0.0201862
-0.0177645
0.000520049
-0.0194206
0.000521161
-0.0196384
0.0004436
-0.0201086
-0.0173209
0.000441755
-0.0191844
0.000505259
-0.0194841
0.000500144
-0.0196333
0.000407465
-0.0200159
-0.0169135
0.000433301
-0.019268
0.000491174
-0.019542
0.000480471
-0.0196225
0.000374784
-0.0199102
-0.0165387
0.000425244
-0.0193494
0.000478159
-0.0195949
0.000462171
-0.0196066
0.000344448
-0.0197925
-0.0161943
0.000416303
-0.0194285
0.000465492
-0.0196441
0.000445464
-0.0195865
0.000317577
-0.0196646
-0.0158767
0.000401708
-0.019504
0.000447143
-0.0196895
0.000426804
-0.0195662
0.000295523
-0.0195333
-0.0155812
4.92828e-05
-0.0189459
7.70572e-05
-0.0198667
0.000108385
-0.020549
-0.0191576
3.35274e-05
-0.0189718
4.80883e-05
-0.0198812
6.09521e-05
-0.0205618
-0.0190966
1.77623e-05
-0.0189924
2.04822e-05
-0.0198839
1.58417e-05
-0.0205572
-0.0190808
1.80186e-06
-0.0190083
-6.72306e-06
-0.0198754
-2.37806e-05
-0.0205401
-0.0191046
-1.31058e-05
-0.0190202
-3.62754e-05
-0.0198522
-6.04776e-05
-0.0205159
-0.019165
-2.81605e-05
-0.0190278
-6.43303e-05
-0.0198161
-9.67547e-05
-0.0204835
-0.0192618
-4.33055e-05
-0.0190306
-9.16778e-05
-0.0197677
-0.000132161
-0.020443
-0.019394
-5.83607e-05
-0.0190285
-0.000118669
-0.0197074
-0.000166193
-0.0203955
-0.0195602
-7.27681e-05
-0.0190218
-0.000145648
-0.0196345
-0.000199429
-0.0203417
-0.0197596
-8.64016e-05
-0.000172405
-0.000236648
0.0168383
-0.00285403
-0.0159068
0.0165922
-0.00324874
-0.0190041
0.0163534
-0.00374828
-0.0222169
0.0158014
-0.00411309
-0.0259488
0.0153809
)
;

boundaryField
{
    inlet
    {
        type            calculated;
        value           nonuniform 0();
    }
    outlet
    {
        type            calculated;
        value           nonuniform 0();
    }
    polygon
    {
        type            calculated;
        value           uniform 0;
    }
    top
    {
        type            symmetryPlane;
        value           uniform 0;
    }
    bottom
    {
        type            symmetryPlane;
        value           uniform 0;
    }
    outside
    {
        type            calculated;
        value           nonuniform 0();
    }
    procBoundary5to0
    {
        type            processor;
        value           nonuniform List<scalar> 10(-0.00140977 -0.00140645 -0.00140336 -0.00140066 -0.00139823 -0.0165226 -0.0161975 -0.0158539 -0.0154366 -0.0151166);
    }
    procBoundary5to1
    {
        type            processor;
        value           nonuniform List<scalar> 
23
(
-0.000487201
-0.000477903
-0.000468822
-0.000459733
-0.000450664
0.0190981
-0.000355546
-0.000349642
-0.000343858
-0.000337225
-0.00032614
-1.83571e-05
-7.72029e-06
2.90004e-06
1.41204e-05
2.50132e-05
3.56796e-05
4.61207e-05
5.62881e-05
6.60469e-05
7.52433e-05
0.00253832
0.0132411
)
;
    }
    procBoundary5to4
    {
        type            processor;
        value           nonuniform List<scalar> 
16
(
-0.00147878
-0.00182698
-0.00147501
-0.00147183
-0.0014694
-0.00146785
-0.00146726
-0.0014677
-0.00146922
-0.00147184
-0.00147563
-0.00139614
-0.0013944
-0.00139298
-0.00139188
-0.00139115
)
;
    }
    procBoundary5to6
    {
        type            processor;
        value           nonuniform List<scalar> 4(0.018915 0.0198389 0.0205176 0.019266);
    }
    procBoundary5to9
    {
        type            processor;
        value           uniform -9.51105e-12;
    }
}


// ************************************************************************* //
