/*--------------------------------*- C++ -*----------------------------------*\
  =========                 |
  \\      /  F ield         | OpenFOAM: The Open Source CFD Toolbox
   \\    /   O peration     | Website:  https://openfoam.org
    \\  /    A nd           | Version:  7
     \\/     M anipulation  |
\*---------------------------------------------------------------------------*/
FoamFile
{
    version     2.0;
    format      ascii;
    class       surfaceScalarField;
    location    "112";
    object      phi;
}
// * * * * * * * * * * * * * * * * * * * * * * * * * * * * * * * * * * * * * //

dimensions      [0 3 -1 0 0 0 0];

internalField   nonuniform List<scalar> 
7840
(
-0.00147437
0.00976861
-0.00939943
-0.00183919
0.00973245
-0.00936763
-0.00220384
0.00967597
-0.00931133
-0.00256802
0.00963176
-0.00926758
-0.0029334
0.00958256
-0.00921718
-0.00329992
0.00954112
-0.00917459
-0.00366952
0.00949738
-0.00912778
-0.00404314
0.00945871
-0.00908509
-0.00442268
0.00941976
-0.00904022
-0.00480929
0.00938726
-0.00900065
-0.00520851
0.00935336
-0.00895414
-0.0056209
0.00933479
-0.00892241
-0.00606284
0.00930884
-0.0088669
-0.00652485
0.00932402
-0.00886201
-0.00700843
0.00927334
-0.00878976
-0.00733764
0.00914944
-0.00882023
-0.00719713
0.00843705
-0.00857755
-0.00579251
0.00698163
-0.00838625
-0.00317788
0.004017
-0.00663163
0.0010906
-0.00426848
-0.00150058
0.0101388
-0.0018679
0.0100998
-0.00223551
0.0100436
-0.0026033
0.00999955
-0.00297261
0.00995187
-0.00334404
0.00991255
-0.00371928
0.00987262
-0.00409996
0.00983939
-0.00448868
0.00980848
-0.00488796
0.00978654
-0.0053043
0.0097697
-0.00574241
0.0097729
-0.00621132
0.00977776
-0.00666781
0.00978051
-0.00698622
0.00959176
-0.00683412
0.00899734
-0.0058594
0.00746233
-0.00382415
0.00494638
-0.00144304
0.00163589
-0.000352441
-0.0015257
0.0105102
-0.00189503
0.0104691
-0.00226531
0.0104139
-0.00263632
0.0103706
-0.00300981
0.0103254
-0.00338652
0.0102893
-0.00376843
0.0102545
-0.00415713
0.0102281
-0.00455547
0.0102068
-0.00496671
0.0101978
-0.00539698
0.0102
-0.00584482
0.0102207
-0.00627984
0.0102128
-0.0065732
0.0100739
-0.00647545
0.00949401
-0.00563156
0.00815345
-0.00390709
0.00573786
-0.00162715
0.00266645
-9.16285e-05
0.000100366
-0.000444069
-0.00154964
0.0108828
-0.00192078
0.0108402
-0.00229327
0.0107864
-0.00266694
0.0107442
-0.00304346
0.0107019
-0.00342352
0.0106693
-0.0038092
0.0106402
-0.00420284
0.0106217
-0.00460848
0.0106125
-0.00503029
0.0106196
-0.00546787
0.0106375
-0.0058931
0.010646
-0.00621353
0.0105332
-0.00622333
0.0100837
-0.00564412
0.00891479
-0.00427789
0.00678723
-0.00236139
0.00382135
-0.000731895
0.00103695
-5.84204e-05
-0.000573109
-0.00050249
-0.00157218
0.0112563
-0.00194498
0.011213
-0.00231948
0.0111609
-0.00269591
0.0111206
-0.00307605
0.011082
-0.00346127
0.0110545
-0.00385414
0.0110331
-0.00425683
0.0110244
-0.0046712
0.0110268
-0.00509547
0.0110439
-0.00551216
0.0110542
-0.00585537
0.0109892
-0.0059734
0.0106512
-0.00562329
0.00973356
-0.00458842
0.00787993
-0.00292241
0.00512121
-0.00122275
0.0021217
-0.000163248
-2.25528e-05
0.000113873
-0.00085023
-0.000388616
-0.00159341
0.0116308
-0.00196776
0.0115874
-0.00234406
0.0115372
-0.00272273
0.0114993
-0.00310515
0.0114644
-0.00349235
0.0114417
-0.00388588
0.0114266
-0.00428759
0.0114261
-0.00469885
0.0114381
-0.00511125
0.0114563
-0.00548258
0.0114256
-0.00569912
0.0112057
-0.00556332
0.0105154
-0.00485242
0.00902266
-0.00350518
0.00653269
-0.00187376
0.00348978
-0.000627308
0.000875249
-6.67572e-05
-0.000583103
6.20366e-06
-0.000923191
-0.000382413
-0.00161312
0.012006
-0.00198868
0.0119629
-0.00236646
0.0119149
-0.00274732
0.0118802
-0.00313274
0.0118499
-0.00352466
0.0118337
-0.00392525
0.0118272
-0.00433598
0.0118369
-0.00475094
0.011853
-0.00513968
0.011845
-0.00542179
0.0117077
-0.0054476
0.0112315
-0.00502079
0.0100886
-0.00400146
0.00800333
-0.00253131
0.00506254
-0.00115336
0.00211183
-0.00034211
6.40011e-05
-3.44871e-05
-0.000890726
6.90792e-06
-0.000964586
-0.000375505
-0.00163166
0.0123818
-0.00200847
0.0123397
-0.00238771
0.0122942
-0.00277042
0.0122629
-0.00315734
0.0122368
-0.00354937
0.0122257
-0.00394607
0.0122239
-0.00434393
0.0122347
-0.00472752
0.0122366
-0.00505065
0.0121681
-0.00521131
0.0118683
-0.0050422
0.0110624
-0.00436525
0.00941168
-0.00315792
0.006796
-0.0017667
0.00367132
-0.000732395
0.00107752
-0.000212857
-0.000455537
-3.82797e-05
-0.0010653
-2.17515e-05
-0.000981114
-0.000397256
-0.00164851
0.0127579
-0.00202594
0.0127172
-0.00240585
0.0126741
-0.00279003
0.0126471
-0.00317871
0.0126255
-0.00357379
0.0126208
-0.0039753
0.0126254
-0.00437801
0.0126374
-0.00475484
0.0126135
-0.0050292
0.0124425
-0.00505673
0.0118959
-0.0046582
0.0106639
-0.00373463
0.00848811
-0.00244139
0.00550276
-0.00123216
0.00246209
-0.000461977
0.000307338
-0.000101667
-0.000815846
5.23658e-06
-0.00117221
5.41512e-06
-0.000981292
-0.000391841
-0.00166412
0.0131337
-0.00204357
0.0130966
-0.00242481
0.0130553
-0.00281103
0.0130333
-0.00320056
0.013015
-0.00359423
0.0130144
-0.00398597
0.0130172
-0.00435749
0.013009
-0.00465771
0.0129137
-0.00478496
0.0125698
-0.0045982
0.0117091
-0.00398114
0.0100468
-0.00294989
0.00745686
-0.00175395
0.00430682
-0.000787087
0.00149523
-0.000223447
-0.000256302
2.5941e-05
-0.00106523
5.88789e-05
-0.00120515
1.40712e-05
-0.000936485
-0.00037777
-0.000617931
0.0115516
-0.011774
-0.000403541
0.0114581
-0.0116724
-0.000194113
0.0113586
-0.011568
3.50712e-06
0.0112311
-0.0114288
0.000192098
0.0111128
-0.0113014
0.000366359
0.0109644
-0.0111387
0.000526644
0.0108157
-0.010976
0.000668586
0.0106355
-0.0107775
0.000789264
0.0104368
-0.0105575
0.000884452
0.0101969
-0.0102921
0.000948903
0.00991812
-0.00998257
0.000977746
0.00957483
-0.00960368
0.000962413
0.0091709
-0.00915557
0.000905174
0.00866946
-0.00861222
0.00079665
0.00811516
-0.00800663
0.000644161
0.00740954
-0.00725705
0.000441447
0.00670863
-0.00650592
0.000178103
0.00574891
-0.00548557
-6.71899e-06
0.00458921
-0.00440439
0.00218185
-0.00218856
-0.000642659
0.0113261
-0.000425958
0.0112414
-0.00021394
0.0111465
-1.35182e-05
0.0110307
0.000178036
0.0109213
0.000355365
0.0107871
0.000518722
0.0106523
0.000663678
0.0104906
0.000787517
0.010313
0.000885717
0.0100987
0.000953171
0.00985066
0.000985058
0.00954295
0.000974857
0.00918111
0.000921057
0.00872326
0.000821119
0.0082151
0.000667725
0.00756294
0.000485131
0.00689123
0.000229993
0.00600405
7.37468e-05
0.00474546
0.00225559
-0.000667322
0.0110978
-0.000447426
0.0110215
-0.000232471
0.0109316
-2.86633e-05
0.0108269
0.000166483
0.0107261
0.000347681
0.0106059
0.000515073
0.0104849
0.000664145
0.0103415
0.000792021
0.0101851
0.000893662
0.00999705
0.000963367
0.00978096
0.000995243
0.00951107
0.000981103
0.00919525
0.00091671
0.00878765
0.000798783
0.00833302
0.000618978
0.00774274
0.000403834
0.00710637
0.000120129
0.00628776
-3.65484e-05
0.00490214
0.00221904
-0.000691449
0.0108664
-0.000468022
0.010798
-0.000249706
0.0107133
-4.20583e-05
0.0106193
0.000157109
0.010527
0.000342768
0.0104202
0.000514937
0.0103128
0.000669149
0.0101873
0.000802579
0.0100517
0.000910027
0.0098896
0.000986009
0.00970498
0.00102377
0.00947331
0.00101653
0.00920248
0.000954714
0.00884946
0.000841904
0.00844583
0.000650202
0.00793444
0.000434262
0.00732231
0.000154892
0.00656713
-1.62649e-05
0.00507329
0.00220278
-0.000715221
0.0106317
-0.00048803
0.0105708
-0.000266083
0.0104913
-5.42456e-05
0.0104074
0.000149345
0.0103234
0.000340012
0.0102295
0.000517764
0.010135
0.000678313
0.0100268
0.00081904
0.00991093
0.000934565
0.00977408
0.0010197
0.00961984
0.00106652
0.0094265
0.00106907
0.00919994
0.00101538
0.00890315
0.000909634
0.00855158
0.000732693
0.00811138
0.000506558
0.00754845
0.0002305
0.00684319
2.60839e-05
0.00527771
0.00222886
-0.000738132
0.0103933
-0.000506702
0.0103394
-0.000280508
0.0102651
-6.37407e-05
0.0101907
0.000145169
0.0101145
0.000341984
0.0100327
0.000526819
0.00995017
0.000695595
0.00985798
0.000846164
0.00976036
0.000972949
0.00964729
0.0010717
0.00952109
0.00113202
0.00936618
0.00115082
0.00918114
0.00110611
0.00894786
0.00100808
0.0086496
0.000801369
0.0083181
0.000564168
0.00778565
0.000241758
0.0071656
2.51053e-05
0.00549436
0.00225397
-0.000760974
0.0101512
-0.000525354
0.0101038
-0.000294949
0.0100347
-7.33211e-05
0.00996904
0.000140876
0.00990027
0.000343748
0.00982985
0.000535599
0.00975832
0.000712764
0.00968082
0.000873452
0.00959967
0.0010119
0.00950885
0.00112415
0.00940883
0.00119977
0.00929056
0.00123607
0.00914483
0.00121566
0.00896828
0.00114834
0.00871692
0.0010251
0.00844134
0.000822988
0.00798776
0.000569006
0.00741958
0.00022624
0.00583713
0.00248021
-0.000782117
0.00990484
-0.000541454
0.00986313
-0.000305621
0.00979889
-7.77574e-05
0.00974118
0.00014333
0.00967918
0.000354256
0.00961893
0.000555723
0.00955685
0.00074434
0.0094922
0.000918728
0.00942529
0.00107331
0.00935427
0.00120594
0.0092762
0.00130505
0.00919145
0.00136832
0.00908156
0.00136781
0.00896878
0.0013046
0.00878014
0.00110856
0.00863738
0.000846909
0.00824941
0.000434749
0.00783174
0.000160969
0.00611091
0.00264118
-0.000804548
0.00965464
-0.000560033
0.00961861
-0.000320179
0.00955904
-8.77646e-05
0.00950876
0.000138386
0.00945303
0.000354933
0.00940238
0.000562888
0.0093489
0.00075879
0.0092963
0.000941655
0.00924242
0.00110664
0.00918928
0.00125192
0.00913093
0.00136728
0.00907608
0.00145177
0.00899707
0.0014894
0.00893115
0.00149555
0.00877399
0.00148267
0.00865026
0.00142157
0.00831051
0.00126898
0.00798432
0.000772573
0.00660732
0.00341375
-0.000822684
-0.000571702
-0.000323989
-8.28062e-05
0.000153044
0.000380831
0.000601946
0.000813154
0.00101536
0.00120398
0.00138078
0.00153445
0.00166463
0.00173377
0.001718
0.00154802
0.00128097
0.000879042
0.000854732
-0.000822684
-0.00965464
0.00939943
-0.000571702
-0.00961862
0.00936763
-0.00032399
-0.00955904
0.00931133
-8.28066e-05
-0.00950876
0.00926758
0.000153044
-0.00945303
0.00921718
0.000380831
-0.00940238
0.0091746
0.000601946
-0.0093489
0.00912778
0.000813154
-0.0092963
0.00908509
0.00101536
-0.00924242
0.00904022
0.00120398
-0.00918928
0.00900065
0.00138078
-0.00913093
0.00895414
0.00153445
-0.00907608
0.00892241
0.00166462
-0.00899707
0.0088669
0.00173377
-0.00893115
0.00886201
0.001718
-0.00877399
0.00878976
0.00154802
-0.00865026
0.00882023
0.00128097
-0.00831051
0.00857755
0.000879042
-0.00798432
0.00838625
0.000854732
-0.00660732
0.00663163
-0.00341375
0.00426848
-0.000804548
-0.00990484
-0.000560034
-0.00986313
-0.000320179
-0.00979889
-8.77649e-05
-0.00974118
0.000138386
-0.00967918
0.000354932
-0.00961893
0.000562888
-0.00955685
0.00075879
-0.0094922
0.000941655
-0.00942529
0.00110664
-0.00935427
0.00125191
-0.0092762
0.00136728
-0.00919145
0.00145177
-0.00908156
0.0014894
-0.00896878
0.00149555
-0.00878014
0.00148267
-0.00863738
0.00142157
-0.00824941
0.00126898
-0.00783174
0.000772573
-0.00611091
-0.00264118
-0.000782117
-0.0101512
-0.000541455
-0.0101038
-0.000305621
-0.0100347
-7.77577e-05
-0.00996904
0.000143329
-0.00990027
0.000354256
-0.00982986
0.000555723
-0.00975832
0.00074434
-0.00968082
0.000918727
-0.00959967
0.00107331
-0.00950885
0.00120594
-0.00940883
0.00130505
-0.00929056
0.00136832
-0.00914483
0.00136781
-0.00896828
0.0013046
-0.00871692
0.00110856
-0.00844134
0.000846909
-0.00798776
0.000434749
-0.00741958
0.000160969
-0.00583713
-0.00248021
-0.000760974
-0.0103933
-0.000525355
-0.0103394
-0.00029495
-0.0102651
-7.33215e-05
-0.0101907
0.000140876
-0.0101145
0.000343747
-0.0100327
0.000535599
-0.00995017
0.000712763
-0.00985798
0.000873451
-0.00976036
0.0010119
-0.00964729
0.00112415
-0.00952109
0.00119977
-0.00936618
0.00123607
-0.00918114
0.00121566
-0.00894786
0.00114834
-0.0086496
0.0010251
-0.0083181
0.000822988
-0.00778565
0.000569006
-0.00716559
0.00022624
-0.00549436
-0.00225397
-0.000738133
-0.0106317
-0.000506703
-0.0105708
-0.000280509
-0.0104913
-6.37411e-05
-0.0104074
0.000145169
-0.0103234
0.000341983
-0.0102295
0.000526819
-0.010135
0.000695594
-0.0100268
0.000846163
-0.00991093
0.000972949
-0.00977408
0.0010717
-0.00961984
0.00113202
-0.0094265
0.00115082
-0.00919994
0.00110611
-0.00890315
0.00100808
-0.00855158
0.000801369
-0.00811138
0.000564168
-0.00754845
0.000241758
-0.00684319
2.51052e-05
-0.00527771
-0.00222886
-0.000715221
-0.0108664
-0.000488031
-0.010798
-0.000266083
-0.0107133
-5.42459e-05
-0.0106193
0.000149345
-0.010527
0.000340012
-0.0104202
0.000517764
-0.0103128
0.000678312
-0.0101873
0.00081904
-0.0100517
0.000934565
-0.0098896
0.0010197
-0.00970498
0.00106652
-0.00947331
0.00106907
-0.00920248
0.00101538
-0.00884946
0.000909634
-0.00844583
0.000732693
-0.00793444
0.000506558
-0.00732231
0.0002305
-0.00656713
2.60839e-05
-0.00507329
-0.00220278
-0.000691449
-0.0110978
-0.000468022
-0.0110215
-0.000249706
-0.0109316
-4.20586e-05
-0.0108269
0.000157108
-0.0107261
0.000342767
-0.0106059
0.000514937
-0.0104849
0.000669149
-0.0103415
0.000802578
-0.0101851
0.000910026
-0.00999705
0.000986008
-0.00978096
0.00102377
-0.00951107
0.00101653
-0.00919525
0.000954714
-0.00878765
0.000841904
-0.00833302
0.000650202
-0.00774274
0.000434262
-0.00710637
0.000154892
-0.00628776
-1.62649e-05
-0.00490214
-0.00221904
-0.000667323
-0.0113261
-0.000447426
-0.0112414
-0.000232471
-0.0111465
-2.86636e-05
-0.0110307
0.000166483
-0.0109213
0.000347681
-0.0107871
0.000515073
-0.0106523
0.000664145
-0.0104906
0.00079202
-0.010313
0.000893662
-0.0100987
0.000963367
-0.00985066
0.000995243
-0.00954295
0.000981102
-0.00918111
0.00091671
-0.00872326
0.000798783
-0.0082151
0.000618978
-0.00756294
0.000403834
-0.00689123
0.000120129
-0.00600405
-3.65484e-05
-0.00474546
-0.00225559
-0.000642659
-0.0115516
-0.000425958
-0.0114581
-0.00021394
-0.0113586
-1.35184e-05
-0.0112311
0.000178036
-0.0111128
0.000355365
-0.0109644
0.000518722
-0.0108157
0.000663678
-0.0106355
0.000787517
-0.0104368
0.000885717
-0.0101969
0.000953171
-0.00991812
0.000985057
-0.00957483
0.000974856
-0.0091709
0.000921056
-0.00866946
0.000821119
-0.00811516
0.000667725
-0.00740954
0.000485131
-0.00670863
0.000229993
-0.00574891
7.37467e-05
-0.00458921
-0.00218185
-0.000617931
-0.011774
-0.000403541
-0.0116724
-0.000194113
-0.011568
3.5069e-06
-0.0114288
0.000192098
-0.0113014
0.000366359
-0.0111387
0.000526644
-0.010976
0.000668586
-0.0107775
0.000789264
-0.0105575
0.000884451
-0.0102921
0.000948902
-0.00998257
0.000977745
-0.00960368
0.000962413
-0.00915557
0.000905174
-0.00861222
0.00079665
-0.00800663
0.00064416
-0.00725705
0.000441447
-0.00650592
0.000178103
-0.00548557
-6.71902e-06
-0.00440439
-0.00218856
-0.00166413
-0.0127579
0.0131337
-0.00204357
-0.0127172
0.0130966
-0.00242481
-0.0126741
0.0130553
-0.00281103
-0.0126471
0.0130333
-0.00320056
-0.0126255
0.013015
-0.00359423
-0.0126208
0.0130144
-0.00398597
-0.0126254
0.0130172
-0.00435749
-0.0126374
0.013009
-0.00465771
-0.0126135
0.0129137
-0.00478496
-0.0124425
0.0125697
-0.0045982
-0.0118958
0.0117091
-0.00398114
-0.0106639
0.0100468
-0.00294989
-0.00848811
0.00745686
-0.00175395
-0.00550276
0.00430682
-0.000787086
-0.00246209
0.00149522
-0.000223446
-0.000307337
-0.000256303
2.59413e-05
0.000815846
-0.00106523
5.88789e-05
0.00117221
-0.00120514
1.40712e-05
0.000981291
-0.000936484
0.000391841
-0.000377769
-0.00164851
-0.0123818
-0.00202594
-0.0123397
-0.00240585
-0.0122942
-0.00279003
-0.0122629
-0.00317871
-0.0122368
-0.00357379
-0.0122257
-0.0039753
-0.0122239
-0.00437802
-0.0122347
-0.00475484
-0.0122366
-0.0050292
-0.0121681
-0.00505673
-0.0118683
-0.0046582
-0.0110624
-0.00373463
-0.00941168
-0.00244139
-0.006796
-0.00123216
-0.00367132
-0.000461976
-0.00107752
-0.000101667
0.000455537
5.2368e-06
0.0010653
5.41515e-06
0.000981113
0.000397256
-0.00163166
-0.012006
-0.00200847
-0.0119629
-0.00238771
-0.0119149
-0.00277042
-0.0118802
-0.00315734
-0.0118499
-0.00354937
-0.0118337
-0.00394607
-0.0118272
-0.00434393
-0.0118369
-0.00472752
-0.011853
-0.00505065
-0.011845
-0.00521131
-0.0117077
-0.0050422
-0.0112315
-0.00436525
-0.0100886
-0.00315792
-0.00800333
-0.0017667
-0.00506254
-0.000732394
-0.00211183
-0.000212857
-6.40007e-05
-3.82793e-05
0.000890726
-2.17514e-05
0.000964585
0.000375504
-0.00161312
-0.0116308
-0.00198868
-0.0115874
-0.00236646
-0.0115372
-0.00274732
-0.0114993
-0.00313274
-0.0114644
-0.00352466
-0.0114417
-0.00392525
-0.0114266
-0.00433598
-0.0114261
-0.00475094
-0.0114381
-0.00513968
-0.0114563
-0.00542179
-0.0114256
-0.0054476
-0.0112057
-0.00502079
-0.0105154
-0.00400146
-0.00902266
-0.00253131
-0.00653269
-0.00115336
-0.00348978
-0.00034211
-0.000875248
-3.44867e-05
0.000583103
6.90809e-06
0.00092319
0.000382413
-0.00159341
-0.0112563
-0.00196776
-0.011213
-0.00234406
-0.0111609
-0.00272273
-0.0111206
-0.00310515
-0.011082
-0.00349235
-0.0110545
-0.00388588
-0.0110331
-0.00428759
-0.0110244
-0.00469885
-0.0110268
-0.00511125
-0.0110439
-0.00548258
-0.0110542
-0.00569912
-0.0109892
-0.00556332
-0.0106512
-0.00485242
-0.00973355
-0.00350518
-0.00787993
-0.00187376
-0.00512121
-0.000627307
-0.0021217
-6.67569e-05
2.25529e-05
6.20379e-06
0.00085023
0.000388616
-0.00157218
-0.0108828
-0.00194498
-0.0108402
-0.00231948
-0.0107864
-0.00269591
-0.0107442
-0.00307605
-0.0107019
-0.00346127
-0.0106693
-0.00385414
-0.0106402
-0.00425683
-0.0106217
-0.0046712
-0.0106125
-0.00509547
-0.0106196
-0.00551216
-0.0106375
-0.00585537
-0.010646
-0.0059734
-0.0105332
-0.00562329
-0.0100837
-0.00458842
-0.00891479
-0.00292241
-0.00678722
-0.00122275
-0.00382135
-0.000163247
-0.00103695
0.000113873
0.000573109
0.00050249
-0.00154964
-0.0105102
-0.00192078
-0.0104691
-0.00229327
-0.0104139
-0.00266694
-0.0103706
-0.00304346
-0.0103254
-0.00342352
-0.0102893
-0.0038092
-0.0102545
-0.00420284
-0.0102281
-0.00460848
-0.0102068
-0.00503029
-0.0101978
-0.00546787
-0.0102
-0.0058931
-0.0102207
-0.00621353
-0.0102128
-0.00622333
-0.0100739
-0.00564412
-0.00949401
-0.00427789
-0.00815345
-0.00236139
-0.00573786
-0.000731895
-0.00266645
-5.84203e-05
-0.000100366
0.000444069
-0.0015257
-0.0101388
-0.00189503
-0.0100998
-0.00226531
-0.0100436
-0.00263632
-0.00999955
-0.00300981
-0.00995187
-0.00338652
-0.00991255
-0.00376843
-0.00987262
-0.00415714
-0.00983939
-0.00455547
-0.00980848
-0.00496671
-0.00978654
-0.00539698
-0.0097697
-0.00584482
-0.0097729
-0.00627984
-0.00977776
-0.0065732
-0.00978051
-0.00647545
-0.00959176
-0.00563156
-0.00899734
-0.00390709
-0.00746232
-0.00162715
-0.00494638
-9.16284e-05
-0.00163589
0.000352441
-0.00150058
-0.00976861
-0.0018679
-0.00973245
-0.00223551
-0.00967597
-0.0026033
-0.00963176
-0.00297261
-0.00958256
-0.00334404
-0.00954112
-0.00371928
-0.00949738
-0.00409996
-0.00945871
-0.00448868
-0.00941976
-0.00488796
-0.00938726
-0.0053043
-0.00935336
-0.00574241
-0.00933479
-0.00621132
-0.00930884
-0.00666781
-0.00932402
-0.00698622
-0.00927334
-0.00683412
-0.00914944
-0.0058594
-0.00843705
-0.00382415
-0.00698163
-0.00144304
-0.004017
-0.0010906
-0.00147437
-0.00183919
-0.00220384
-0.00256802
-0.0029334
-0.00329992
-0.00366952
-0.00404314
-0.00442268
-0.00480929
-0.00520851
-0.0056209
-0.00606284
-0.00652485
-0.00700843
-0.00733764
-0.00719713
-0.00579251
-0.00317788
-0.00453417
-0.0113782
-0.00493184
-0.0112748
-0.00533759
-0.0111622
-0.00573723
-0.0110291
-0.00614882
-0.0108898
-0.00655247
-0.010735
-0.00696052
-0.0105679
-0.00735364
-0.0103844
-0.00772722
-0.0101839
-0.0080627
-0.0099566
-0.00834425
-0.00970102
-0.00853515
-0.00941277
-0.00860318
-0.00908754
-0.00849765
-0.00871775
-0.00820223
-0.00830206
-0.00761875
-0.00784053
-0.00678093
-0.00734374
-0.0054544
-0.0068121
-0.0035268
-0.00633199
-0.00571537
-2.38112e-10
-0.00350716
-0.0110697
-0.00380065
-0.0109813
-0.0040829
-0.01088
-0.00435273
-0.0107593
-0.00461384
-0.0106287
-0.00486165
-0.0104872
-0.00509668
-0.0103329
-0.00531551
-0.0101655
-0.005516
-0.00998341
-0.00568626
-0.00978634
-0.0058135
-0.00957378
-0.00587955
-0.00934672
-0.0058606
-0.0091065
-0.00572164
-0.00885671
-0.00542364
-0.00860005
-0.00492249
-0.00834168
-0.00417688
-0.00808935
-0.00313876
-0.00785023
-0.00181624
-0.0076545
-0.00753161
-2.58484e-10
-0.00288268
-0.0108022
-0.00313756
-0.0107264
-0.00337498
-0.0106426
-0.00359122
-0.0105431
-0.00378102
-0.0104389
-0.00394226
-0.0103259
-0.00407036
-0.0102048
-0.00416078
-0.0100751
-0.00420706
-0.00993712
-0.00420309
-0.00979031
-0.00414188
-0.00963499
-0.00401694
-0.00947166
-0.00382163
-0.0093018
-0.00355043
-0.00912792
-0.0031958
-0.00895468
-0.00274921
-0.00878827
-0.00220321
-0.00863536
-0.00154958
-0.00850386
-0.00079913
-0.00840495
-0.00833074
-2.84662e-10
-0.0020804
-0.0106007
-0.00226789
-0.0105389
-0.00244011
-0.0104704
-0.00259557
-0.0103876
-0.0027345
-0.0103
-0.00285449
-0.0102059
-0.00295267
-0.0101066
-0.00302518
-0.0100026
-0.00306774
-0.00989456
-0.00307454
-0.00978351
-0.00303897
-0.00967055
-0.00295356
-0.00955707
-0.00281073
-0.00944464
-0.00260355
-0.00933509
-0.00232776
-0.00923048
-0.00198256
-0.00913346
-0.0015704
-0.00904752
-0.00109697
-0.00897729
-0.000574532
-0.00892739
-0.00890527
-2.7947e-10
-0.00167615
-0.0104444
-0.00181648
-0.0103986
-0.00193972
-0.0103471
-0.00204233
-0.010285
-0.00212284
-0.0102195
-0.00217942
-0.0101494
-0.00221036
-0.0100757
-0.00221419
-0.00999878
-0.00218962
-0.00991913
-0.00213585
-0.00983729
-0.00205229
-0.0097541
-0.00193869
-0.00967068
-0.00179481
-0.00958852
-0.00162038
-0.00950952
-0.00141493
-0.00943592
-0.00117844
-0.00936996
-0.000912264
-0.0093137
-0.00062095
-0.0092686
-0.000311982
-0.00923636
-0.00921725
-2.77124e-10
-0.0011664
-0.0103244
-0.00127787
-0.0102871
-0.00137838
-0.0102466
-0.00146601
-0.0101974
-0.00153956
-0.0101459
-0.00159747
-0.0100915
-0.00163807
-0.0100351
-0.00165943
-0.00997742
-0.00165945
-0.00991911
-0.00163586
-0.00986088
-0.0015865
-0.00980347
-0.00150956
-0.00974761
-0.001404
-0.00969408
-0.00126984
-0.00964368
-0.00110844
-0.00959732
-0.00092234
-0.00955606
-0.000714909
-0.00952113
-0.00048952
-0.00949399
-0.00025013
-0.00947575
-0.00946738
-2.54968e-10
-0.000922951
-0.0102392
-0.000996368
-0.0102137
-0.00105847
-0.0101845
-0.00110668
-0.0101491
-0.00114071
-0.0101119
-0.00115981
-0.0100724
-0.00116368
-0.0100312
-0.00115224
-0.00998885
-0.00112567
-0.00994569
-0.00108433
-0.00990222
-0.00102876
-0.00985904
-0.000959493
-0.00981688
-0.000877001
-0.00977657
-0.000781666
-0.00973902
-0.000673869
-0.00970512
-0.000554307
-0.00967562
-0.000424322
-0.00965111
-0.000286396
-0.00963192
-0.00014371
-0.00961843
-0.00961109
-2.44024e-10
-0.000637823
-0.0101712
-0.000701258
-0.0101503
-0.000757883
-0.0101279
-0.000806401
-0.0101006
-0.000845833
-0.0100725
-0.000875253
-0.0100429
-0.000893711
-0.0100128
-0.000900253
-0.00998231
-0.00089395
-0.00995199
-0.000873976
-0.00992219
-0.000839743
-0.00989327
-0.00079103
-0.00986559
-0.000728117
-0.00983948
-0.000651835
-0.0098153
-0.000563528
-0.00979342
-0.00046485
-0.0097743
-0.000357543
-0.00975842
-0.000243166
-0.00974629
-0.000123336
-0.00973826
-0.00973442
-2.16193e-10
-0.00049106
-0.0101261
-0.000528798
-0.0101125
-0.000559813
-0.0100969
-0.00058255
-0.0100779
-0.000597124
-0.0100579
-0.000603322
-0.0100367
-0.000601261
-0.0100148
-0.000591186
-0.00999238
-0.000573468
-0.00996971
-0.000548562
-0.0099471
-0.000516934
-0.0099249
-0.000479004
-0.00990352
-0.000435106
-0.00988338
-0.000385502
-0.00986491
-0.000330463
-0.00984846
-0.000270429
-0.00983433
-0.000206148
-0.0098227
-0.000138774
-0.00981367
-6.96523e-05
-0.00980738
-0.00980408
-2.02557e-10
-0.000345672
-0.0100886
-0.000380901
-0.0100773
-0.000412342
-0.0100654
-0.000439222
-0.010051
-0.000460858
-0.0100363
-0.000476682
-0.0100209
-0.000486135
-0.0100054
-0.000488698
-0.00998982
-0.00048392
-0.00997449
-0.000471465
-0.00995955
-0.000451183
-0.00994518
-0.000423165
-0.00993154
-0.000387782
-0.00991877
-0.000345672
-0.00990702
-0.000297672
-0.00989646
-0.000244699
-0.00988731
-0.000187631
-0.00987977
-0.000127247
-0.00987405
-6.43577e-05
-0.00987027
-0.00986843
-1.73908e-10
-0.00025394
-0.0100651
-0.000273141
-0.0100581
-0.000288523
-0.0100501
-0.000299227
-0.0100403
-0.000305445
-0.01003
-0.000307175
-0.0100192
-0.000304604
-0.0100079
-0.000297986
-0.00999644
-0.000287625
-0.00998485
-0.000273845
-0.00997333
-0.000256946
-0.00996208
-0.000237166
-0.00995132
-0.000214677
-0.00994125
-0.000189601
-0.00993209
-0.000162067
-0.009924
-0.000132295
-0.00991708
-0.000100657
-0.00991141
-6.76898e-05
-0.00990702
-3.39783e-05
-0.00990398
-0.00990241
-1.58716e-10
-0.000186976
-0.0100446
-0.000206429
-0.0100386
-0.000223896
-0.0100326
-0.000238928
-0.0100253
-0.000251089
-0.0100179
-0.000260014
-0.0100103
-0.000265359
-0.0100026
-0.000266813
-0.00999499
-0.000264123
-0.00998754
-0.000257123
-0.00998033
-0.00024577
-0.00997344
-0.000230171
-0.00996692
-0.000210589
-0.00996084
-0.000187423
-0.00995526
-0.000161159
-0.00995026
-0.0001323
-0.00994594
-0.000101312
-0.00994239
-6.86174e-05
-0.00993971
-3.46604e-05
-0.00993794
-0.00993707
-1.31625e-10
-0.000126559
-0.0100324
-0.000136241
-0.0100289
-0.000143784
-0.010025
-0.000148748
-0.0100203
-0.000151298
-0.0100153
-0.000151506
-0.01001
-0.000149537
-0.0100046
-0.000145587
-0.00999894
-0.000139873
-0.00999325
-0.000132601
-0.0099876
-0.000123947
-0.00998209
-0.000114037
-0.00997683
-0.000102947
-0.00997193
-9.07185e-05
-0.00996749
-7.73984e-05
-0.00996358
-6.30815e-05
-0.00996026
-4.79406e-05
-0.00995753
-3.22186e-05
-0.00995543
-1.61717e-05
-0.00995399
-0.00995324
-1.15226e-10
-0.000100861
-0.0100211
-0.000111646
-0.0100182
-0.000121434
-0.0100153
-0.000129958
-0.0100118
-0.000136958
-0.0100083
-0.000142188
-0.0100048
-0.000145432
-0.0100013
-0.000146492
-0.00999788
-0.000145209
-0.00999453
-0.000141487
-0.00999132
-0.000135305
-0.00998827
-0.000126736
-0.0099854
-0.000115946
-0.00998272
-0.00010317
-0.00998026
-8.86864e-05
-0.00997806
-7.2778e-05
-0.00997616
-5.57041e-05
-0.00997461
-3.77046e-05
-0.00997343
-1.9034e-05
-0.00997266
-0.00997228
-9.12276e-11
-5.86823e-05
-0.0100149
-6.3504e-05
-0.0100133
-6.71225e-05
-0.0100116
-6.93431e-05
-0.0100096
-7.02811e-05
-0.0100074
-7.0032e-05
-0.0100051
-6.87203e-05
-0.0100026
-6.64898e-05
-0.0100001
-6.34864e-05
-0.00999754
-5.98411e-05
-0.00999497
-5.56562e-05
-0.00999246
-5.09957e-05
-0.00999006
-4.58872e-05
-0.00998783
-4.03355e-05
-0.00998581
-3.43458e-05
-0.00998405
-2.79488e-05
-0.00998256
-2.12147e-05
-0.00998134
-1.42457e-05
-0.0099804
-7.14761e-06
-0.00997976
-0.00997943
-7.4642e-11
-5.34111e-05
-0.0100087
-5.94137e-05
-0.0100073
-6.49434e-05
-0.0100061
-6.98301e-05
-0.0100047
-7.39351e-05
-0.0100033
-7.70848e-05
-0.0100019
-7.91486e-05
-0.0100006
-7.99928e-05
-0.00999926
-7.95156e-05
-0.00999802
-7.76524e-05
-0.00999683
-7.43897e-05
-0.00999572
-6.97698e-05
-0.00999468
-6.38895e-05
-0.00999371
-5.68869e-05
-0.00999282
-4.89217e-05
-0.00999202
-4.01544e-05
-0.00999133
-3.07335e-05
-0.00999076
-2.07984e-05
-0.00999034
-1.04966e-05
-0.00999006
-0.00998992
-5.47568e-11
-2.23751e-05
-0.0100057
-2.46592e-05
-0.0100051
-2.62511e-05
-0.0100045
-2.71156e-05
-0.0100038
-2.73131e-05
-0.0100031
-2.69547e-05
-0.0100023
-2.61215e-05
-0.0100014
-2.49238e-05
-0.0100005
-2.34588e-05
-0.00999948
-2.1811e-05
-0.00999848
-2.00402e-05
-0.00999749
-1.81779e-05
-0.00999654
-1.6229e-05
-0.00999566
-1.41815e-05
-0.00999486
-1.20214e-05
-0.00999418
-9.74681e-06
-0.0099936
-7.37544e-06
-0.00999313
-4.94003e-06
-0.00999277
-2.47436e-06
-0.00999252
-0.0099924
-3.96129e-11
-2.61862e-05
-0.0100023
-2.93852e-05
-0.0100019
-3.24087e-05
-0.0100015
-3.51206e-05
-0.0100011
-3.74848e-05
-0.0100007
-3.93585e-05
-0.0100004
-4.06803e-05
-0.0100001
-4.13506e-05
-0.00999979
-4.13074e-05
-0.00999952
-4.05048e-05
-0.00999928
-3.89312e-05
-0.00999906
-3.66076e-05
-0.00999886
-3.35882e-05
-0.00999867
-2.99505e-05
-0.0099985
-2.57838e-05
-0.00999835
-2.11775e-05
-0.00999821
-1.62149e-05
-0.0099981
-1.09746e-05
-0.00999801
-5.53866e-06
-0.00999796
-0.00999794
-2.47086e-11
-2.2851e-06
-0.0100013
-2.98598e-06
-0.0100012
-3.29871e-06
-0.0100012
-3.32428e-06
-0.0100011
-3.03403e-06
-0.010001
-2.58466e-06
-0.0100008
-1.99502e-06
-0.0100007
-1.3727e-06
-0.0100004
-7.7135e-07
-0.0100001
-2.52073e-07
-0.0099998
1.53646e-07
-0.00999947
4.3163e-07
-0.00999914
5.90997e-07
-0.00999883
6.52484e-07
-0.00999856
6.41943e-07
-0.00999833
5.80146e-07
-0.00999815
4.79197e-07
-0.009998
3.44323e-07
-0.00999788
1.8082e-07
-0.0099978
-0.00999775
-1.27043e-11
-9.80509e-06
-1.09617e-05
-1.2143e-05
-1.3218e-05
-1.42341e-05
-1.50818e-05
-1.57458e-05
-1.61574e-05
-1.6282e-05
-1.60846e-05
-1.55535e-05
-1.46931e-05
-1.35271e-05
-1.20908e-05
-1.04257e-05
-8.57262e-06
-6.5687e-06
-4.44799e-06
-2.24541e-06
-4.55849e-12
0.00501887
-0.00682556
0.00504776
-0.00680963
0.00507691
-0.00678306
0.0051032
-0.0067449
0.00512353
-0.00669365
0.00513379
-0.00662598
0.00512825
-0.00653622
0.0050994
-0.00641625
0.00503812
-0.00625651
0.00493444
-0.00604761
0.00477838
-0.00578198
0.00456078
-0.00545512
0.00427377
-0.00506611
0.00391089
-0.00461738
0.00346674
-0.00411414
0.00293679
-0.00356489
0.00231792
-0.00298669
0.00161125
-0.00241959
0.000828636
-0.00194257
-0.00166305
2.87073e-08
0.00501173
-0.00687216
0.00505861
-0.00685651
0.00510532
-0.00682977
0.00515016
-0.00678973
0.00518982
-0.00673332
0.00521916
-0.00665532
0.00523027
-0.00654734
0.00521262
-0.0063986
0.005154
-0.00619789
0.00504205
-0.00593567
0.00486592
-0.00560585
0.00461735
-0.00520655
0.00429123
-0.00473999
0.00388545
-0.0042116
0.00340046
-0.00362915
0.00283897
-0.00300341
0.00220644
-0.00235416
0.00151201
-0.00172516
0.000769589
-0.00120015
-0.000893494
2.8355e-08
0.00498213
-0.00692858
0.0050336
-0.00690799
0.00507923
-0.0068754
0.00511609
-0.00682659
0.00513994
-0.00675717
0.00514409
-0.00665948
0.00511921
-0.00652246
0.00505426
-0.00633365
0.00493825
-0.00608187
0.00476203
-0.00575945
0.00451962
-0.00536344
0.00420878
-0.00489571
0.00383086
-0.00436207
0.00339031
-0.00377106
0.00289429
-0.00313312
0.00235263
-0.00246175
0.00177827
-0.0017798
0.00118674
-0.00113363
0.000591929
-0.000605341
-0.000301582
1.80193e-08
0.00494576
-0.00700196
0.00501841
-0.00698064
0.00509023
-0.00694722
0.00515876
-0.00689511
0.00521892
-0.00681733
0.00526214
-0.00670271
0.00527677
-0.00653709