/*--------------------------------*- C++ -*----------------------------------*\
  =========                 |
  \\      /  F ield         | OpenFOAM: The Open Source CFD Toolbox
   \\    /   O peration     | Website:  https://openfoam.org
    \\  /    A nd           | Version:  7
     \\/     M anipulation  |
\*---------------------------------------------------------------------------*/
FoamFile
{
    version     2.0;
    format      ascii;
    class       volVectorField;
    location    "30";
    object      U;
}
// * * * * * * * * * * * * * * * * * * * * * * * * * * * * * * * * * * * * * //

dimensions      [0 1 -1 0 0 0 0];

internalField   nonuniform List<vector> 
8000
(
(0.766875 -0.106327 1.41378e-18)
(0.702035 -0.107472 -2.67072e-18)
(0.686993 -0.105916 2.60709e-18)
(0.637471 -0.109824 -7.25285e-18)
(0.610057 -0.109964 5.96597e-18)
(0.566905 -0.11454 -4.63555e-18)
(0.532178 -0.116711 -1.40441e-17)
(0.490334 -0.121607 3.421e-19)
(0.450677 -0.12543 8.32438e-19)
(0.407388 -0.13072 6.73827e-18)
(0.363644 -0.135712 1.62372e-17)
(0.317451 -0.141419 1.38104e-17)
(0.269742 -0.147095 3.46501e-17)
(0.219898 -0.153003 -7.96808e-18)
(0.168173 -0.15878 -1.07078e-17)
(0.114448 -0.164341 -6.72351e-18)
(0.0588289 -0.169361 -1.43361e-17)
(0.00153285 -0.17366 5.60298e-18)
(-0.0571017 -0.176685 -2.70025e-18)
(-0.116714 -0.178088 -6.31153e-19)
(-0.176636 -0.177416 1.60002e-18)
(-0.236022 -0.174236 2.84098e-18)
(-0.293868 -0.168248 -3.70286e-18)
(-0.349058 -0.159339 -2.24446e-18)
(-0.400487 -0.147643 1.96814e-18)
(-0.447186 -0.133522 1.15168e-17)
(-0.488413 -0.117503 1.78566e-18)
(-0.523689 -0.10018 2.42054e-17)
(-0.552785 -0.0821328 1.27221e-17)
(-0.57567 -0.0638766 4.33577e-18)
(-0.592466 -0.045842 1.86883e-17)
(-0.603402 -0.0283745 -3.09864e-19)
(-0.60879 -0.0117541 6.76401e-17)
(-0.608991 0.00377458 6.14302e-18)
(-0.604396 0.0180873 -4.45873e-17)
(-0.595463 0.0310176 -2.28381e-18)
(-0.582696 0.0424488 -5.14616e-18)
(-0.566586 0.0523099 5.24707e-17)
(-0.547658 0.0605604 1.96329e-17)
(-0.526442 0.0671903 6.01181e-17)
(-0.503465 0.0722213 2.15041e-17)
(-0.479238 0.075705 6.31301e-18)
(-0.454249 0.0777204 4.73051e-17)
(-0.428952 0.0783699 -1.71295e-18)
(-0.40376 0.0777752 -4.0715e-19)
(-0.379042 0.0760716 3.05217e-18)
(-0.355117 0.073403 -2.57722e-17)
(-0.332257 0.0699163 -4.9668e-18)
(-0.310683 0.0657581 -3.58636e-19)
(-0.290571 0.0610719 1.88117e-18)
(-0.27205 0.0559959 2.29982e-18)
(-0.255209 0.050662 -2.1196e-18)
(-0.240097 0.0451939 -3.4866e-18)
(-0.226727 0.0397059 -5.63958e-18)
(-0.215078 0.0343029 -4.436e-18)
(-0.205099 0.0290796 -8.07883e-19)
(-0.19671 0.0241197 -4.45259e-18)
(-0.189809 0.0194948 8.92244e-20)
(-0.184269 0.0152636 -2.54166e-18)
(-0.179955 0.0114685 1.21776e-18)
(-0.17672 0.00816173 1.30507e-17)
(-0.17439 0.00535835 2.75293e-18)
(-0.1728 0.00305832 1.44586e-17)
(-0.171792 0.00125008 4.79983e-19)
(-0.171189 -7.89407e-05 1.00882e-18)
(-0.170861 -0.00104091 8.08816e-18)
(-0.170693 -0.00160956 3.8079e-18)
(-0.170548 -0.00183395 1.83634e-17)
(-0.170324 -0.00176993 3.94495e-18)
(-0.169937 -0.00147044 1.1215e-18)
(-0.16932 -0.000990343 1.81485e-17)
(-0.168433 -0.000379118 9.16e-18)
(-0.167229 0.000323422 2.39445e-17)
(-0.165687 0.00104812 3.46171e-18)
(-0.163818 0.00181178 4.85642e-18)
(-0.161617 0.00259064 -6.34448e-18)
(-0.159086 0.00336652 -5.83795e-18)
(-0.156235 0.00413289 1.10366e-17)
(-0.153077 0.00489153 1.77436e-17)
(-0.149622 0.00565035 1.80725e-18)
(-0.145879 0.00642343 1.62429e-17)
(-0.141856 0.00723036 5.54351e-18)
(-0.137552 0.00809586 2.00263e-17)
(-0.132966 0.00904971 -9.75171e-18)
(-0.128089 0.0101268 1.49246e-17)
(-0.12291 0.0113684 1.54472e-17)
(-0.117416 0.0128226 2.0291e-17)
(-0.111593 0.0145496 -6.65713e-18)
(-0.105428 0.0166187 1.38386e-17)
(-0.0989292 0.0191248 -1.27701e-17)
(-0.0920986 0.0221756 -2.63624e-18)
(-0.0850386 0.025941 -3.30621e-18)
(-0.0777467 0.0305782 -8.46113e-19)
(-0.0707677 0.0363998 -1.19624e-20)
(-0.0635763 0.0436169 -2.45778e-19)
(-0.0591321 0.0522102 5.90852e-18)
(-0.0526815 0.0634226 -1.23247e-19)
(-0.0560089 0.0711262 -2.96922e-17)
(-0.0470359 0.0839124 -7.94906e-18)
(-0.0370043 0.0508103 -4.31642e-17)
(0.766208 -0.0956117 2.44366e-18)
(0.700465 -0.0965362 -7.9349e-19)
(0.685487 -0.095176 1.16263e-18)
(0.635178 -0.0986602 -1.57479e-18)
(0.607684 -0.0987632 7.47582e-18)
(0.563909 -0.102888 5.63312e-18)
(0.528943 -0.104807 5.17795e-19)
(0.486567 -0.109222 1.62512e-18)
(0.446551 -0.112632 2.2425e-18)
(0.402756 -0.117394 5.39613e-18)
(0.358567 -0.121861 1.16391e-17)
(0.311858 -0.126985 2.28012e-17)
(0.263647 -0.132067 3.42574e-17)
(0.213271 -0.137358 -7.02273e-18)
(0.161016 -0.142523 -1.97779e-17)
(0.106761 -0.147489 -8.59411e-18)
(0.0506127 -0.151961 -8.14217e-18)
(-0.00718392 -0.155781 3.03884e-18)
(-0.0662744 -0.158442 -5.98384e-18)
(-0.126318 -0.159674 -6.23116e-19)
(-0.186639 -0.159065 5.47742e-19)
(-0.246416 -0.156239 9.17133e-18)
(-0.304681 -0.15094 9.8295e-18)
(-0.360356 -0.143065 -1.16297e-17)
(-0.412374 -0.132725 -1.67048e-18)
(-0.45978 -0.120224 1.52036e-17)
(-0.501819 -0.106013 -1.12647e-17)
(-0.537982 -0.090607 4.44761e-17)
(-0.567994 -0.0745171 2.27263e-18)
(-0.591781 -0.0582033 -7.56276e-18)
(-0.609424 -0.0420554 2.18099e-17)
(-0.621129 -0.0263914 -1.1869e-17)
(-0.62718 -0.0114684 2.83349e-17)
(-0.62794 0.00250751 -4.072e-17)
(-0.623805 0.0154231 -1.03026e-17)
(-0.615216 0.0270741 -3.80471e-20)
(-0.602681 0.0373966 -9.10925e-18)
(-0.586703 0.0463225 1.61684e-17)
(-0.567812 0.0538125 2.31497e-17)
(-0.546542 0.0598561 2.86323e-17)
(-0.523427 0.0644708 1.49406e-17)
(-0.498983 0.0677006 4.96855e-18)
(-0.473707 0.0696137 2.29787e-17)
(-0.44806 0.0702993 -2.18344e-17)
(-0.422465 0.0698638 -5.22086e-18)
(-0.397301 0.0684262 5.64711e-19)
(-0.372897 0.0661131 -1.07723e-17)
(-0.349535 0.0630546 -4.21052e-18)
(-0.327448 0.0593812 -7.34132e-19)
(-0.306819 0.0552212 2.64148e-18)
(-0.28779 0.0506988 1.73566e-18)
(-0.270456 0.0459325 6.00186e-18)
(-0.254874 0.041034 -5.07982e-18)
(-0.241062 0.0361067 -7.62779e-20)
(-0.229005 0.0312457 -7.68274e-18)
(-0.218656 0.0265367 -1.88431e-18)
(-0.209939 0.0220555 -1.18477e-17)
(-0.202753 0.0178669 -1.06277e-18)
(-0.196977 0.0140236 -6.92032e-18)
(-0.192469 0.0105628 6.84187e-19)
(-0.189086 0.00754728 3.48877e-18)
(-0.186664 0.00498896 1.04075e-18)
(-0.185032 0.00287713 6.36663e-18)
(-0.184034 0.0012014 -4.72987e-18)
(-0.183508 -5.55455e-05 -6.4855e-19)
(-0.183307 -0.000972468 1.51811e-17)
(-0.183299 -0.00153621 3.34809e-18)
(-0.183364 -0.00179098 8.22717e-18)
(-0.183397 -0.00178467 2.58176e-18)
(-0.183311 -0.00156411 7.34256e-19)
(-0.183036 -0.0011766 8.09192e-18)
(-0.182527 -0.000667241 1.68496e-17)
(-0.181744 -5.23929e-05 1.99984e-17)
(-0.180651 0.000569088 3.35673e-18)
(-0.179244 0.00123149 1.02289e-17)
(-0.177529 0.00190959 -1.47675e-17)
(-0.175506 0.0025866 -1.23272e-17)
(-0.17318 0.00325722 2.5406e-17)
(-0.17056 0.00392288 3.22013e-18)
(-0.167653 0.00459054 -3.26571e-19)
(-0.164468 0.00527275 -6.62873e-19)
(-0.161006 0.00598718 8.1714e-18)
(-0.157266 0.00675635 6.30664e-18)
(-0.153239 0.0076077 -2.65506e-17)
(-0.148913 0.00857371 -4.39616e-18)
(-0.144268 0.00969325 -6.78372e-18)
(-0.13928 0.0110122 5.10585e-18)
(-0.13392 0.0125888 -1.97203e-17)
(-0.128154 0.0144916 -5.41751e-18)
(-0.121961 0.0168153 -3.20985e-17)
(-0.115298 0.0196714 -4.94405e-18)
(-0.108218 0.0232335 -6.42683e-18)
(-0.100609 0.0276867 -2.13788e-18)
(-0.0929391 0.0333244 6.08738e-20)
(-0.0844418 0.0405243 -1.92356e-19)
(-0.0777843 0.0490539 1.34533e-17)
(-0.0681437 0.0607802 6.24368e-19)
(-0.0652328 0.0684388 -2.37771e-17)
(-0.0500904 0.0804104 -7.02461e-18)
(-0.0252868 0.0465856 -1.90988e-17)
(0.765263 -0.08479 1.78284e-18)
(0.698707 -0.0854173 1.64748e-18)
(0.683779 -0.0843761 8.71306e-19)
(0.63278 -0.0873327 1.45505e-18)
(0.605204 -0.0874892 1.23392e-17)
(0.560882 -0.0910927 -2.54511e-18)
(0.5257 -0.0928087 -1.03904e-17)
(0.482854 -0.0967025 3.17105e-18)
(0.44252 -0.0997208 3.87194e-18)
(0.398281 -0.103929 3.66225e-18)
(0.3537 -0.107875 7.0113e-18)
(0.306542 -0.1124 3.08939e-18)
(0.257894 -0.116883 2.32588e-17)
(0.207058 -0.121549 -3.8803e-18)
(0.154349 -0.126098 -1.12677e-17)
(0.0996416 -0.130469 -1.70964e-17)
(0.043047 -0.134402 -3.17607e-18)
(-0.0151665 -0.137745 2.3927e-18)
(-0.0746342 -0.140071 -2.30487e-18)
(-0.13503 -0.14115 2.46933e-19)
(-0.195671 -0.140619 2.69762e-19)
(-0.255758 -0.13816 1.11394e-17)
(-0.314353 -0.13355 4.73489e-18)
(-0.370416 -0.126699 7.90826e-18)
(-0.422912 -0.117695 -2.55078e-18)
(-0.470901 -0.106789 3.27386e-17)
(-0.513626 -0.0943613 -3.62179e-17)
(-0.550551 -0.0808516 2.21484e-17)
(-0.581365 -0.0667024 -3.30858e-17)
(-0.605956 -0.0523181 -2.31472e-17)
(-0.624372 -0.0380456 4.23723e-17)
(-0.636791 -0.0241711 -3.63502e-17)
(-0.643476 -0.0109248 2.7558e-18)
(-0.644782 0.00149394 -2.61368e-17)
(-0.641103 0.0129898 3.46331e-17)
(-0.632875 0.0233844 4.27797e-18)
(-0.620602 0.0326112 -1.63598e-17)
(-0.604793 0.0406069 1.61621e-18)
(-0.58598 0.0473346 4.17545e-17)
(-0.564702 0.0527832 1.68291e-17)
(-0.541495 0.0569661 7.99357e-18)
(-0.516883 0.0599202 4.79513e-18)
(-0.491366 0.0617039 1.23662e-17)
(-0.465414 0.0623946 -9.05302e-20)
(-0.439457 0.0620847 -4.95341e-18)
(-0.413884 0.0608778 -6.59243e-19)
(-0.389035 0.0588852 -6.3483e-18)
(-0.365202 0.0562216 -2.34916e-18)
(-0.342628 0.0530024 -5.36939e-19)
(-0.321508 0.0493416 4.70905e-18)
(-0.301991 0.0453495 1.9719e-18)
(-0.284182 0.0411318 1.6935e-17)
(-0.268146 0.0367882 -1.15703e-17)
(-0.253906 0.0324111 5.24834e-18)
(-0.241454 0.0280856 -1.61518e-17)
(-0.230746 0.0238887 -2.20866e-18)
(-0.221711 0.0198883 -2.12776e-18)
(-0.214249 0.016143 3.19245e-19)
(-0.208242 0.0127013 8.33339e-18)
(-0.203547 0.00959956 1.90461e-18)
(-0.200021 0.00687455 -3.30883e-18)
(-0.197507 0.00454994 -5.68091e-19)
(-0.195834 0.00262052 2.84206e-18)
(-0.194842 0.00107619 -1.54608e-17)
(-0.194362 -9.48957e-05 -1.45194e-18)
(-0.194249 -0.000939703 6.44285e-18)
(-0.194379 -0.00147798 3.24006e-18)
(-0.194622 -0.00174196 4.06139e-18)
(-0.194871 -0.00177187 1.65645e-18)
(-0.195038 -0.00160889 7.01359e-19)
(-0.195052 -0.00129498 4.2414e-18)
(-0.194861 -0.000871517 4.08942e-18)
(-0.194428 -0.000355683 -4.63087e-18)
(-0.193709 0.000205263 1.33875e-18)
(-0.192696 0.000770644 2.47784e-17)
(-0.191396 0.00135504 -3.12107e-18)
(-0.189805 0.00194135 8.61612e-18)
(-0.187925 0.00252385 2.56864e-17)
(-0.185764 0.00310342 -1.29672e-17)
(-0.183327 0.003686 -2.56075e-18)
(-0.180617 0.00428266 -1.81711e-17)
(-0.177636 0.00490915 1.7815e-17)
(-0.174377 0.00558576 -2.23137e-18)
(-0.170828 0.00633736 -2.61829e-17)
(-0.166971 0.00719363 -2.06615e-17)
(-0.162778 0.00819043 -3.3197e-17)
(-0.158215 0.00937037 -3.63199e-18)
(-0.153239 0.0107881 -9.45255e-18)
(-0.147794 0.0125088 -2.3652e-17)
(-0.141834 0.0146231 -3.38207e-17)
(-0.135269 0.0172405 -4.25397e-18)
(-0.128107 0.0205281 -1.36616e-17)
(-0.120125 0.024685 -3.11033e-18)
(-0.111707 0.0299825 5.28918e-20)
(-0.101863 0.0369097 -6.06111e-19)
(-0.0929455 0.0450836 2.75168e-17)
(-0.0801453 0.0566702 2.47739e-18)
(-0.0714151 0.0640794 -3.555e-17)
(-0.0512652 0.0744219 -7.39446e-18)
(-0.0196699 0.0431428 -1.51232e-17)
(0.764095 -0.0738111 1.98403e-18)
(0.69683 -0.0742164 6.44825e-18)
(0.681927 -0.0734201 7.85407e-19)
(0.630338 -0.0758979 9.62101e-19)
(0.602678 -0.0760771 4.61042e-18)
(0.557883 -0.0791752 -8.10222e-18)
(0.522506 -0.080677 -3.19463e-18)
(0.479254 -0.0840521 4.21368e-18)
(0.438641 -0.0866751 7.63397e-18)
(0.394017 -0.0903302 2.54783e-18)
(0.349097 -0.0937572 5.36745e-18)
(0.301552 -0.0976869 1.15169e-17)
(0.25253 -0.101578 2.68595e-17)
(0.201303 -0.105628 1.85775e-18)
(0.148208 -0.109575 -3.0015e-18)
(0.093122 -0.113365 -9.59346e-18)
(0.0361588 -0.116786 3.34566e-18)
(-0.0223958 -0.119651 3.7925e-18)
(-0.0821702 -0.121675 1.98656e-18)
(-0.142846 -0.122617 2.17497e-18)
(-0.203737 -0.122172 5.64777e-19)
(-0.264063 -0.120074 9.22682e-18)
(-0.322911 -0.116134 -3.00045e-19)
(-0.379275 -0.110273 -1.30439e-18)
(-0.43215 -0.102558 -2.23594e-18)
(-0.480613 -0.0931962 1.03299e-17)
(-0.523906 -0.0825035 -2.92198e-17)
(-0.561475 -0.070851 1.82479e-17)
(-0.592981 -0.0586164 -2.28582e-17)
(-0.618279 -0.0461492 -3.51723e-17)
(-0.637386 -0.0337523 -7.33113e-18)
(-0.650455 -0.0216786 -2.39993e-18)
(-0.657732 -0.010131 -9.74438e-18)
(-0.659554 0.000714741 -2.01557e-17)
(-0.656315 0.0107584 1.20125e-17)
(-0.648446 0.0198603 -9.07459e-18)
(-0.636445 0.0279532 -3.44533e-17)
(-0.620823 0.0349804 5.62693e-18)
(-0.602113 0.0409081 1.48838e-18)
(-0.580855 0.0457251 4.30443e-18)
(-0.557589 0.0494413 1.19721e-18)
(-0.532843 0.0520874 5.54854e-18)
(-0.507123 0.0537123 9.81743e-18)
(-0.480904 0.0543819 1.15141e-17)
(-0.454626 0.0541752 -8.7504e-18)
(-0.428684 0.0531809 -1.24611e-18)
(-0.403428 0.0514948 -7.63111e-18)
(-0.379162 0.0492161 -3.76338e-19)
(-0.356137 0.0464451 3.63702e-20)
(-0.334558 0.043281 9.45397e-18)
(-0.314585 0.0398201 3.55893e-18)
(-0.296331 0.0361547 4.62228e-18)
(-0.279868 0.0323723 1.10696e-18)
(-0.265225 0.0285539 1.58669e-17)
(-0.2524 0.0247742 -9.93509e-18)
(-0.241353 0.0211009 2.14487e-19)
(-0.232016 0.0175939 5.58853e-18)
(-0.224292 0.014305 1.96732e-18)
(-0.218065 0.0112772 4.29175e-18)
(-0.213193 0.00854555 2.2634e-18)
(-0.209531 0.00613068 -1.3533e-17)
(-0.206924 0.0040672 -1.90365e-18)
(-0.205201 0.00235219 1.02607e-18)
(-0.2042 0.000976392 -1.17327e-17)
(-0.203764 -7.27142e-05 -2.94904e-19)
(-0.203735 -0.000849273 3.66059e-18)
(-0.203974 -0.00135296 4.18463e-18)
(-0.204364 -0.00161466 2.7743e-18)
(-0.204794 -0.00166988 1.35103e-18)
(-0.205173 -0.00155424 4.68646e-19)
(-0.205426 -0.00130371 2.32435e-18)
(-0.205501 -0.000953465 -5.42433e-18)
(-0.205356 -0.000524035 -7.05532e-19)
(-0.204958 -4.16586e-05 1.27796e-18)
(-0.204282 0.000433782 2.5381e-17)
(-0.203325 0.000927915 -1.39396e-18)
(-0.202095 0.00142654 3.33456e-18)
(-0.200591 0.00192327 9.303e-18)
(-0.198815 0.00241838 -7.15142e-18)
(-0.196772 0.002917 -3.49743e-18)
(-0.194464 0.00342872 -1.1316e-17)
(-0.191888 0.00396731 6.15162e-18)
(-0.189035 0.0045506 -1.59084e-17)
(-0.18589 0.00520066 -7.29489e-18)
(-0.182428 0.00594398 -9.16475e-18)
(-0.178615 0.00681279 -4.27877e-17)
(-0.174407 0.00784573 -8.50698e-18)
(-0.169749 0.00909259 -5.35042e-18)
(-0.164565 0.0106137 -1.82145e-17)
(-0.158787 0.0124929 -1.81927e-17)
(-0.152279 0.0148344 -1.93904e-18)
(-0.14501 0.0177926 -3.04443e-17)
(-0.136653 0.0215709 -3.99882e-18)
(-0.127507 0.0264012 -3.4433e-19)
(-0.116391 0.0328391 -1.19705e-18)
(-0.105334 0.040398 2.34259e-17)
(-0.0896257 0.0513477 3.15544e-18)
(-0.0757673 0.0583256 -3.39386e-17)
(-0.0515115 0.0669876 -6.62573e-18)
(-0.0168468 0.0396281 -2.43338e-17)
(0.762782 -0.0626925 9.34842e-19)
(0.694913 -0.0629472 8.34452e-18)
(0.680013 -0.0623343 3.04984e-18)
(0.62793 -0.0643767 -1.23685e-18)
(0.600187 -0.0645538 1.6301e-18)
(0.554991 -0.06716 -1.85503e-17)
(0.519443 -0.0684382 5.13758e-19)
(0.475844 -0.0712958 4.609e-18)
(0.434991 -0.0735192 1.70805e-17)
(0.390039 -0.0766194 2.97724e-18)
(0.344832 -0.0795249 4.03048e-18)
(0.29696 -0.0828593 2.50763e-17)
(0.247624 -0.0861598 1.28388e-17)
(0.19607 -0.0895943 1.30722e-17)
(0.142657 -0.0929399 8.62198e-18)
(0.0872584 -0.0961514 -5.70722e-18)
(0.0300043 -0.0990619 1.50885e-17)
(-0.0288226 -0.101453 8.11518e-18)
(-0.0888457 -0.10318 8.86052e-18)
(-0.149736 -0.103984 5.5273e-18)
(-0.210816 -0.103621 1.09859e-18)
(-0.27132 -0.101873 1.81789e-17)
(-0.330358 -0.0985814 -1.11101e-17)
(-0.386953 -0.0936788 -1.50158e-17)
(-0.440124 -0.0872179 -1.08488e-18)
(-0.488967 -0.0793648 -1.67973e-17)
(-0.532725 -0.0703772 -4.90749e-17)
(-0.570832 -0.0605615 3.60043e-17)
(-0.602925 -0.0502326 -4.48918e-17)
(-0.628833 -0.0396853 -6.9042e-17)
(-0.648546 -0.0291769 -5.36756e-17)
(-0.662193 -0.0189248 3.43603e-17)
(-0.670004 -0.00910265 -3.46251e-17)
(-0.672302 0.000145675 -1.92472e-17)
(-0.669472 0.00870108 2.85867e-18)
(-0.661943 0.0164755 -4.02588e-17)
(-0.650205 0.0234 -6.84448e-17)
(-0.63477 0.0294244 2.82412e-17)
(-0.616169 0.0345184 -3.57464e-17)
(-0.594946 0.0386709 -4.23634e-18)
(-0.571641 0.041889 -3.83456e-18)
(-0.546786 0.0441971 1.25093e-17)
(-0.520891 0.0456356 1.30292e-17)
(-0.494439 0.0462594 2.21336e-17)
(-0.467874 0.046134 -2.25376e-17)
(-0.441601 0.0453339 -8.44956e-19)
(-0.41598 0.0439398 -1.23765e-17)
(-0.391322 0.0420355 3.62019e-18)
(-0.367888 0.0397061 1.59075e-18)
(-0.345894 0.0370358 2.10501e-17)
(-0.325506 0.0341067 5.60946e-18)
(-0.306845 0.0309977 -4.16514e-18)
(-0.28999 0.0277834 1.33025e-17)
(-0.274979 0.0245331 3.63939e-17)
(-0.261812 0.0213109 -1.462e-17)
(-0.250453 0.0181746 4.44037e-18)
(-0.240839 0.0151758 1.73824e-17)
(-0.232874 0.0123588 3.87447e-18)
(-0.226444 0.00976065 2.78004e-18)
(-0.221409 0.00741225 3.48094e-18)
(-0.217621 0.00532947 -3.43153e-17)
(-0.214925 0.00354534 -2.23588e-18)
(-0.213156 0.00205785 2.51084e-19)
(-0.212149 0.000857282 -1.72168e-17)
(-0.21174 -6.57735e-05 2.63117e-18)
(-0.211774 -0.000748152 3.90597e-18)
(-0.212109 -0.00120067 7.81073e-18)
(-0.212623 -0.00144665 2.56135e-18)
(-0.213205 -0.00151513 1.31779e-18)
(-0.213762 -0.00143616 1.16696e-18)
(-0.214216 -0.00124029 1.85547e-18)
(-0.214513 -0.000957839 1.26223e-17)
(-0.214608 -0.000608135 3.89673e-18)
(-0.214469 -0.000211661 3.1093e-18)
(-0.21407 0.000197401 1.16375e-17)
(-0.213401 0.000610366 -5.84403e-18)
(-0.21247 0.0010246 2.73698e-19)
(-0.211275 0.00143817 1.56212e-18)
(-0.209818 0.00185131 -9.93547e-18)
(-0.208102 0.00226817 -5.97128e-18)
(-0.206127 0.0026967 -1.18738e-17)
(-0.203887 0.00314856 1.01256e-18)
(-0.201371 0.00363896 -5.61921e-18)
(-0.198561 0.00418687 7.4661e-18)
(-0.195427 0.0048152 -4.19918e-18)
(-0.19193 0.005552 -4.46966e-17)
(-0.188016 0.00643106 -1.03178e-17)
(-0.183621 0.00749617 -3.80195e-18)
(-0.17865 0.00880098 -2.46621e-17)
(-0.173015 0.0104201 -1.36712e-17)
(-0.166544 0.0124487 4.55041e-18)
(-0.159166 0.0150234 -2.95622e-17)
(-0.150468 0.0183423 -2.77103e-18)
(-0.140668 0.0225892 1.12889e-18)
(-0.128423 0.0283426 3.51491e-17)
(-0.115453 0.0350593 3.55705e-17)
(-0.0971929 0.044969 4.66476e-18)
(-0.0789771 0.0513506 -2.14052e-17)
(-0.0512956 0.0585442 -5.37827e-18)
(-0.0152804 0.0356443 -1.50576e-17)
(0.76142 -0.0514587 1.41406e-18)
(0.693054 -0.0516089 6.61638e-18)
(0.67814 -0.0511457 -4.60778e-18)
(0.625655 -0.0527784 -4.32064e-18)
(0.597832 -0.0529409 -1.66357e-17)
(0.552306 -0.0550612 -1.76191e-17)
(0.51661 -0.0561123 -4.72495e-19)
(0.472725 -0.0584509 2.18861e-18)
(0.431669 -0.0602728 4.39804e-18)
(0.386447 -0.0628148 6.1465e-18)
(0.341002 -0.065197 -1.7266e-18)
(0.292862 -0.0679334 1.83776e-17)
(0.243269 -0.0706417 2.30282e-18)
(0.191451 -0.0734596 -8.72529e-19)
(0.137783 -0.0762038 -4.19245e-18)
(0.0821338 -0.0788369 -7.88712e-18)
(0.0246551 -0.0812289 1.37331e-17)
(-0.0343825 -0.0831731 -4.86886e-18)
(-0.0945989 -0.084597 8.09428e-18)
(-0.155649 -0.0852636 5.19071e-18)
(-0.216868 -0.0849811 1.59609e-18)
(-0.277502 -0.0835748 2.05184e-17)
(-0.33668 -0.0809159 -1.47493e-17)
(-0.393448 -0.0769491 -4.93153e-18)
(-0.44685 -0.0717133 1.57974e-18)
(-0.495994 -0.0653387 -1.4276e-17)
(-0.540128 -0.0580292 -2.35368e-17)
(-0.578677 -0.0500298 1.32172e-17)
(-0.611259 -0.041595 -5.0137e-17)
(-0.637682 -0.0329649 -5.59498e-17)
(-0.657912 -0.0243508 -5.24604e-18)
(-0.67206 -0.0159332 1.26739e-17)
(-0.680336 -0.00785569 -1.32907e-18)
(-0.683055 -0.00024025 -1.48103e-17)
(-0.680591 0.00681301 -3.51365e-18)
(-0.673365 0.0132334 -1.44549e-17)
(-0.661867 0.0189602 -3.03325e-17)
(-0.646603 0.0239516 -2.01219e-18)
(-0.628106 0.0281813 -1.53658e-17)
(-0.606918 0.0316389 -3.09656e-18)
(-0.583582 0.0343292 -7.24023e-18)
(-0.558634 0.0362712 3.15469e-17)
(-0.532587 0.0374971 2.29592e-17)
(-0.505929 0.0380509 4.02033e-17)
(-0.479112 0.0379855 -8.07909e-19)
(-0.452548 0.0373615 4.9955e-18)
(-0.426604 0.0362446 -2.45752e-17)
(-0.401599 0.0347036 1.26062e-17)
(-0.377805 0.0328082 5.56796e-18)
(-0.355443 0.0306277 6.31057e-18)
(-0.334688 0.0282297 6.12728e-18)
(-0.315668 0.0256793 -1.53598e-17)
(-0.298468 0.0230379 6.7404e-18)
(-0.283131 0.0203631 1.93554e-17)
(-0.269661 0.0177077 -1.00928e-17)
(-0.258027 0.0151197 1.54696e-17)
(-0.248167 0.0126416 1.41048e-17)
(-0.23999 0.0103104 4.74045e-18)
(-0.23338 0.00815679 2.74463e-18)
(-0.228201 0.00620661 6.19456e-18)
(-0.224301 0.00447179 -3.07694e-17)
(-0.221525 0.00298183 2.92029e-18)
(-0.219712 0.00173753 -4.45086e-19)
(-0.218693 0.000730261 -9.44752e-18)
(-0.218312 -4.86019e-05 1.1368e-17)
(-0.218404 -0.000631729 7.00951e-18)
(-0.218817 -0.00102241 1.68166e-17)
(-0.219434 -0.00124175 3.43951e-18)
(-0.220142 -0.00131376 1.30784e-18)
(-0.220846 -0.00126284 3.21108e-18)
(-0.221466 -0.00111388 1.67908e-18)
(-0.221943 -0.000891394 8.21661e-18)
(-0.222234 -0.000612446 9.05466e-18)
(-0.222307 -0.000296938 6.41009e-18)
(-0.222134 4.46381e-05 7.07376e-18)
(-0.221699 0.000371113 -1.62369e-17)
(-0.22101 0.000705774 -1.63577e-18)
(-0.220065 0.00104144 -5.14864e-18)
(-0.218865 0.00137664 -2.08049e-17)
(-0.217412 0.00171485 -1.10555e-17)
(-0.215705 0.00206266 -2.14532e-17)
(-0.213737 0.00242963 -6.79892e-19)
(-0.211495 0.00282836 7.97315e-19)
(-0.208957 0.00327455 -9.08742e-18)
(-0.20609 0.00378725 -3.72175e-18)
(-0.20285 0.00438987 -4.32863e-17)
(-0.199176 0.00511075 -1.1691e-17)
(-0.194994 0.00598667 -3.00784e-18)
(-0.190196 0.00706317 -1.23436e-17)
(-0.184678 0.00840336 -1.47921e-17)
(-0.178234 0.0100899 1.6505e-17)
(-0.170762 0.0122371 -1.22673e-17)
(-0.161776 0.0150277 4.52433e-19)
(-0.151423 0.0185969 3.45486e-18)
(-0.138232 0.0235042 5.44261e-17)
(-0.123638 0.0291963 3.18796e-17)
(-0.103233 0.0377414 3.60562e-18)
(-0.0814293 0.0433445 -2.53522e-17)
(-0.0508464 0.0492869 -4.84286e-18)
(-0.0142544 0.0310662 -2.11185e-17)
(0.760121 -0.04013 1.68469e-20)
(0.691361 -0.0402079 3.19618e-18)
(0.676423 -0.0398707 -1.28972e-17)
(0.623626 -0.0411141 -4.82944e-18)
(0.59573 -0.0412516 -2.03794e-17)
(0.549944 -0.0428918 -4.87817e-18)
(0.514125 -0.0437127 -6.76538e-18)
(0.470011 -0.0455316 -7.64679e-19)
(0.428793 -0.046951 -1.06118e-17)
(0.383354 -0.0489324 1.65907e-17)
(0.33772 -0.0507902 -1.45153e-17)
(0.289368 -0.0529267 2.21329e-17)
(0.239575 -0.0550425 -8.28939e-18)
(0.187552 -0.0572434 -1.80774e-17)
(0.133686 -0.0593867 -2.15369e-17)
(0.0778469 -0.0614428 -1.78488e-17)
(0.0202012 -0.063315 -5.47673e-18)
(-0.0389923 -0.0648273 -5.56141e-18)
(-0.099352 -0.0659475 -2.38571e-18)
(-0.160517 -0.0664782 5.62474e-18)
(-0.221834 -0.0662744 2.27375e-18)
(-0.28256 -0.0652021 1.7927e-17)
(-0.341839 -0.0631611 -1.33596e-17)
(-0.398738 -0.0601079 8.80136e-18)
(-0.452316 -0.05607 5.44982e-18)
(-0.501697 -0.0511446 -2.97801e-17)
(-0.54613 -0.0454861 -2.3474e-18)
(-0.585033 -0.0392815 -5.33455e-18)
(-0.618013 -0.0327269 -2.50008e-17)
(-0.644858 -0.0260088 -6.11118e-17)
(-0.665516 -0.0192923 -2.73949e-17)
(-0.68008 -0.0127193 5.37559e-19)
(-0.688747 -0.00640321 2.09165e-17)
(-0.691819 -0.000442971 -2.1481e-17)
(-0.689663 0.00508471 -7.13635e-18)
(-0.682695 0.010124 -7.58727e-18)
(-0.671398 0.0146249 -7.21214e-18)
(-0.656278 0.0185539 -2.27946e-17)
(-0.637866 0.0218897 -5.62248e-18)
(-0.616704 0.0246234 -7.32121e-19)
(-0.593339 0.0267578 -8.98415e-18)
(-0.568307 0.0283072 9.72931e-19)
(-0.542126 0.029296 4.20813e-17)
(-0.515289 0.0297577 1.15383e-17)
(-0.488254 0.0297331 5.31279e-18)
(-0.461439 0.0292691 9.54491e-18)
(-0.435218 0.0284167 -5.2036e-17)
(-0.409918 0.0272294 -8.55792e-18)
(-0.385816 0.0257618 9.64175e-18)
(-0.363142 0.0240679 -3.40217e-18)
(-0.342076 0.0222007 6.57759e-18)
(-0.322753 0.0202112 -4.01144e-17)
(-0.305262 0.0181477 1.04472e-17)
(-0.28965 0.0160553 1.46701e-17)
(-0.275925 0.0139754 -1.6721e-17)
(-0.26406 0.0119458 1.37814e-17)
(-0.253994 0.01 1.8476e-17)
(-0.245638 0.00816708 6.16543e-18)
(-0.238878 0.00647112 4.92182e-18)
(-0.233579 0.00493244 1.08218e-17)
(-0.229586 0.00355974 -2.75042e-17)
(-0.226745 0.00237816 -8.23681e-18)
(-0.224896 0.00139219 -1.70232e-18)
(-0.223872 0.000593578 -9.41979e-18)
(-0.223509 -2.32545e-05 3.57273e-18)
(-0.223644 -0.000492779 1.35487e-17)
(-0.224125 -0.000812105 8.62372e-18)
(-0.224828 -0.000995957 2.27865e-18)
(-0.22564 -0.001063 1.0497e-18)
(-0.226462 -0.00103239 8.07782e-18)
(-0.227216 -0.000923611 1.60903e-18)
(-0.227839 -0.000755987 1.01877e-17)
(-0.228285 -0.000543609 2.06945e-17)
(-0.228521 -0.00030057 1.25535e-17)
(-0.228525 -2.93803e-05 6.91298e-18)
(-0.228278 0.000222732 -7.06204e-18)
(-0.227775 0.000477069 -1.25968e-18)
(-0.227024 0.000732727 -1.53064e-17)
(-0.226026 0.000989085 -1.12778e-17)
(-0.224778 0.00124843 -2.00168e-17)
(-0.223281 0.00151559 -4.46533e-17)
(-0.221525 0.00179786 5.3923e-19)
(-0.219496 0.00210496 7.70426e-18)
(-0.217171 0.00244912 5.25596e-18)
(-0.214513 0.00284527 -3.84737e-18)
(-0.211476 0.00331183 -3.63106e-17)
(-0.207991 0.00387117 -1.19046e-17)
(-0.203978 0.00455237 -2.95638e-18)
(-0.199319 0.00539182 -9.36904e-18)
(-0.193895 0.00643953 -2.42142e-17)
(-0.187474 0.0077631 3.59057e-18)
(-0.179932 0.00945148 -8.90362e-18)
(-0.170721 0.0116629 6.20857e-18)
(-0.159933 0.0144858 6.09435e-18)
(-0.145994 0.0184191 3.40798e-17)
(-0.130101 0.0229492 4.11148e-17)
(-0.107978 0.0298701 2.2862e-18)
(-0.0833294 0.0345091 -1.10085e-17)
(-0.0503011 0.0393209 -2.6106e-18)
(-0.0134604 0.025783 -8.41967e-18)
(0.759 -0.0287244 -3.18478e-18)
(0.689949 -0.0287538 -1.1811e-18)
(0.674984 -0.028524 -1.30508e-17)
(0.62196 -0.029396 -3.04096e-18)
(0.594 -0.0294994 -1.42162e-17)
(0.548023 -0.0306653 3.80455e-18)
(0.512108 -0.031253 -1.95205e-17)
(0.467824 -0.0325522 -1.88954e-18)
(0.426482 -0.0335677 -6.72542e-18)
(0.380884 -0.0349868 7.36329e-18)
(0.335108 -0.0363193 -7.23319e-18)
(0.286599 -0.0378565 4.58173e-18)
(0.236658 -0.0393807 -2.14225e-17)
(0.184487 -0.0409637 -1.05599e-17)
(0.13048 -0.0425046 -2.00484e-17)
(0.0745045 -0.0439828 -9.86932e-18)
(0.016743 -0.0453328 -4.23726e-18)
(-0.0425584 -0.046419 -8.99534e-18)
(-0.103018 -0.0472341 -1.68651e-18)
(-0.164259 -0.0476284 8.89674e-18)
(-0.225644 -0.0475011 2.86466e-18)
(-0.286432 -0.0467569 7.82257e-18)
(-0.345784 -0.0453238 -2.47254e-18)
(-0.402779 -0.0431697 2.51421e-18)
(-0.456491 -0.0403118 7.49842e-18)
(-0.506053 -0.0368168 -1.60201e-17)
(-0.550716 -0.0327918 -3.59854e-17)
(-0.589895 -0.0283684 -3.54343e-17)
(-0.623185 -0.0236853 -3.17211e-17)
(-0.650359 -0.0188757 -1.96226e-17)
(-0.671352 -0.0140582 -4.17019e-17)
(-0.686242 -0.00933572 2.11584e-18)
(-0.695215 -0.00479089 -4.76349e-17)
(-0.698566 -0.000496575 -5.35716e-17)
(-0.696651 0.00349338 -8.20042e-18)
(-0.68988 0.0071353 -4.44153e-18)
(-0.678738 0.0103921 5.46549e-18)
(-0.663725 0.0132393 -5.48095e-17)
(-0.645373 0.015661 -7.96883e-17)
(-0.624224 0.0176498 2.84171e-19)
(-0.600826 0.0192073 -1.53751e-17)
(-0.575717 0.020343 -1.54268e-17)
(-0.549421 0.0210739 2.0532e-17)
(-0.522433 0.0214238 -1.96253e-17)
(-0.495217 0.0214219 1.07048e-17)
(-0.468196 0.0211017 1.12181e-17)
(-0.44175 0.0205 -1.8942e-17)
(-0.416211 0.0196551 -1.52029e-17)
(-0.391863 0.0186064 -1.87763e-17)
(-0.368941 0.017393 -1.62606e-17)
(-0.347628 0.0160531 1.02835e-17)
(-0.328066 0.0146234 -2.60812e-17)
(-0.310345 0.0131389 2.88573e-18)
(-0.294518 0.011632 -1.27184e-17)
(-0.280594 0.0101328 -9.45158e-18)
(-0.268548 0.00866843 -8.35536e-19)
(-0.258322 0.00726314 6.88922e-18)
(-0.249828 0.00593795 8.05572e-18)
(-0.242952 0.00471033 1.03498e-17)
(-0.237561 0.00359506 -3.90703e-18)
(-0.233499 0.0025989 -2.22723e-17)
(-0.230607 0.00173623 -1.97019e-17)
(-0.228729 0.0010166 -3.27381e-18)
(-0.227696 0.000431964 -1.56637e-17)
(-0.227356 -2.15228e-05 -5.90632e-21)
(-0.227535 -0.000371228 2.43023e-18)
(-0.228067 -0.000609267 3.9419e-18)
(-0.228837 -0.000749111 1.16976e-18)
(-0.229728 -0.000804343 2.48311e-18)
(-0.230642 -0.000788504 1.90283e-17)
(-0.231497 -0.000715522 -2.838e-21)
(-0.23223 -0.000599134 2.06719e-17)
(-0.232793 -0.000449757 1.4024e-17)
(-0.233152 -0.000278834 2.49646e-17)
(-0.233288 -9.38486e-05 8.14158e-18)
(-0.233181 9.29781e-05 -4.9843e-18)
(-0.232819 0.00027491 -1.31412e-18)
(-0.232211 0.00045799 -3.65783e-18)
(-0.231358 0.00064119 -7.76155e-18)
(-0.230261 0.000826179 -6.89959e-18)
(-0.228917 0.00101647 -2.53739e-17)
(-0.227316 0.00121728 1.20592e-17)
(-0.225445 0.00143557 2.28564e-17)
(-0.223277 0.00168013 2.22289e-17)
(-0.220774 0.0019617 -7.84859e-18)
(-0.217886 0.00229354 -5.79333e-17)
(-0.214543 0.00269181 -1.29367e-17)
(-0.210658 0.00317746 -3.78096e-18)
(-0.206103 0.00377699 -1.15222e-17)
(-0.200753 0.00452628 -1.17827e-17)
(-0.194355 0.00547577 -3.01309e-19)
(-0.186767 0.00668785 -1.36991e-17)
(-0.177397 0.0082883 1.8391e-17)
(-0.166295 0.0103206 1.22966e-17)
(-0.151812 0.0131845 4.02324e-17)
(-0.134955 0.016459 3.49759e-17)
(-0.111547 0.0215524 -3.92644e-18)
(-0.0847727 0.025051 -5.46458e-18)
(-0.0497621 0.02872 -4.78284e-19)
(-0.0127973 0.019712 -4.64332e-18)
(0.758165 -0.0172581 -4.3293e-18)
(0.688926 -0.0172541 -1.28263e-18)
(0.673937 -0.0171175 -6.1607e-18)
(0.620766 -0.017631 -4.82176e-19)
(0.59276 -0.0176932 -1.93886e-17)
(0.546657 -0.0183895 -6.12322e-18)
(0.510676 -0.0187419 -1.57957e-17)
(0.46628 -0.0195219 -5.48867e-18)
(0.424856 -0.020133 -1.01831e-17)
(0.379151 -0.0209897 1.69574e-18)
(0.333281 -0.0217984 -4.232e-18)
(0.284668 -0.0227402 -7.61638e-18)
(0.234633 -0.0236775 -1.05831e-17)
(0.182367 -0.0246445 -5.27621e-18)
(0.128272 -0.0255826 3.28638e-18)
(0.0722105 -0.0264805 -4.69794e-18)
(0.0143783 -0.0273014 -3.89587e-18)
(-0.0449893 -0.0279554 -1.7729e-17)
(-0.10551 -0.0284507 -8.90947e-19)
(-0.166799 -0.0286898 9.6791e-18)
(-0.228225 -0.0286146 3.56845e-18)
(-0.289056 -0.0281682 4.42832e-18)
(-0.348458 -0.0273078 6.97651e-18)
(-0.405522 -0.0260142 -2.4738e-19)
(-0.459331 -0.0242979 1.14751e-17)
(-0.509023 -0.0221986 -2.28398e-17)
(-0.553851 -0.0197806 -3.68133e-17)
(-0.593226 -0.0171226 -1.36195e-17)
(-0.626735 -0.014308 -5.23537e-17)
(-0.654141 -0.0114169 1.28868e-17)
(-0.67537 -0.00852073 1.86756e-17)
(-0.690488 -0.0056814 1.19008e-17)
(-0.699675 -0.0029487 -6.58164e-17)
(-0.703216 -0.000365536 -2.30822e-18)
(-0.701464 0.00203056 9.41938e-18)
(-0.694828 0.00422261 2.03674e-18)
(-0.683787 0.00618374 7.41507e-18)
(-0.668841 0.00789953 -5.32018e-17)
(-0.65052 0.00936075 -8.84797e-17)
(-0.62937 0.0105631 3.18365e-17)
(-0.605937 0.0115074 4.55034e-17)