/*--------------------------------*- C++ -*----------------------------------*\
  =========                 |
  \\      /  F ield         | OpenFOAM: The Open Source CFD Toolbox
   \\    /   O peration     | Website:  https://openfoam.org
    \\  /    A nd           | Version:  7
     \\/     M anipulation  |
\*---------------------------------------------------------------------------*/
FoamFile
{
    version     2.0;
    format      ascii;
    class       volScalarField;
    location    "116";
    object      p;
}
// * * * * * * * * * * * * * * * * * * * * * * * * * * * * * * * * * * * * * //

dimensions      [0 2 -2 0 0 0 0];

internalField   nonuniform List<scalar> 
11200
(
-0.000902756
-0.00299689
-0.00488896
-0.00700367
-0.00902107
-0.0110411
-0.0129572
-0.0147668
-0.0164313
-0.0179389
-0.0192761
-0.0204415
-0.0214379
-0.0222748
-0.022966
-0.0235292
-0.0239847
-0.0243539
-0.0246598
-0.024924
-0.0251682
-0.0254118
-0.0256737
-0.0259682
-0.0263077
-0.0267011
-0.0271532
-0.027667
-0.0282413
-0.0288721
-0.0295519
-0.0302707
-0.031016
-0.0317735
-0.0325274
-0.0332614
-0.0339592
-0.0346039
-0.0351867
-0.0356817
-0.0361103
-0.0364131
-0.0366278
-0.0367423
-0.0367569
-0.0366774
-0.0365116
-0.03627
-0.0359655
-0.0356128
-0.0352279
-0.034828
-0.034431
-0.0340553
-0.0337193
-0.0334411
-0.0332382
-0.0331277
-0.0331256
-0.0332462
-0.0335078
-0.0339129
-0.034474
-0.0352292
-0.0361323
-0.0372153
-0.0384728
-0.0399009
-0.0414909
-0.0432298
-0.0451006
-0.0470816
-0.0491465
-0.0512647
-0.0534037
-0.0555289
-0.0576053
-0.0595992
-0.0614753
-0.0632172
-0.0647747
-0.0661851
-0.0674227
-0.0684273
-0.069282
-0.0699504
-0.0704879
-0.0708475
-0.071149
-0.0712184
-0.0713706
-0.0710568
-0.0711929
-0.0701316
-0.0706215
-0.0679621
-0.0697385
-0.0647401
-0.0681378
-0.0647307
-0.000900766
-0.00295563
-0.00482898
-0.00690914
-0.00890003
-0.0108975
-0.0127988
-0.0146024
-0.0162703
-0.017791
-0.0191511
-0.0203482
-0.0213842
-0.0222672
-0.0230093
-0.0236261
-0.0241357
-0.0245575
-0.0249122
-0.0252195
-0.0254994
-0.0257695
-0.0260483
-0.0263468
-0.0266789
-0.0270534
-0.027475
-0.0279474
-0.0284705
-0.0290412
-0.0296538
-0.0303
-0.0309692
-0.0316491
-0.0323261
-0.0329857
-0.0336138
-0.0341955
-0.034723
-0.0351734
-0.0355588
-0.0358477
-0.0360539
-0.0361726
-0.0362043
-0.0361549
-0.0360317
-0.0358442
-0.0356044
-0.0353255
-0.0350221
-0.0347097
-0.0344043
-0.0341222
-0.0338798
-0.033693
-0.0335774
-0.0335478
-0.0336184
-0.033802
-0.0341147
-0.0345614
-0.0351785
-0.0359099
-0.0368007
-0.0378573
-0.0390727
-0.0404438
-0.0419629
-0.0436188
-0.0453963
-0.0472764
-0.0492356
-0.0512465
-0.0532801
-0.0553048
-0.0572892
-0.0592024
-0.0610122
-0.0627028
-0.0642295
-0.0656205
-0.06684
-0.067885
-0.0687756
-0.0694899
-0.0700828
-0.0705006
-0.0708649
-0.0709884
-0.0711975
-0.0709156
-0.0710893
-0.0700247
-0.0705008
-0.067832
-0.0694199
-0.0645393
-0.0674158
-0.0638487
-0.000896472
-0.00291379
-0.00476741
-0.00681444
-0.00877975
-0.0107557
-0.012643
-0.0144411
-0.0161128
-0.017647
-0.0190299
-0.0202588
-0.0213345
-0.0222637
-0.0230568
-0.0237275
-0.0242917
-0.0247666
-0.0251707
-0.0255218
-0.025838
-0.0261351
-0.0264307
-0.0267344
-0.0270597
-0.0274153
-0.0278066
-0.0282373
-0.0287086
-0.0292187
-0.0297633
-0.0303358
-0.0309276
-0.0315285
-0.0321269
-0.0327105
-0.0332671
-0.033784
-0.0342545
-0.0346586
-0.0350063
-0.0352736
-0.0354692
-0.0355908
-0.0356388
-0.0356191
-0.0355383
-0.0354053
-0.035231
-0.0350272
-0.0348071
-0.0345843
-0.0343731
-0.0341876
-0.0340422
-0.0339506
-0.0339261
-0.0339816
-0.0341289
-0.0343793
-0.0347464
-0.0352357
-0.0358764
-0.0366193
-0.0375026
-0.0385351
-0.0397096
-0.0410238
-0.0424713
-0.0440423
-0.045724
-0.0474998
-0.0493492
-0.0512482
-0.0531713
-0.0550903
-0.0569775
-0.0588049
-0.0605437
-0.0621792
-0.063672
-0.0650442
-0.0662747
-0.0673287
-0.0682534
-0.0690148
-0.0696654
-0.070145
-0.070576
-0.0707587
-0.071028
-0.0707837
-0.0709957
-0.0699331
-0.0703943
-0.0677185
-0.0691425
-0.0643776
-0.0669094
-0.0632777
-0.000890172
-0.00287085
-0.0047039
-0.00671877
-0.00865941
-0.0106147
-0.0124887
-0.0142821
-0.015958
-0.0175059
-0.0189119
-0.0201727
-0.0212881
-0.0222634
-0.0231074
-0.0238317
-0.0244503
-0.0249781
-0.0254315
-0.0258261
-0.0261783
-0.0265022
-0.0268138
-0.0271229
-0.0274414
-0.0277782
-0.0281389
-0.0285281
-0.0289477
-0.0293972
-0.0298739
-0.030373
-0.0308877
-0.0314099
-0.03193
-0.0324379
-0.0329234
-0.0333759
-0.0337895
-0.0341477
-0.0344591
-0.0347035
-0.0348882
-0.0350122
-0.0350761
-0.0350854
-0.0350464
-0.034967
-0.0348573
-0.0347277
-0.0345899
-0.034456
-0.034338
-0.0342485
-0.0341994
-0.0342024
-0.0342686
-0.0344087
-0.0346325
-0.0349492
-0.0353701
-0.0358998
-0.0365551
-0.0373177
-0.0381964
-0.0392062
-0.0403413
-0.0415999
-0.042977
-0.0444647
-0.0460519
-0.0477248
-0.0494658
-0.0512543
-0.0530679
-0.0548824
-0.056673
-0.0584152
-0.0600833
-0.0616636
-0.0631218
-0.064475
-0.0657059
-0.0667768
-0.0677346
-0.0685421
-0.0692496
-0.0697911
-0.0702889
-0.0705321
-0.0708635
-0.0706603
-0.0709145
-0.0698611
-0.0703153
-0.0676412
-0.0689198
-0.0642503
-0.0664593
-0.0626561
-0.000882068
-0.00282683
-0.00463846
-0.00662207
-0.00853886
-0.0104743
-0.0123359
-0.0141251
-0.0158057
-0.0173676
-0.0187969
-0.0200896
-0.0212447
-0.0222661
-0.0231608
-0.0239387
-0.0246116
-0.0251921
-0.0256945
-0.0261325
-0.0265207
-0.0268715
-0.0271989
-0.027513
-0.0278244
-0.0281423
-0.0284724
-0.0288199
-0.0291877
-0.0295767
-0.0299855
-0.0304113
-0.0308491
-0.0312928
-0.0317349
-0.0321674
-0.032582
-0.0329701
-0.0333272
-0.0336394
-0.0339144
-0.0341358
-0.0343094
-0.0344358
-0.0345151
-0.0345529
-0.034555
-0.0345286
-0.0344827
-0.0344266
-0.0343704
-0.0343245
-0.0342992
-0.034305
-0.0343517
-0.034449
-0.0346056
-0.0348302
-0.0351302
-0.0355132
-0.0359879
-0.0365582
-0.0372347
-0.0380118
-0.038886
-0.0398737
-0.0409698
-0.0421736
-0.0434811
-0.0448861
-0.0463798
-0.0479506
-0.0495841
-0.0512628
-0.0529678
-0.0546781
-0.0563726
-0.0580297
-0.0596269
-0.0611517
-0.0625742
-0.0639072
-0.0651339
-0.0662246
-0.0672158
-0.0680689
-0.0688331
-0.0694365
-0.0700017
-0.0703066
-0.0707016
-0.0705427
-0.0708424
-0.0698037
-0.0702588
-0.0675903
-0.0687454
-0.0641507
-0.0660764
-0.0620878
-0.000872356
-0.00278182
-0.00457119
-0.00652443
-0.00841814
-0.0103345
-0.0121845
-0.01397
-0.0156558
-0.0172321
-0.0186847
-0.0200095
-0.0212042
-0.0222717
-0.0232172
-0.0240486
-0.0247756
-0.0254088
-0.0259603
-0.0264416
-0.0268657
-0.0272432
-0.0275865
-0.0279055
-0.0282098
-0.0285086
-0.028808
-0.0291137
-0.0294297
-0.029758
-0.030099
-0.0304514
-0.0308123
-0.0311775
-0.0315416
-0.0318987
-0.0322424
-0.0325662
-0.0328666
-0.0331326
-0.0333711
-0.0335691
-0.0337315
-0.0338598
-0.033954
-0.0340198
-0.0340624
-0.0340885
-0.0341059
-0.0341228
-0.0341477
-0.0341894
-0.0342565
-0.0343574
-0.0344999
-0.0346914
-0.0349386
-0.0352478
-0.0356244
-0.0360742
-0.0366033
-0.0372148
-0.0379153
-0.0387061
-0.039576
-0.0405421
-0.0415997
-0.0427491
-0.0439875
-0.0453103
-0.0467107
-0.0481799
-0.0497061
-0.0512751
-0.0528715
-0.0544777
-0.0560759
-0.0576474
-0.0591732
-0.0606418
-0.0620276
-0.0633395
-0.0645623
-0.0656707
-0.0666952
-0.0675937
-0.0684146
-0.0690804
-0.0697137
-0.0700821
-0.0705425
-0.070431
-0.0707797
-0.0697607
-0.0702243
-0.0675641
-0.06862
-0.0640834
-0.0657787
-0.0616204
-0.000861358
-0.00273586
-0.00450215
-0.00642586
-0.00829723
-0.0101953
-0.0120344
-0.0138169
-0.0155082
-0.0170991
-0.0185753
-0.0199322
-0.0211666
-0.0222801
-0.0232763
-0.0241612
-0.0249424
-0.0256282
-0.0262287
-0.0267533
-0.0272133
-0.0276178
-0.0279768
-0.0283005
-0.0285978
-0.0288774
-0.029146
-0.0294099
-0.0296739
-0.0299415
-0.0302145
-0.0304935
-0.0307774
-0.0310641
-0.0313502
-0.0316318
-0.0319046
-0.0321639
-0.0324076
-0.0326272
-0.0328289
-0.0330034
-0.0331541
-0.0332838
-0.0333924
-0.0334857
-0.0335683
-0.0336463
-0.0337265
-0.0338158
-0.0339214
-0.0340505
-0.0342097
-0.0344055
-0.0346438
-0.0349296
-0.0352676
-0.0356618
-0.0361156
-0.0366325
-0.0372166
-0.0378699
-0.0385946
-0.0394001
-0.0402664
-0.0412115
-0.0422314
-0.0433269
-0.0444967
-0.0457376
-0.0470452
-0.048413
-0.0498321
-0.0512916
-0.0527793
-0.0542811
-0.0557827
-0.0572683
-0.0587221
-0.0601339
-0.061482
-0.0627723
-0.0639917
-0.0651163
-0.0661731
-0.0671168
-0.0679941
-0.0687229
-0.0694253
-0.0698588
-0.0703867
-0.0703263
-0.0707278
-0.0697337
-0.0702147
-0.0675656
-0.0685477
-0.0640549
-0.0655694
-0.0612545
-0.000849095
-0.00268895
-0.00443134
-0.0063263
-0.00817598
-0.0100566
-0.0118854
-0.0136653
-0.0153627
-0.0169684
-0.0184684
-0.0198574
-0.0211316
-0.0222911
-0.023338
-0.0242763
-0.0251117
-0.0258502
-0.0264998
-0.0270678
-0.0275637
-0.0279951
-0.02837
-0.0286985
-0.0289887
-0.0292492
-0.0294869
-0.0297088
-0.0299208
-0.0301275
-0.0303325
-0.0305378
-0.0307446
-0.0309526
-0.0311604
-0.0313664
-0.0315679
-0.0317625
-0.0319492
-0.032122
-0.0322868
-0.0324373
-0.0325757
-0.0327062
-0.0328288
-0.032949
-0.0330711
-0.0332004
-0.033343
-0.0335044
-0.0336905
-0.0339067
-0.0341581
-0.034449
-0.0347833
-0.0351639
-0.0355932
-0.0360732
-0.0366047
-0.0371896
-0.0378294
-0.0385249
-0.0392735
-0.0400954
-0.0409591
-0.0418838
-0.0428663
-0.0439083
-0.0450097
-0.0461689
-0.0473837
-0.0486498
-0.0499615
-0.0513111
-0.0526897
-0.0540865
-0.0554906
-0.0568895
-0.0582704
-0.0596245
-0.060934
-0.0622021
-0.0634184
-0.0645623
-0.0656471
-0.0666352
-0.0675692
-0.068362
-0.0691349
-0.0696361
-0.0702343
-0.0702292
-0.0706886
-0.0697254
-0.0702346
-0.0675994
-0.0685348
-0.0640728
-0.0654512
-0.0609925
-0.000835696
-0.00264117
-0.00435889
-0.00622589
-0.00805451
-0.00991839
-0.0117376
-0.0135155
-0.0152193
-0.0168402
-0.0183641
-0.0197854
-0.0210993
-0.0223049
-0.0234025
-0.0243943
-0.0252839
-0.0260752
-0.026774
-0.0273855
-0.0279176
-0.0283755
-0.0287667
-0.0291001
-0.0293832
-0.0296245
-0.0298312
-0.030011
-0.0301707
-0.0303164
-0.030453
-0.0305845
-0.0307138
-0.0308428
-0.0309721
-0.031102
-0.031232
-0.0313614
-0.0314907
-0.0316161
-0.0317434
-0.0318685
-0.0319948
-0.032126
-0.0322619
-0.0324087
-0.0325699
-0.0327502
-0.0329549
-0.0331882
-0.0334547
-0.0337583
-0.034102
-0.0344884
-0.0349193
-0.0353954
-0.0359169
-0.0364835
-0.0370939
-0.0377479
-0.0384447
-0.0391839
-0.0399612
-0.0407976
-0.0416583
-0.0425629
-0.0435083
-0.0444969
-0.0455297
-0.046607
-0.0477285
-0.0488925
-0.0500962
-0.051335
-0.0526034
-0.0538941
-0.0551996
-0.0565103
-0.0578169
-0.0591119
-0.060381
-0.0616252
-0.062836
-0.0640003
-0.065113
-0.0661468
-0.0671386
-0.0679971
-0.0688423
-0.0694139
-0.0700853
-0.0701397
-0.0706614
-0.0697347
-0.0702825
-0.0676635
-0.0685792
-0.0641349
-0.0654172
-0.060831
-0.000821413
-0.00259302
-0.00428572
-0.00612586
-0.0079344
-0.0097826
-0.0115932
-0.0133699
-0.0150807
-0.0167171
-0.0182652
-0.0197187
-0.0210723
-0.0223236
-0.0234716
-0.0245164
-0.0254596
-0.026303
-0.0270502
-0.0277045
-0.0282722
-0.028756
-0.0291629
-0.0295006
-0.0297763
-0.0299982
-0.030174
-0.0303119
-0.0304198
-0.0305049
-0.030574
-0.0306326
-0.0306855
-0.0307366
-0.0307886
-0.0308438
-0.0309035
-0.0309689
-0.0310418
-0.0311206
-0.031211
-0.0313088
-0.0314246
-0.0315573
-0.0317067
-0.0318794
-0.0320789
-0.0323092
-0.0325746
-0.0328783
-0.0332235
-0.0336124
-0.0340465
-0.0345264
-0.0350518
-0.0356214
-0.0362333
-0.0368848
-0.0375727
-0.0382947
-0.0390479
-0.0398309
-0.0406412
-0.0414893
-0.042347
-0.0432326
-0.0441426
-0.0450801
-0.0460474
-0.0470462
-0.0480782
-0.0491442
-0.0502442
-0.0513766
-0.0525391
-0.0537278
-0.0549382
-0.0561638
-0.0573981
-0.0586351
-0.0598634
-0.0610819
-0.0622801
-0.0634338
-0.064603
-0.0656836
-0.0667304
-0.0676511
-0.0685639
-0.0692022
-0.0699408
-0.0700526
-0.0706299
-0.0697404
-0.0703223
-0.0677202
-0.0686318
-0.0641918
-0.0654103
-0.060728
-0.000770054
-0.00331482
-0.00536164
-0.0078191
-0.0101254
-0.0123725
-0.0144515
-0.0163347
-0.0179842
-0.0193831
-0.0205224
-0.0214071
-0.0220514
-0.0224787
-0.0227194
-0.02281
-0.02279
-0.0227004
-0.0225828
-0.0224766
-0.0224189
-0.0224427
-0.0225766
-0.0228405
-0.0232608
-0.0238345
-0.0245674
-0.0254575
-0.0264948
-0.0276631
-0.028941
-0.0303025
-0.0317179
-0.0331544
-0.0345767
-0.0359496
-0.0372386
-0.0384089
-0.0394317
-0.0402715
-0.0409488
-0.0414003
-0.0416372
-0.0416525
-0.0414501
-0.0410394
-0.0404355
-0.0396585
-0.0387327
-0.0376867
-0.036552
-0.0353625
-0.0341534
-0.0329623
-0.0318267
-0.0307836
-0.0298693
-0.0291184
-0.0285639
-0.0282364
-0.028168
-0.0283873
-0.02891
-0.0296921
-0.0308211
-0.0322627
-0.0340179
-0.0360703
-0.0383967
-0.040966
-0.0437386
-0.0466676
-0.0496952
-0.0527597
-0.0557968
-0.0587415
-0.0615301
-0.0641036
-0.0664067
-0.0684035
-0.06999
-0.0714333
-0.0724426
-0.0731315
-0.0735345
-0.0736839
-0.0736422
-0.0734367
-0.073146
-0.0727501
-0.0723767
-0.0718617
-0.0715524
-0.0707687
-0.0709761
-0.0691966
-0.0722205
-0.0675289
-0.0810756
-0.0726133
-0.000797902
-0.00329482
-0.00531663
-0.00774271
-0.0100133
-0.0122336
-0.0142966
-0.0161711
-0.0178212
-0.0192306
-0.0203897
-0.0213029
-0.021983
-0.0224519
-0.0227385
-0.0228773
-0.0229057
-0.022863
-0.0227886
-0.0227203
-0.0226937
-0.0227402
-0.0228871
-0.0231538
-0.0235665
-0.0241215
-0.0248255
-0.0256768
-0.0266662
-0.027779
-0.0289951
-0.0302902
-0.0316363
-0.0330023
-0.0343554
-0.0356621
-0.0368899
-0.0380058
-0.0389858
-0.0397992
-0.0404425
-0.0408798
-0.041117
-0.0411457
-0.0409695
-0.0405974
-0.0400434
-0.0393263
-0.0384694
-0.0374994
-0.0364462
-0.0353417
-0.0342197
-0.0331155
-0.0320645
-0.0311019
-0.0302618
-0.0295773
-0.02908
-0.028798
-0.0287617
-0.0289904
-0.0294949
-0.0302833
-0.0313841
-0.0327816
-0.0344782
-0.0364589
-0.0387025
-0.0411798
-0.0438539
-0.0466805
-0.0496051
-0.05257
-0.0555144
-0.0583767
-0.0610962
-0.0636169
-0.0658856
-0.0678742
-0.0695012
-0.070922
-0.0719523
-0.072684
-0.0731428
-0.0733536
-0.0733776
-0.0732339
-0.0730046
-0.0726542
-0.0723296
-0.0718253
-0.0715531
-0.070714
-0.0709529
-0.0690034
-0.0719779
-0.0670283
-0.0796884
-0.0724734
-0.000824664
-0.00326377
-0.00527296
-0.00766159
-0.00990105
-0.0120986
-0.0141415
-0.0160075
-0.0176585
-0.0190787
-0.0202578
-0.0211995
-0.0219153
-0.0224258
-0.0227581
-0.0229446
-0.0230208
-0.0230241
-0.0229919
-0.0229603
-0.0229632
-0.0230309
-0.0231891
-0.0234584
-0.0238616
-0.0243975
-0.0250722
-0.0258846
-0.0268265
-0.0278844
-0.0290396
-0.0302696
-0.031548
-0.0328459
-0.0341323
-0.0353758
-0.0365457
-0.0376111
-0.0385511
-0.039332
-0.0399508
-0.0403778
-0.0406169
-0.0406598
-0.0405099
-0.0401755
-0.0396698
-0.0390106
-0.0382196
-0.0373223
-0.0363467
-0.0353232
-0.0342834
-0.0332607
-0.0322886
-0.0314003
-0.0306282
-0.0300034
-0.0295558
-0.0293118
-0.0293009
-0.0295377
-0.0300428
-0.0308172
-0.0318885
-0.0332422
-0.0348812
-0.0367921
-0.0389555
-0.0413444
-0.0439241
-0.0466534
-0.0494815
-0.0523535
-0.0552124
-0.0579992
-0.0606562
-0.0631298
-0.0653685
-0.0673468
-0.0689832
-0.0704072
-0.0714674
-0.0722421
-0.0727543
-0.0730229
-0.0731084
-0.0730228
-0.072852
-0.0725466
-0.0722713
-0.0717839
-0.071555
-0.0706785
-0.0709612
-0.0688681
-0.0717789
-0.0666246
-0.078078
-0.0723757
-0.000846814
-0.00323275
-0.00522911
-0.0075814
-0.00978585
-0.0119641
-0.0139888
-0.0158467
-0.0174987
-0.0189296
-0.0201285
-0.0210984
-0.0218496
-0.0224014
-0.0227789
-0.0230128
-0.0231367
-0.0231857
-0.0231957
-0.0232009
-0.0232336
-0.0233228
-0.023493
-0.0237656
-0.0241596
-0.0246769
-0.025323
-0.0260972
-0.0269923
-0.0279959
-0.029091
-0.0302562
-0.0314674
-0.0326974
-0.033917
-0.035097
-0.0362085
-0.0372222
-0.0381198
-0.0388643
-0.0394613
-0.0398774
-0.0401168
-0.0401722
-0.0400466
-0.0397479
-0.0392887
-0.0386854
-0.0379589
-0.0371328
-0.0362339
-0.0352905
-0.0343326
-0.0333915
-0.0324987
-0.0316856
-0.0309826
-0.0304193
-0.0300238
-0.0298209
-0.0298399
-0.0300926
-0.0306038
-0.0313646
-0.0324087
-0.0337216
-0.0353059
-0.0371501
-0.0392359
-0.0415383
-0.0440251
-0.0466578
-0.0493888
-0.0521666
-0.0549372
-0.0576447
-0.0602342
-0.0626546
-0.0648558
-0.0668138
-0.0684483
-0.0698834
-0.0709705
-0.0717854
-0.0723481
-0.0726722
-0.0728174
-0.072789
-0.0726764
-0.0724161
-0.07219
-0.0717201
-0.0715327
-0.0706212
-0.0709388
-0.0687228
-0.0715475
-0.0662849
-0.0765946
-0.0720768
-0.000864312
-0.003202
-0.00518425
-0.00750182
-0.00967628
-0.0118302
-0.0138378
-0.015688
-0.0173411
-0.0187826
-0.0200012
-0.0209991
-0.0217856
-0.0223784
-0.022801
-0.0230821
-0.0232535
-0.0233484
-0.0234006
-0.0234427
-0.0235055
-0.0236166
-0.0237991
-0.0240751
-0.0244605
-0.0249597
-0.0255775
-0.0263138
-0.0271624
-0.0281121
-0.0291471
-0.0302479
-0.0313919
-0.0325538
-0.0337066
-0.0348227
-0.0358753
-0.0368366
-0.0376904
-0.0383992
-0.0389724
-0.0393767
-0.0396153
-0.0396819
-0.0395794
-0.0393154
-0.0389014
-0.0383531
-0.0376902
-0.0369348
-0.036112
-0.0352485
-0.0343725
-0.0335134
-0.0327006
-0.0319637
-0.0313313
-0.0308311
-0.0304895
-0.0303301
-0.030381
-0.0306509
-0.0311653
-0.0319195
-0.0329385
-0.0342126
-0.0357443
-0.0375232
-0.0395327
-0.0417496
-0.0441439
-0.0466799
-0.0493132
-0.0519955
-0.0546758
-0.0573016
-0.0598208
-0.0621847
-0.0643449
-0.0662793
-0.0679111
-0.0693536
-0.0704639
-0.0713166
-0.0719285
-0.0723072
-0.0725123
-0.0725415
-0.072488
-0.0722736
-0.0720982
-0.071646
-0.0715005
-0.0705542
-0.070902
-0.0685742
-0.0712941
-0.065982
-0.0752137
-0.0716229
-0.000877924
-0.00317076
-0.00513843
-0.00741765
-0.00956725
-0.0116972
-0.0136884
-0.015531
-0.0171854
-0.0186375
-0.0198757
-0.0209016
-0.0217231
-0.0223567
-0.0228242
-0.0231525
-0.0233714
-0.023512
-0.0236065
-0.0236856
-0.0237785
-0.0239115
-0.0241063
-0.0243858
-0.0247631
-0.0252443
-0.025834
-0.0265327
-0.027335
-0.0282309
-0.0292061
-0.0302426
-0.0313196
-0.0324136
-0.0334996
-0.0345519
-0.0355454
-0.0364543
-0.0372639
-0.0379374
-0.0384853
-0.0388772
-0.0391142
-0.0391913
-0.039111
-0.0388805
-0.0385109
-0.0380168
-0.0374165
-0.0367309
-0.0359836
-0.0351996
-0.0344051
-0.0336278
-0.0328951
-0.0322347
-0.0316734
-0.031237
-0.0309503
-0.0308352
-0.0309188
-0.0312069
-0.0317254
-0.032476
-0.0334705
-0.0347073
-0.0361878
-0.0379027
-0.039837
-0.0419693
-0.0442719
-0.0467116
-0.0492472
-0.0518336
-0.0544231
-0.0569662
-0.0594137
-0.0617195
-0.063837
-0.0657457
-0.0673725
-0.0688027
-0.0699503
-0.0708395
-0.0714992
-0.0719318
-0.0721964
-0.0722834
-0.07229
-0.0721226
-0.0719994
-0.0715663
-0.0714642
-0.0704856
-0.070862
-0.068434
-0.0710334
-0.0657111
-0.0739045
-0.0710455
-0.000888147
-0.00313898
-0.00509143
-0.00733706
-0.00945826
-0.0115653
-0.0135403
-0.0153756
-0.0170315
-0.0184943
-0.0197521
-0.0208057
-0.0216622
-0.0223364
-0.0228487
-0.023224
-0.0234902
-0.0236766
-0.0238133
-0.0239294
-0.0240525
-0.0242076
-0.0244149
-0.0246978
-0.0250673
-0.0255306
-0.0260924
-0.0267537
-0.02751
-0.0283523
-0.0292679
-0.0302404
-0.0312506
-0.0322769
-0.0332962
-0.0342847
-0.0352192
-0.0360755
-0.0368406
-0.0374787
-0.0380005
-0.0383795
-0.0386141
-0.0387007
-0.0386417
-0.0384439
-0.0381176
-0.0376766
-0.037138
-0.0365215
-0.0358488
-0.0351436
-0.0344302
-0.0337344
-0.0330818
-0.032498
-0.032008
-0.0316359
-0.0314048
-0.0313349
-0.0314521
-0.0317601
-0.032291
-0.0330336
-0.0340039
-0.0352049
-0.0366356
-0.0382881
-0.0401485
-0.0421973
-0.0444091
-0.0467532
-0.0491915
-0.0516821
-0.0541803
-0.0566399
-0.0590144
-0.0612604
-0.0633334
-0.065214
-0.0668332
-0.0682655
-0.0694319
-0.0703555
-0.0710614
-0.071547
-0.0718707
-0.0720155
-0.0720829
-0.0719634
-0.0718944
-0.0714821
-0.0714256
-0.0704186
-0.0708231
-0.0683084
-0.070776
-0.0654751
-0.0726743
-0.0703573
-0.00089531
-0.00310303
-0.00504214
-0.00725576
-0.00934937
-0.011434
-0.0133934
-0.0152216
-0.0168791
-0.0183527
-0.01963
-0.0207113
-0.0216025
-0.0223173
-0.0228742
-0.0232965
-0.02361
-0.0238422
-0.0240213
-0.0241745
-0.0243279
-0.0245053
-0.0247256
-0.025012
-0.0253737
-0.0258194
-0.0263535
-0.0269776
-0.0276879
-0.0284769
-0.029333
-0.0302415
-0.0311849
-0.0321435
-0.033096
-0.0340205
-0.0348957
-0.0356991
-0.036419
-0.0370215
-0.0375175
-0.0378818
-0.0381131
-0.0382085
-0.0381699
-0.0380039
-0.0377201
-0.0373314
-0.0368538
-0.0363056
-0.0357072
-0.0350804
-0.034448
-0.0338338
-0.0332614
-0.0327548
-0.0323369
-0.0320299
-0.0318552
-0.0318316
-0.0319832
-0.0323129
-0.0328805
-0.033593
-0.0345404
-0.0357072
-0.0370896
-0.0386808
-0.0404682
-0.0424343
-0.0445558
-0.0468044
-0.0491452
-0.0515393
-0.0539453
-0.0563199
-0.0586198
-0.0608042
-0.0628305
-0.0646807
-0.0662899
-0.0677227
-0.0689077
-0.0698613
-0.0706117
-0.0711496
-0.0715328
-0.0717363
-0.071866
-0.0717961
-0.0717839
-0.0713948
-0.0713874
-0.0703555
-0.0707904
-0.0681995
-0.0705331
-0.0652761
-0.0715442
-0.0696237
-0.000899772
-0.00306955
-0.00499294
-0.00717334
-0.00924058
-0.0113032
-0.0132475
-0.015069
-0.0167282
-0.0182127
-0.0195094
-0.0206183
-0.0215442
-0.0222994
-0.022901
-0.0233701
-0.023731
-0.024009
-0.0242306
-0.0244211
-0.0246052
-0.0248052
-0.0250394
-0.0253288
-0.025683
-0.0261112
-0.0266177
-0.0272047
-0.0278692
-0.0286048
-0.0294014
-0.0302458
-0.0311222
-0.0320128
-0.0328982
-0.0337583
-0.0345737
-0.0353236
-0.0359976
-0.0365638
-0.0370325
-0.0373815
-0.0376086
-0.0377118
-0.0376927
-0.0375576
-0.0373155
-0.0369784
-0.0365614
-0.0360812
-0.035557
-0.0350087
-0.0344576
-0.0339255
-0.0334344
-0.0330059
-0.0326614
-0.0324213
-0.032305
-0.0323297
-0.032518
-0.0328725
-0.0334556
-0.0341617
-0.0350878
-0.0362213
-0.0375562
-0.0390865
-0.0408012
-0.0426843
-0.0447147
-0.0468666
-0.0491083
-0.0514038
-0.0537151
-0.056002
-0.0582241
-0.0603434
-0.0623197
-0.0641361
-0.0657321
-0.0671626
-0.0683649
-0.0693473
-0.0701406
-0.0707305
-0.0711735
-0.0714369
-0.0716309
-0.0716127
-0.0716601
-0.0712962
-0.0713403
-0.0702853
-0.0707504
-0.0680899
-0.0702839
-0.0650868
-0.0704828
-0.0689068
-0.000902067
-0.00303504
-0.00494291
-0.00709118
-0.00913356
-0.0111751
-0.0131052
-0.0149205
-0.0165819
-0.0180772
-0.0193935
-0.0205297
-0.0214898
-0.0222848
-0.0229302
-0.0234454
-0.0238528
-0.0241758
-0.0244391
-0.0246662
-0.0248804
-0.0251028
-0.0253529
-0.0256431
-0.02599
-0.0264011
-0.0268807
-0.0274314
-0.0280512
-0.0287346
-0.0294729
-0.0302546
-0.0310654
-0.0318893
-0.0327087
-0.0335055
-0.0342618
-0.0349588
-0.035587
-0.0361167
-0.0365524
-0.0368906
-0.0371124
-0.0372218
-0.0372203
-0.0371139
-0.0369111
-0.0366232
-0.036264
-0.0358493
-0.0353966
-0.0349247
-0.0344527
-0.034001
-0.0335894
-0.0332382
-0.0329666
-0.0327934
-0.0327364
-0.0328113
-0.0330392
-0.0334249
-0.0340567
-0.0347304
-0.0356364
-0.0367394
-0.0380304
-0.039504
-0.0411501
-0.0429543
-0.0448974
-0.0469562
-0.0491016
-0.0513007
-0.0535184
-0.0557177
-0.0578612
-0.0599133
-0.0618362
-0.0636138
-0.0651901
-0.0666072
-0.0678091
-0.0688363
-0.0696693
-0.0703056
-0.0708028
-0.0711207
-0.0713743
-0.071404
-0.0715069
-0.0711665
-0.0712563
-0.0701833
-0.0706605
-0.0679597
-0.0699618
-0.0648557
-0.0693327
-0.0676649
0.032557
0.0393584
0.0401339
0.0427009
0.0424814
0.0420161
0.0397308
0.0363038
0.0310916
0.0241202
0.0148834
0.00316946
-0.0118641
-0.0303025
-0.0539359
-0.0817402
-0.119186
-0.148637
-0.172301
-0.191104
0.0306037
0.0372274
0.0378991
0.040341
0.039998
0.0394118
0.0369968
0.0334427
0.0281008
0.021007
0.0116601
-0.00015125
-0.0152535
-0.0337799
-0.0574732
-0.0850908
-0.122015
-0.145504
-0.169607
-0.177098
0.0287515
0.0351294
0.0357451
0.0380347
0.0375802
0.0368552
0.034299
0.0305904
0.0250837
0.0178145
0.00828811
-0.00371442
-0.0189859
-0.037669
-0.0613131
-0.0882338
-0.122958
-0.139446
-0.16394
-0.165555
0.0269603
0.0330661
0.0336367
0.0357658
0.0352088
0.0343464
0.0316576
0.0278025
0.022144
0.0147161
0.00503496
-0.00712308
-0.0225111
-0.0412605
-0.0647159
-0.0908597
-0.123311
-0.135204
-0.159858
-0.155073
0.0252165
0.0310376
0.0315632
0.033528
0.0328745
0.031879
0.0290686
0.0250804
0.0192911
0.0117339
0.00194027
-0.0103119
-0.0257333
-0.0444281
-0.0675427
-0.0928513
-0.122985
-0.132298
-0.155928
-0.144775
0.0235219
0.029042
0.0295267
0.0313217
0.0305779
0.0294506
0.0265268
0.0224139
0.0165083
0.00884186
-0.00103457
-0.0133366
-0.0287286
-0.0472734
-0.069908
-0.094298
-0.121974
-0.130056
-0.151455
-0.134895
0.02188
0.0270761
0.0275302
0.0291475
0.028321
0.0270617
0.0240316
0.0197998
0.0137888
0.00602795
-0.00390785
-0.0162241
-0.0315336
-0.049848
-0.0718794
-0.0952875
-0.120527
-0.128372
-0.146454
-0.125518
0.0202915
0.0251366
0.0255742
0.0270051
0.0261045
0.0247128
0.0215841
0.0172391
0.0111343
0.00329422
-0.00667663
-0.0189713
-0.0341466
-0.052155
-0.0734648
-0.0958335
-0.118965
-0.127367
-0.14101
-0.116485
0.0187561
0.0232196
0.0236585
0.024893
0.0239287
0.0224038
0.0191851
0.0147329
0.00854707
0.000645313
-0.00933044
-0.021554
-0.0365141
-0.0541009
-0.0745849
-0.0960662
-0.118066
-0.127697
-0.135735
-0.107376
0.0172734
0.0213214
0.0217838
0.0228124
0.0217969
0.0201399
0.0168424
0.0122918
0.00603985
-0.00190784
-0.0118744
-0.0240362
-0.0388552
-0.056205
-0.0761007
-0.0966841
-0.11707
-0.126715
-0.1305
-0.0983404
0.0592257
0.067584
0.0695584
0.073447
0.0746343
0.0755302
0.0747404
0.0728066
0.0691651
0.0637662
0.0560608
0.0458155
0.0318158
0.0142465
-0.0107208
-0.0401584
-0.0861201
-0.140545
-0.208584
-0.260964
0.0562655
0.0644436
0.0663218
0.070056
0.0711076
0.071856
0.0709127
0.0688188
0.0650112
0.0594418
0.0515675
0.0411511
0.0270111
0.00927436
-0.015726
-0.0455114
-0.0910691
-0.146334
-0.208283
-0.258872
0.0533821
0.0613915
0.0631757
0.066763
0.067671
0.0682615
0.0671424
0.0648578
0.0608373
0.0550324
0.0468986
0.0361858
0.0217388
0.00361285
-0.021664
-0.0519435
-0.0966608
-0.150129
-0.201795
-0.250696
0.0505607
0.0584026
0.0600898
0.063533
0.0642971
0.064731
0.0634366
0.0609623
0.05673
0.0506909
0.0422996
0.0312942
0.0165499
-0.00194133
-0.027421
-0.0580189
-0.101624
-0.152893
-0.195758
-0.243987
0.0477947
0.0554687
0.0570527
0.0603539
0.0609766
0.0612605
0.0598009
0.057152
0.0527289
0.0464853
0.0378777
0.0266381
0.0116789
-0.00705043
-0.0325409
-0.0631483
-0.105401
-0.154291
-0.19024
-0.236981
0.045084
0.0525924
0.0540666
0.0572289
0.0577118
0.0578525
0.0562371
0.0534277
0.0488334
0.0424126
0.0336261
0.0222057
0.00710615
-0.0117453
-0.037078
-0.0674124
-0.108111
-0.154061
-0.184419
-0.228573
0.0424298
0.0497773
0.0511346
0.0541625
0.0545062
0.0545096
0.0527453
0.0497868
0.0450362
0.0384591
0.0295219
0.0179611
0.00277705
-0.0161079
-0.0411539
-0.0709799
-0.11
-0.152286
-0.178276
-0.219099
0.039832
0.047026
0.0482574
0.0511566
0.0513606
0.051233
0.0493261
0.0462289
0.0413354
0.0346208
0.0255583
0.0138931
-0.00132457
-0.0201602
-0.044797
-0.0738858
-0.111205
-0.149182
-0.171877
-0.209152
0.0372901
0.0443399
0.0454338
0.0482115
0.0482744
0.0480231
0.0459797
0.0427552
0.0377331
0.0309015
0.0217403
0.0100079
-0.00519643
-0.0239181
-0.0480783
-0.0762897
-0.111978
-0.144691
-0.164255
-0.198241
0.0348038
0.0417206
0.0426626
0.0453275
0.0452468
0.0448792
0.042705
0.0393638
0.0342264
0.0272969
0.0180635
0.00630504
-0.00881858
-0.0272859
-0.0507073
-0.0775083
-0.111405
-0.138702
-0.157227
-0.183583
0.0917588
0.102225
0.105044
0.11068
0.113344
0.115874
0.116898
0.116991
0.11557
0.112627
0.107652
0.10049
0.0899375
0.0765719
0.0558271
0.0335914
-0.010466
-0.0454219
-0.155202
-0.211909
0.0883124
0.0984891
0.101269
0.106686
0.109216
0.111563
0.112402
0.112275
0.110615
0.107405
0.102126
0.0946138
0.0836328
0.0697439
0.0482929
0.0250393
-0.0202853
-0.0581844
-0.163038
-0.215447
0.0848878
0.0948632
0.0975571
0.102796
0.105156
0.107336
0.10796
0.107582
0.105635
0.102092
0.0964165
0.0884312
0.07686
0.0622337
0.0398272
0.015242
-0.03128
-0.0709778
-0.166074
-0.209643
0.0815071
0.0912905
0.0938905
0.0989583
0.101148
0.103156
0.103565
0.10294
0.100707
0.0968326
0.0907658
0.0823139
0.0701701
0.0548275
0.0315461
0.00571474
-0.0416205
-0.0831851
-0.170858
-0.211428
0.0781768
0.0877558
0.0902659
0.09516
0.0971904
0.0990247
0.0992311
0.0983755
0.0958809
0.0917076
0.0852944
0.0764375
0.063811
0.0478724
0.0239132
-0.00291968
-0.0506903
-0.0942252
-0.176651
-0.216116
0.0748961
0.0842651
0.0866873
0.0914078
0.0932862
0.0949504
0.094966
0.0938963
0.0911628
0.0867214
0.0800042
0.0707991
0.0577719
0.0413472
0.0168808
-0.0107392
-0.058641
-0.103923
-0.181781
-0.220212
0.0716641
0.0808245
0.0831587
0.0877081
0.0894392
0.0909384
0.0907725
0.0895017
0.0865472
0.0818616
0.0748732
0.0653636
0.0519998
0.0351726
0.0103341
-0.0179061
-0.0656658
-0.11233
-0.185809
-0.223402
0.0684809
0.0774363
0.0796822
0.0840635
0.0856514
0.0869905
0.0866518
0.0851918
0.0820326
0.0771243
0.0698943
0.0601195
0.0464779
0.0293229
0.00423867
-0.0244644
-0.071806
-0.11952
-0.188899
-0.225753
0.0653469
0.074101
0.0762587
0.0804743
0.0819234
0.0831074
0.0826049
0.0809681
0.0776212
0.0725128
0.0650729
0.055074
0.0412167
0.0238096
-0.00139286
-0.0304207
-0.0771371
-0.12575
-0.190969
-0.226096
0.0622621
0.0708196
0.0728899
0.0769426
0.0782584
0.0792933
0.0786376
0.076838
0.0733227
0.0680393
0.0604242
0.0502459
0.0362402
0.0186666
-0.00650384
-0.035623
-0.0812511
-0.130131
-0.191429
-0.22701
0.123937
0.136962
0.140472
0.148015
0.152163
0.157061
0.160371
0.163126
0.164711
0.165209
0.164259
0.161804
0.157334
0.151335
0.142414
0.135077
0.122767
0.130353
0.115868
0.213895
0.119701
0.13296
0.135971
0.143431
0.147155
0.15162
0.154363
0.15648
0.157295
0.156894
0.154883
0.151207
0.145283
0.137667
0.126578
0.11708
0.100392
0.105637
0.0795176
0.181729
0.116213
0.129334
0.132156
0.139472
0.142988
0.147195
0.149668
0.151502
0.152001
0.151259
0.148863
0.144753
0.138241
0.129908
0.117416
0.106178
0.0846876
0.0857351
0.0446765
0.147053
0.113137
0.125927
0.128744
0.135884
0.139275
0.143303
0.145599
0.14724
0.147523
0.146539
0.143851
0.139381
0.132331
0.123272
0.10938
0.0962623
0.0703536
0.0665845
0.0141884
0.112956
0.1101
0.12255
0.125376
0.13233
0.135591
0.139434
0.141534
0.142948
0.142965
0.141668
0.138592
0.133643
0.125921
0.116001
0.100643
0.0856683
0.0557992
0.0474822
-0.0139047
0.07793
0.107023
0.119161
0.121971
0.128733
0.131856
0.135493
0.13738
0.138543
0.138268
0.136628
0.133135
0.127684
0.119289
0.108542
0.0918327
0.0751952
0.0417634
0.029006
-0.0411651
0.04125
0.103948
0.115782
0.118569
0.125131
0.128125
0.131549
0.133231
0.13415
0.133598
0.131638
0.127766
0.121867
0.112883
0.101425
0.083548
0.065448
0.0288418
0.0115727
-0.067551
0.00285454
0.10091
0.11243
0.115202
0.121555
0.124439
0.127647
0.129142
0.129834
0.129031