/*--------------------------------*- C++ -*----------------------------------*\
  =========                 |
  \\      /  F ield         | OpenFOAM: The Open Source CFD Toolbox
   \\    /   O peration     | Website:  https://openfoam.org
    \\  /    A nd           | Version:  7
     \\/     M anipulation  |
\*---------------------------------------------------------------------------*/
FoamFile
{
    version     2.0;
    format      ascii;
    class       surfaceScalarField;
    location    "6";
    object      phi;
}
// * * * * * * * * * * * * * * * * * * * * * * * * * * * * * * * * * * * * * //

dimensions      [0 3 -1 0 0 0 0];

internalField   nonuniform List<scalar> 
465
(
0.00743363
0.00938798
0.00764074
0.00848879
0.00758178
0.00732077
0.00723903
0.00592526
0.00660734
0.00436334
0.00569259
0.00271823
0.00452085
0.00109624
0.00313413
-0.000378822
0.00160248
-0.0015554
-0.00223215
0.00715489
0.00900238
0.00735202
0.00829166
0.00730917
0.00736363
0.00699598
0.00623845
0.0063989
0.00496041
0.00552171
0.00359542
0.00438914
0.00222881
0.00304909
0.000961225
0.00156353
-6.98318e-05
-0.000668625
0.00656492
0.00869995
0.0067141
0.00814248
0.00666074
0.00741698
0.00636988
0.00652931
0.00582397
0.00550632
0.00502494
0.00439444
0.00399623
0.00325753
0.00277932
0.00217813
0.00142619
0.00128331
0.000757561
0.00585019
0.00848845
0.00594083
0.00805183
0.00586891
0.0074889
0.00560133
0.0067969
0.00511901
0.00598864
0.00442025
0.0050932
0.00352195
0.00415583
0.00245567
0.00324441
0.0012632
0.00247577
0.00202076
0.00512137
0.0083613
0.00515378
0.00801942
0.00505873
0.00758395
0.00480835
0.00704728
0.00438496
0.00641203
0.00378469
0.00569347
0.00301834
0.00492218
0.00210809
0.00415467
0.00108602
0.00349783
0.00310679
0.00444583
0.00830365
0.00442993
0.00803532
0.00431609
0.00769779
0.00408236
0.00728101
0.00371336
0.00678103
0.00320345
0.00620338
0.00255757
0.00556806
0.00178957
0.00492267
0.000923417
0.00436399
0.00403021
0.0038525
0.00829982
0.00379971
0.00808811
0.00367257
0.00782493
0.00345426
0.00749932
0.00313182
0.00710347
0.00269863
0.00663657
0.00215545
0.00611125
0.00151
0.00556811
0.000780018
0.00509397
0.00481022
0.00334972
0.00833529
0.0032711
0.00816673
0.00313645
0.00795958
0.00293296
0.00770281
0.00264973
0.0073867
0.00227978
0.00700652
0.00182101
0.00657001
0.00127682
0.00611231
0.000660124
0.00571066
0.00547035
0.00293338
0.0083981
0.0028379
0.00826222
0.00270022
0.00809726
0.00251042
0.00789261
0.00225942
0.00763771
0.00194034
0.0073256
0.00154934
0.00696101
0.00108683
0.00657482
0.000562199
0.00623529
0.00603255
0.00259341
0.0084792
0.00248754
0.00836809
0.00234974
0.00823505
0.00217227
0.00807008
0.00194757
0.00786241
0.00166912
0.00760404
0.001332
0.00729814
0.000934518
0.0069723
0.00048355
0.00668626
0.0065161
0.00231745
0.00857227
0.00220554
0.00848
0.00206934
0.00837126
0.00190281
0.00823661
0.00169966
0.00806555
0.00145371
0.00784999
0.00115924
0.00759261
0.000813228
0.00731831
0.000420803
0.00707868
0.0069369
0.00209279
0.008673
0.00197768
0.00859511
0.0018441
0.00850484
0.00168733
0.00839338
0.00150203
0.00825085
0.00128218
0.00806985
0.00102152
0.00785326
0.000716302
0.00762353
0.000370544
0.00742444
0.00730744
0.00190718
0.00877832
0.00179092
0.00871137
0.00166072
0.00863504
0.00151282
0.00854128
0.00134249
0.00842118
0.00114376
0.00826858
0.000910133
0.00808689
0.000637612
0.00789605
0.000329612
0.00773244
0.00763706
0.00174944
0.00888574
0.00163378
0.00882703
0.00150768
0.00876114
0.00136806
0.0086809
0.0012105
0.00857873
0.00102912
0.00844996
0.000817498
0.00829851
0.000571848
0.0081417
0.000295278
0.00800901
0.00793233
0.00160998
0.00899296
0.00149658
0.00894043
0.00137538
0.00888234
0.00124367
0.00881261
0.00109729
0.00872511
0.000930543
0.00861672
0.000737446
0.00849161
0.000514728
0.00836442
0.000265356
0.00825838
0.00819769
0.00148127
0.0090978
0.00137174
0.00904996
0.00125625
0.00899784
0.00113234
0.00893652
0.000996068
0.00886138
0.000842166
0.00877062
0.000665376
0.0086684
0.000463121
0.00856667
0.000238267
0.00848324
0.00843596
0.00135819
0.00919831
0.00125397
0.00915418
0.00114494
0.00910686
0.00102886
0.0090526
0.00090211
0.00898813
0.000760036
0.00891269
0.000598291
0.00883014
0.000415044
0.00874992
0.00021303
0.00868525
0.00864899
0.00123794
0.00929287
0.00114019
0.00925193
0.00103829
0.00920877
0.000930182
0.0091607
0.00081271
0.00910561
0.00068199
0.00904341
0.000534642
0.00897749
0.000369525
0.00891504
0.000189181
0.0088656
0.00883817
0.00111976
0.00938033
0.00102931
0.00934238
0.000934996
0.00930308
0.000835054
0.00926064
0.000726844
0.00921382
0.000607315
0.00916294
0.000474007
0.0091108
0.000326352
0.00906269
0.000166636
0.00902531
0.0090048
0.00100431
0.00946003
0.000921621
0.00942506
0.000835195
0.00938951
0.000743571
0.00935227
0.000644683
0.0093127
0.000536273
0.00927135
0.000416685
0.00923039
0.000285776
0.0091936
0.000145534
0.00916555
0.00915034
0.000893061
0.00953176
0.000818285
0.00949984
0.000739839
0.00946795
0.000656596
0.00943551
0.000567039
0.00940226
0.000469609
0.00936878
0.000363289
0.00933671
0.000248225
0.00930866
0.000126093
0.00928769
0.00927643
0.000787723
0.00959564
0.000720739
0.00956682
0.000650183
0.00953851
0.000575247
0.00951044
0.000494897
0.00948261
0.000408139
0.00945554
0.000314436
0.00943041
0.000214099
0.009409
0.000108506
0.00939328
0.00938494
0.000689803
0.00965207
0.000630291
0.00962634
0.00056737
0.00960143
0.000500512
0.0095773
0.000429071
0.00955405
0.000352485
0.00953212
0.000270542
0.00951235
0.000183636
0.00949591
9.28738e-05
0.00948404
0.00947781
0.000600366
0.00970157
0.000547869
0.00967883
0.000492191
0.00965711
0.000433029
0.00963646
0.000370033
0.00961705
0.00030294
0.00959922
0.000231751
0.00958354
0.000156877
0.00957078
7.91982e-05
0.00956172
0.00955701
0.000519957
0.000473927
0.000424995
0.000373024
0.000317869
0.000259467
0.00019794
0.000133682
6.73867e-05
)
;

boundaryField
{
    inlet
    {
        type            calculated;
        value           nonuniform 0();
    }
    outlet
    {
        type            calculated;
        value           nonuniform 0();
    }
    polygon
    {
        type            calculated;
        value           nonuniform 0();
    }
    top
    {
        type            symmetryPlane;
        value           uniform 0;
    }
    bottom
    {
        type            symmetryPlane;
        value           uniform 0;
    }
    outside
    {
        type            calculated;
        value           nonuniform 0();
    }
    procBoundary10to6
    {
        type            processor;
        value           nonuniform List<scalar> 
25
(
1.03661e-13
9.5175e-14
9.17726e-14
9.25716e-14
9.50882e-14
1.01159e-13
1.11709e-13
1.24168e-13
1.39892e-13
1.55859e-13
1.65231e-13
1.65475e-13
1.56174e-13
1.47318e-13
1.31129e-13
3.28319e-14
-1.26833e-13
-2.24367e-13
-3.93396e-13
-6.14219e-13
-8.883e-13
-1.31962e-12
-1.71459e-12
-2.02002e-12
-2.10135e-12
)
;
    }
    procBoundary10to9
    {
        type            processor;
        value           nonuniform List<scalar> 10(-0.00981917 -0.00869591 -0.00726181 -0.00558251 -0.00373164 -0.00180348 7.54906e-05 0.00176555 0.00308705 0.00383463);
    }
    procBoundary10to11
    {
        type            processor;
        value           nonuniform List<scalar> 10(0.00974478 0.00972486 0.00970604 0.00968843 0.0096722 0.00965762 0.00964507 0.00963504 0.00962802 0.0096244);
    }
    procBoundary10to14
    {
        type            processor;
        value           nonuniform List<scalar> 
25
(
-0.00700244
-0.00676929
-0.00626248
-0.0056387
-0.00499422
-0.00438818
-0.00384866
-0.00338519
-0.00299619
-0.00267451
-0.00241052
-0.00219352
-0.0020125
-0.00185686
-0.00171719
-0.00158612
-0.0014587
-0.0013325
-0.00120722
-0.00108401
-0.000964786
-0.000851606
-0.000746227
-0.000649873
-0.000563168
)
;
    }
}


// ************************************************************************* //
