/*--------------------------------*- C++ -*----------------------------------*\
  =========                 |
  \\      /  F ield         | OpenFOAM: The Open Source CFD Toolbox
   \\    /   O peration     | Website:  https://openfoam.org
    \\  /    A nd           | Version:  7
     \\/     M anipulation  |
\*---------------------------------------------------------------------------*/
FoamFile
{
    version     2.0;
    format      ascii;
    class       volScalarField;
    location    "15";
    object      p;
}
// * * * * * * * * * * * * * * * * * * * * * * * * * * * * * * * * * * * * * //

dimensions      [0 2 -2 0 0 0 0];

internalField   nonuniform List<scalar> 
75
(
-0.219739
-0.235284
-0.219223
-0.234686
-0.218266
-0.234242
-0.217403
-0.233898
-0.21655
-0.233586
-0.215693
-0.23331
-0.214909
-0.233069
-0.213993
-0.232859
-0.213526
-0.232688
-0.212362
-0.23252
-0.302789
-0.377469
-0.450149
-0.939586
-0.302015
-0.379104
-0.445272
-0.794762
-0.306466
-0.386138
-0.465499
-0.679216
-0.311156
-0.390698
-0.479796
-0.634436
-0.313942
-0.39175
-0.485224
-0.604336
-0.31514
-0.390947
-0.487465
-0.582291
-0.315193
-0.388655
-0.488146
-0.569638
-0.314356
-0.385426
-0.487436
-0.563709
-0.312258
-0.38051
-0.482832
-0.561479
-0.309746
-0.376565
-0.479857
-0.566319
-0.100381
-0.197787
-0.237221
-0.103435
-0.20294
-0.239799
-0.106609
-0.217315
-0.243572
-0.107907
-0.21623
-0.231248
-0.10918
-0.226927
-0.234462
)
;

boundaryField
{
    inlet
    {
        type            zeroGradient;
    }
    outlet
    {
        type            fixedValue;
        value           nonuniform 0();
    }
    polygon
    {
        type            zeroGradient;
    }
    top
    {
        type            symmetryPlane;
    }
    bottom
    {
        type            symmetryPlane;
    }
    outside
    {
        type            slip;
    }
    procBoundary10to6
    {
        type            processor;
        value           nonuniform List<scalar> 2(-0.212362 -0.23252);
    }
    procBoundary10to9
    {
        type            processor;
        value           nonuniform List<scalar> 4(-0.30589 -0.379868 -0.469658 -0.834008);
    }
    procBoundary10to11
    {
        type            processor;
        value           nonuniform List<scalar> 
11
(
-0.108038
-0.108038
-0.107086
-0.106219
-0.105348
-0.104463
-0.103582
-0.102714
-0.101836
-0.101086
-0.100027
)
;
    }
    procBoundary10to14
    {
        type            processor;
        value           nonuniform List<scalar> 
14
(
-0.263583
-0.264452
-0.268064
-0.271726
-0.274158
-0.275467
-0.275935
-0.275704
-0.274709
-0.27334
-0.27334
-0.0959162
-0.184372
-0.230458
)
;
    }
    procBoundary10to15
    {
        type            processor;
        value           nonuniform List<scalar> 5(-0.0533416 -0.0538464 -0.0541671 -0.0539379 -0.0538397);
    }
}


// ************************************************************************* //
