/*--------------------------------*- C++ -*----------------------------------*\
  =========                 |
  \\      /  F ield         | OpenFOAM: The Open Source CFD Toolbox
   \\    /   O peration     | Website:  https://openfoam.org
    \\  /    A nd           | Version:  10
     \\/     M anipulation  |
\*---------------------------------------------------------------------------*/
FoamFile
{
    format      ascii;
    class       volScalarField;
    location    "5";
    object      p;
}
// * * * * * * * * * * * * * * * * * * * * * * * * * * * * * * * * * * * * * //

dimensions      [0 2 -2 0 0 0 0];

internalField   nonuniform List<scalar> 
3600
(
0.00334192
0.0103557
0.0147433
0.0321603
0.0132915
0.0732803
-0.00678214
0.125054
-0.0711743
0.122468
0.00334117
0.0103561
0.014738
0.0321659
0.0132787
0.073303
-0.00679497
0.125108
-0.0710638
0.122543
0.00334058
0.0103567
0.0147339
0.0321705
0.0132704
0.0733219
-0.00679723
0.125154
-0.0709573
0.122673
0.00334004
0.0103571
0.0147302
0.0321747
0.0132623
0.0733395
-0.00680069
0.125197
-0.0708628
0.12278
0.00333952
0.0103573
0.0147265
0.0321785
0.0132537
0.0733559
-0.00680722
0.125238
-0.0707829
0.122854
0.00333904
0.0103574
0.014723
0.0321818
0.013245
0.0733708
-0.00681593
0.125277
-0.0707172
0.122903
0.00333859
0.0103573
0.0147196
0.0321847
0.013236
0.0733844
-0.00682661
0.125314
-0.0706658
0.122928
0.00333818
0.0103571
0.0147164
0.0321871
0.0132267
0.0733968
-0.00683984
0.125349
-0.0706288
0.122926
0.0033378
0.0103567
0.0147134
0.0321891
0.0132173
0.0734076
-0.00685496
0.125381
-0.0706065
0.122898
0.00333758
0.0103565
0.0147116
0.0321901
0.0132116
0.0734132
-0.00686526
0.125398
-0.0705974
0.122867
0.0033554
0.0103541
0.0148421
0.0320683
0.0135434
0.0728676
-0.00650308
0.123948
-0.0728299
0.121669
0.00335377
0.0103546
0.0148303
0.0320797
0.0135134
0.0729157
-0.00653905
0.124074
-0.0726375
0.121738
0.00335229
0.0103551
0.0148196
0.0320902
0.0134883
0.0729622
-0.00655924
0.124201
-0.0724302
0.121914
0.00335084
0.0103556
0.0148092
0.0321005
0.0134632
0.0730081
-0.00658035
0.124325
-0.07223
0.122069
0.00334941
0.0103559
0.0147988
0.0321104
0.0134376
0.0730528
-0.00660494
0.124446
-0.0720434
0.122192
0.00334801
0.010356
0.0147886
0.0321199
0.0134118
0.0730961
-0.00663167
0.124564
-0.0718691
0.122295
0.00334665
0.010356
0.0147785
0.032129
0.0133858
0.0731382
-0.00666005
0.12468
-0.0717058
0.122381
0.0033453
0.0103558
0.0147685
0.0321377
0.0133593
0.0731794
-0.0066905
0.124794
-0.0715538
0.122451
0.00334399
0.0103556
0.0147587
0.032146
0.0133326
0.0732188
-0.00672361
0.124904
-0.0714157
0.122498
0.00334285
0.0103554
0.0147501
0.0321533
0.0133089
0.0732517
-0.0067569
0.124991
-0.0712957
0.122501
0.00337666
0.0103547
0.0149996
0.0319272
0.0139543
0.0722182
-0.00601017
0.122058
-0.0751823
0.121302
0.00337433
0.0103549
0.0149823
0.0319427
0.0139086
0.0722862
-0.00607088
0.122259
-0.0749478
0.121292
0.00337211
0.0103551
0.014966
0.0319576
0.0138684
0.0723553
-0.00611026
0.122467
-0.0746689
0.121436
0.00336989
0.0103552
0.0149498
0.0319726
0.0138279
0.072425
-0.00615078
0.122676
-0.074394
0.121551
0.0033677
0.0103552
0.0149336
0.0319873
0.0137867
0.0724936
-0.00619527
0.122879
-0.0741351
0.121632
0.00336552
0.0103551
0.0149176
0.0320016
0.0137453
0.0725609
-0.00624171
0.123078
-0.0738882
0.121699
0.00336338
0.0103549
0.0149016
0.0320157
0.0137037
0.0726272
-0.00628925
0.123274
-0.0736504
0.121758
0.00336124
0.0103546
0.0148857
0.0320294
0.0136617
0.0726931
-0.00633804
0.123469
-0.0734204
0.121812
0.00335912
0.0103541
0.0148698
0.0320426
0.0136188
0.0727571
-0.00639062
0.123659
-0.0732051
0.121852
0.00335716
0.0103538
0.014855
0.0320551
0.0135777
0.0728133
-0.00645031
0.123817
-0.0730225
0.121805
0.00340396
0.0103611
0.0152051
0.0317494
0.0145008
0.0713602
-0.00533174
0.11928
-0.0783812
0.123097
0.00340136
0.0103624
0.0151848
0.0317734
0.0144579
0.0714676
-0.00534023
0.119622
-0.0775057
0.121672
0.00339821
0.0103608
0.0151614
0.0317921
0.0143944
0.0715667
-0.00542108
0.119964
-0.0772395
0.121926
0.00339534
0.0103598
0.0151402
0.0318092
0.0143373
0.0716526
-0.00549468
0.120253
-0.077004
0.122111
0.0033926
0.0103591
0.0151197
0.0318264
0.0142833
0.0717366
-0.00556013
0.120531
-0.0767086
0.12206
0.00338987
0.0103584
0.0150992
0.0318436
0.0142289
0.0718209
-0.0056264
0.120807
-0.076411
0.12198
0.00338714
0.0103576
0.0150787
0.0318606
0.014174
0.071905
-0.00569441
0.121082
-0.0761281
0.121922
0.00338441
0.0103566
0.0150582
0.0318774
0.0141186
0.071989
-0.00576291
0.121355
-0.0758514
0.121878
0.00338167
0.0103555
0.0150374
0.0318937
0.0140615
0.0720712
-0.00583665
0.121624
-0.075591
0.121825
0.00337907
0.0103546
0.0150176
0.0319093
0.0140041
0.0721441
-0.00592649
0.121855
-0.0753939
0.121639
-0.0138761
-0.044852
-0.0449218
-0.0930473
-0.0954659
-0.18592
-0.197575
-0.390906
-0.490703
-0.929555
-0.0140316
-0.0447249
-0.0448453
-0.0925309
-0.0951848
-0.18476
-0.197133
-0.388961
-0.49379
-0.921258
-0.0141956
-0.0446018
-0.0448142
-0.0920461
-0.0950292
-0.183742
-0.197099
-0.38768
-0.497296
-0.910791
-0.0143541
-0.0444682
-0.0447629
-0.0915291
-0.0948154
-0.182638
-0.196887
-0.386225
-0.500363
-0.903951
-0.014507
-0.044323
-0.0446849
-0.0909736
-0.0945256
-0.181423
-0.196441
-0.384488
-0.502846
-0.899318
-0.0146562
-0.0441679
-0.0445877
-0.0903873
-0.0941829
-0.180124
-0.195843
-0.382587
-0.504939
-0.895545
-0.0148023
-0.0440035
-0.0444743
-0.089773
-0.0937951
-0.178751
-0.195118
-0.380563
-0.506737
-0.892515
-0.01495
-0.0438355
-0.044351
-0.0891389
-0.093374
-0.177318
-0.194287
-0.378452
-0.508384
-0.890742
-0.0151063
-0.0436697
-0.0442293
-0.0884967
-0.0929476
-0.175859
-0.193431
-0.376421
-0.510376
-0.891131
-0.0152048
-0.0434226
-0.0440141
-0.0877173
-0.0923156
-0.174102
-0.192071
-0.373605
-0.510724
-0.88912
-0.0122774
-0.0456909
-0.0456273
-0.097586
-0.0985078
-0.196444
-0.202087
-0.413448
-0.468548
-1.00054
-0.0124323
-0.0456537
-0.0455849
-0.0972479
-0.0982665
-0.195634
-0.201785
-0.411531
-0.471209
-0.988255
-0.0126017
-0.0456184
-0.0455918
-0.096935
-0.0981669
-0.194941
-0.201943
-0.410145
-0.474788
-0.972529
-0.0127701
-0.0455702
-0.0455833
-0.0965865
-0.0980273
-0.194165
-0.201988
-0.40857
-0.478018
-0.960487
-0.0129347
-0.0455073
-0.045548
-0.0961925
-0.097814
-0.193267
-0.201812
-0.406663
-0.480579
-0.951225
-0.0130973
-0.0454312
-0.0454925
-0.0957596
-0.0975458
-0.192272
-0.201475
-0.404513
-0.482657
-0.943243
-0.0132586
-0.0453429
-0.0454203
-0.0952912
-0.0972327
-0.191189
-0.201011
-0.40217
-0.4844
-0.936272
-0.0134189
-0.0452425
-0.0453317
-0.0947878
-0.0968749
-0.19002
-0.200416
-0.399635
-0.485817
-0.9303
-0.0135783
-0.0451311
-0.045228
-0.094251
-0.0964737
-0.188768
-0.199695
-0.396898
-0.486809
-0.924903
-0.0137358
-0.0450058
-0.0451038
-0.0936755
-0.0960228
-0.187414
-0.198816
-0.393918
-0.487574
-0.921686
-0.0107051
-0.0453401
-0.0457756
-0.0995141
-0.10067
-0.201443
-0.204604
-0.426489
-0.449138
-1.0689
-0.0108566
-0.0454311
-0.0457872
-0.0994547
-0.100492
-0.201244
-0.204347
-0.425944
-0.451009
-1.05794
-0.0110222
-0.0455248
-0.0458479
-0.0994232
-0.100464
-0.201154
-0.204592
-0.425814
-0.454224
-1.04208
-0.0111876
-0.0456039
-0.0458969
-0.0993544
-0.100411
-0.200975
-0.204795
-0.425429
-0.457325
-1.02973
-0.0113496
-0.0456651
-0.0459194
-0.0992341
-0.100289
-0.200661
-0.20481
-0.424632
-0.459818
-1.02055
-0.0115096
-0.0457101
-0.0459207
-0.0990682
-0.100113
-0.20023
-0.204682
-0.423499
-0.461828
-1.01293
-0.0116684
-0.0457401
-0.0459046
-0.0988608
-0.0998935
-0.199695
-0.204444
-0.422082
-0.463496
-1.00639
-0.0118263
-0.0457553
-0.0458717
-0.0986125
-0.0996307
-0.199059
-0.204097
-0.420387
-0.464847
-1.00094
-0.0119837
-0.0457565
-0.0458235
-0.098325
-0.0993281
-0.198325
-0.20365
-0.418421
-0.465839
-0.996458
-0.0121398
-0.045742
-0.0457575
-0.0979959
-0.0989855
-0.197488
-0.203095
-0.416175
-0.466674
-0.994305
-0.00915869
-0.04358
-0.0451582
-0.0983215
-0.101739
-0.199253
-0.206499
-0.419311
-0.434921
-1.08029
-0.00931284
-0.043815
-0.0452566
-0.0985576
-0.101683
-0.199774
-0.206237
-0.421072
-0.435868
-1.07614
-0.00947791
-0.0440569
-0.0453929
-0.0988524
-0.101746
-0.200434
-0.206453
-0.423208
-0.438315
-1.0659
-0.00964195
-0.0442828
-0.0455185
-0.099108
-0.101794
-0.201005
-0.206664
-0.425035
-0.440868
-1.05895
-0.0098019
-0.0444884
-0.0456188
-0.0993057
-0.101782
-0.20143
-0.206718
-0.42639
-0.442951
-1.05536
-0.00995887
-0.0446759
-0.0456971
-0.0994553
-0.101717
-0.201729
-0.206645
-0.427341
-0.444608
-1.05348
-0.0101138
-0.0448466
-0.0457567
-0.0995623
-0.101607
-0.201918
-0.206477
-0.42794
-0.445952
-1.05274
-0.0102671
-0.045001
-0.0457984
-0.0996271
-0.101455
-0.201996
-0.20622
-0.428194
-0.447002
-1.05315
-0.0104193
-0.0451396
-0.0458242
-0.0996508
-0.101266
-0.201967
-0.205887
-0.428109
-0.447743
-1.05473
-0.01057
-0.0452606
-0.0458334
-0.0996316
-0.101043
-0.20183
-0.205482
-0.427679
-0.448368
-1.05872
-0.00751446
-0.0404352
-0.0434842
-0.0945837
-0.100728
-0.19114
-0.206592
-0.389515
-0.422425
-0.990902
-0.00768863
-0.0408121
-0.0436836
-0.095093
-0.100842
-0.192261
-0.206507
-0.393649
-0.42311
-0.997415
-0.00786879
-0.0411957
-0.0439274
-0.0956359
-0.101105
-0.193495
-0.206897
-0.398067
-0.425285
-0.997191
-0.00804574
-0.0415627
-0.044158
-0.0961468
-0.101345
-0.194653
-0.207264
-0.402205
-0.42754
-1.00037
-0.00821713
-0.0419084
-0.0443613
-0.0966073
-0.101519
-0.195675
-0.207485
-0.405876
-0.429392
-1.00697
-0.00838392
-0.0422351
-0.0445424
-0.0970212
-0.101644
-0.196553
-0.20766
-0.40908
-0.430902
-1.01526
-0.00854696
-0.0425442
-0.0447053
-0.0973918
-0.101736
-0.197293
-0.207758
-0.41191
-0.432169
-1.02463
-0.00870663
-0.042836
-0.0448509
-0.097719
-0.10183
-0.197912
-0.207705
-0.414285
-0.43331
-1.03516
-0.00886361
-0.043111
-0.0449813
-0.0980015
-0.101871
-0.198481
-0.207522
-0.41638
-0.434176
-1.04696
-0.00901803
-0.0433667
-0.0450983
-0.0982161
-0.101881
-0.198986
-0.207247
-0.418222
-0.434884
-1.06113
-0.00560132
-0.036096
-0.0408965
-0.0884361
-0.0985375
-0.177909
-0.204826
-0.338946
-0.406865
-0.774103
-0.00581246
-0.0365853
-0.0412056
-0.0891208
-0.0988631
-0.179312
-0.20529
-0.344449
-0.409086
-0.792466
-0.00602543
-0.0370806
-0.0415549
-0.0898573
-0.0993021
-0.1809
-0.206042
-0.35043
-0.412108
-0.804568
-0.00623269
-0.037561
-0.0418842
-0.0905694
-0.0996977
-0.182449
-0.206687
-0.356276
-0.414987
-0.820633
-0.00643275
-0.0380224
-0.0421826
-0.0912408
-0.100017
-0.183904
-0.207134
-0.361814
-0.417431
-0.840108
-0.00662657
-0.0384668
-0.0424566
-0.0918782
-0.100277
-0.185285
-0.207421
-0.367086
-0.41945
-0.861081
-0.00681485
-0.0388954
-0.0427099
-0.0924859
-0.100486
-0.186603
-0.207576
-0.372127
-0.421053
-0.883106
-0.00699791
-0.0393083
-0.0429429
-0.093064
-0.100645
-0.187858
-0.2076
-0.376932
-0.422207
-0.906422
-0.00717644
-0.0397063
-0.0431573
-0.0936136
-0.100758
-0.18905
-0.207504
-0.381496
-0.422886
-0.931274
-0.00735084
-0.0400867
-0.0433522
-0.0941335
-0.100824
-0.19018
-0.207286
-0.385798
-0.42313
-0.958793
-0.00331223
-0.0309554
-0.0375613
-0.0814627
-0.0944694
-0.164583
-0.196136
-0.284322
-0.362152
-0.44214
-0.00356176
-0.0315196
-0.0379451
-0.0822037
-0.0949829
-0.165916
-0.19743
-0.289757
-0.368503
-0.469954
-0.00381432
-0.0320918
-0.0383639
-0.0830054
-0.0956025
-0.16745
-0.198908
-0.295731
-0.374762
-0.493047
-0.00405918
-0.0326485
-0.03876
-0.0837818
-0.0961688
-0.168943
-0.200244
-0.301654
-0.38077
-0.521103
-0.00429601
-0.0331864
-0.0391276
-0.0845213
-0.0966623
-0.17036
-0.201382
-0.30739
-0.386364
-0.552409
-0.00452887
-0.033706
-0.0394739
-0.085234
-0.0971024
-0.171727
-0.202359
-0.312993
-0.391433
-0.584874
-0.00476073
-0.0342065
-0.0398019
-0.0859247
-0.0974974
-0.173058
-0.20319
-0.318487
-0.395913
-0.618343
-0.00498303
-0.0346967
-0.0401115
-0.0865931
-0.0978465
-0.174352
-0.203875
-0.323863
-0.399769
-0.653227
-0.00519621
-0.0351772
-0.0404038
-0.0872402
-0.0981513
-0.175609
-0.204417
-0.329114
-0.402969
-0.68981
-0.00540229
-0.0356438
-0.0406759
-0.0878621
-0.0984085
-0.176821
-0.204804
-0.334181
-0.405437
-0.729235
-0.000570903
-0.0249871
-0.0334242
-0.0738965
-0.0890413
-0.152485
-0.180211
-0.235221
-0.256763
-0.0439623
-0.00124935
-0.0262917
-0.034685
-0.0759676
-0.0910897
-0.155664
-0.184253
-0.24118
-0.270632
-0.0648415
-0.00147996
-0.0268384
-0.0349465
-0.0765126
-0.0912375
-0.156298
-0.185388
-0.245632
-0.285453
-0.102475
-0.00166982
-0.0272902
-0.03518
-0.0769691
-0.0914603
-0.157025
-0.186672
-0.250536
-0.298044
-0.140944
-0.00190899
-0.0278197
-0.0355452
-0.0776259
-0.0919805
-0.158177
-0.188395
-0.255705
-0.309286
-0.17785
-0.0021625
-0.0283754
-0.0359382
-0.0783359
-0.092538
-0.159396
-0.190093
-0.260774
-0.319976
-0.215759
-0.00240722
-0.0289172
-0.0363054
-0.0790131
-0.0930256
-0.160533
-0.191599
-0.265696
-0.330117
-0.255721
-0.00264205
-0.0294416
-0.0366479
-0.0796575
-0.0934566
-0.16161
-0.192947
-0.270522
-0.33951
-0.297549
-0.00287051
-0.0299543
-0.036975
-0.0802835
-0.093853
-0.162659
-0.194174
-0.275267
-0.348036
-0.341173
-0.00309244
-0.0304535
-0.0372844
-0.0808863
-0.0942066
-0.163663
-0.195248
-0.279812
-0.355492
-0.387835
0.121993
0.116352
0.126719
0.114014
0.137612
0.115981
0.170344
0.134084
0.30865
0.183023
0.121985
0.116353
0.126702
0.114037
0.137569
0.116051
0.170153
0.134287
0.307122
0.176075
0.121976
0.116354
0.126683
0.114062
0.137521
0.116129
0.169957
0.134528
0.305485
0.169862
0.121967
0.116355
0.126665
0.114086
0.137473
0.116205
0.16976
0.134748
0.303822
0.16351
0.121958
0.116355
0.126647
0.114109
0.137425
0.116277
0.169559
0.13494
0.302092
0.156899
0.121949
0.116355
0.126628
0.114132
0.137376
0.116345
0.169351
0.135107
0.300266
0.150136
0.12194
0.116355
0.12661
0.114155
0.137328
0.116409
0.169139
0.135248
0.298371
0.143253
0.121931
0.116354
0.126592
0.114176
0.137281
0.116477
0.168933
0.135409
0.296549
0.136265
0.12192
0.116354
0.126573
0.114202
0.137232
0.116563
0.168734
0.13565
0.294735
0.129182
0.121911
0.116354
0.126548
0.114231
0.137161
0.11662
0.168451
0.135627
0.291626
0.12175
0.122068
0.116349
0.126872
0.113841
0.138046
0.115424
0.172247
0.132681
0.322489
0.246616
0.122062
0.11635
0.126858
0.113857
0.138008
0.115479
0.172082
0.132841
0.321394
0.240856
0.122055
0.116352
0.126843
0.113877
0.137966
0.115543
0.171908
0.133044
0.320211
0.235432
0.122049
0.116352
0.126828
0.113895
0.137924
0.115605
0.171729
0.133229
0.31897
0.229832
0.122042
0.116353
0.126813
0.113914
0.13788
0.115663
0.171543
0.133389
0.317651
0.223964
0.122035
0.116353
0.126798
0.113931
0.137836
0.115719
0.171351
0.133532
0.316249
0.21787
0.122027
0.116353
0.126782
0.113949
0.13779
0.115773
0.171151
0.133657
0.314766
0.211577
0.12202
0.116352
0.126766
0.113966
0.137743
0.115824
0.170942
0.13376
0.31318
0.205132
0.122012
0.116351
0.12675
0.113983
0.137695
0.115872
0.170723
0.133835
0.311456
0.198553
0.122004
0.11635
0.126733
0.114
0.137648
0.11592
0.170507
0.133914
0.30975
0.19132
0.122116
0.116346
0.126977
0.113729
0.138359
0.115048
0.173629
0.131782
0.331249
0.291168
0.122112
0.116347
0.126968
0.113739
0.138336
0.115083
0.173529
0.131888
0.330678
0.287774
0.122108
0.116348
0.126959
0.113752
0.138309
0.115127
0.173419
0.132035
0.330049
0.284365
0.122104
0.116349
0.126949
0.113764
0.13828
0.115169
0.1733
0.132166
0.329345
0.280715
0.1221
0.116349
0.126939
0.113775
0.138251
0.115208
0.173171
0.132274
0.328556
0.276779
0.122096
0.11635
0.126928
0.113787
0.138219
0.115245
0.173033
0.132365
0.327681
0.27257
0.122091
0.11635
0.126918
0.113798
0.138186
0.115281
0.172886
0.132438
0.32672
0.268103
0.122086
0.116349
0.126907
0.113808
0.138151
0.115314
0.172728
0.132491
0.325658
0.263407
0.122081
0.116349
0.126895
0.113819
0.138114
0.115345
0.172559
0.132523
0.324481
0.258477
0.122075
0.116349
0.126883
0.11383
0.138077
0.115379
0.172389
0.13257
0.323311
0.252969
0.122133
0.116344
0.127016
0.113689
0.13848
0.114906
0.174162
0.131456
0.334352
0.308207
0.122133
0.116345
0.127014
0.113692
0.138477
0.114918
0.174154
0.131518
0.334363
0.307858
0.122132
0.116345
0.127012
0.113697
0.138472
0.114936
0.174137
0.131603
0.334328
0.30723
0.122131
0.116346
0.127009
0.113701
0.138464
0.114953
0.17411
0.131671
0.334206
0.306318
0.122129
0.116347
0.127006
0.113706
0.138455
0.114968
0.17407
0.131718
0.333996
0.305114
0.122128
0.116347
0.127002
0.113709
0.138443
0.114981
0.17402
0.131749
0.3337
0.303615
0.122126
0.116347
0.126998
0.113713
0.13843
0.114993
0.173959
0.131762
0.333318
0.301827
0.122124
0.116346
0.126993
0.113716
0.138414
0.115002
0.173886
0.131754
0.332841
0.299763
0.122122
0.116346
0.126988
0.113719
0.138397
0.11501
0.173801
0.131729
0.332265
0.297415
0.122119
0.116345
0.126983
0.113724
0.138378
0.115024
0.173712
0.13173
0.331682
0.294607
0.122119
0.116345
0.126983
0.113724
0.138378
0.115024
0.173712
0.13173
0.331682
0.294607
0.122122
0.116346
0.126988
0.113719
0.138397
0.11501
0.173801
0.131729
0.332265
0.297415
0.122124
0.116346
0.126993
0.113716
0.138414
0.115002
0.173886
0.131754
0.332841
0.299763
0.122126
0.116347
0.126998
0.113713
0.13843
0.114993
0.173959
0.131762
0.333318
0.301827
0.122128
0.116347
0.127002
0.113709
0.138443
0.114981
0.17402
0.131749
0.3337
0.303615
0.122129
0.116347
0.127006
0.113706
0.138455
0.114968
0.17407
0.131718
0.333996
0.305114
0.122131
0.116346
0.127009
0.113701
0.138464
0.114953
0.17411
0.131671
0.334206
0.306318
0.122132
0.116345
0.127012
0.113697
0.138472
0.114936
0.174137
0.131603
0.334328
0.30723
0.122133
0.116345
0.127014
0.113692
0.138477
0.114918
0.174154
0.131518
0.334363
0.307858
0.122133
0.116344
0.127016
0.113689
0.13848
0.114906
0.174162
0.131456
0.334352
0.308207
0.122075
0.116349
0.126883
0.11383
0.138077
0.115379
0.172389
0.13257
0.323311
0.252969
0.122081
0.116349
0.126895
0.113819
0.138114
0.115345
0.172559
0.132523
0.324481
0.258477
0.122086
0.116349
0.126907
0.113808
0.138151
0.115314
0.172728
0.132491
0.325658
0.263407
0.122091
0.11635
0.126918
0.113798
0.138186
0.115281
0.172886
0.132438
0.32672
0.268103
0.122096
0.11635
0.126928
0.113787
0.138219
0.115245
0.173033
0.132365
0.327681
0.27257
0.1221
0.116349
0.126939
0.113775
0.138251
0.115208
0.173171
0.132274
0.328556
0.276779
0.122104
0.116349
0.126949
0.113764
0.13828
0.115169
0.1733
0.132166
0.329345
0.280715
0.122108
0.116348
0.126959
0.113752
0.138309
0.115127
0.173419
0.132035
0.330049
0.284365
0.122112
0.116347
0.126968
0.113739
0.138336
0.115083
0.173529
0.131888
0.330678
0.287774
0.122116
0.116346
0.126977
0.113729
0.138359
0.115048
0.173629
0.131783
0.331249
0.291168
0.122004
0.11635
0.126733
0.114
0.137648
0.11592
0.170507
0.133914
0.30975
0.19132
0.122012
0.116351
0.12675
0.113983
0.137695
0.115872
0.170723
0.133835
0.311456
0.198553
0.12202
0.116352
0.126766
0.113966
0.137743
0.115824
0.170942
0.13376
0.31318
0.205132
0.122027
0.116353
0.126782
0.113949
0.13779
0.115773
0.171151
0.133657
0.314766
0.211577
0.122035
0.116353
0.126798
0.113931
0.137836
0.115719
0.171351
0.133532
0.316249
0.21787
0.122042
0.116353
0.126813
0.113914
0.13788
0.115663
0.171543
0.133389
0.317651
0.223964
0.122049
0.116352
0.126828
0.113895
0.137924
0.115605
0.171729
0.133229
0.31897
0.229832
0.122055
0.116352
0.126843
0.113877
0.137966
0.115543
0.171908
0.133044
0.320211
0.235432
0.122062
0.11635
0.126858
0.113857
0.138008
0.115479
0.172082
0.132841
0.321394
0.240856
0.122068
0.116349
0.126872
0.113841
0.138046
0.115424
0.172247
0.132681
0.322489
0.246616
0.121911
0.116354
0.126548
0.114231
0.137161
0.11662
0.168451
0.135627
0.291626
0.12175
0.12192
0.116354
0.126573
0.114202
0.137232
0.116563
0.168734
0.13565
0.294735
0.129182
0.121931
0.116354
0.126592
0.114176
0.137281
0.116477
0.168933
0.135409
0.296549
0.136265
0.12194
0.116355
0.12661
0.114155
0.137328
0.116409
0.169139
0.135248
0.298371
0.143253
0.121949
0.116355
0.126628
0.114132
0.137376
0.116345
0.169351
0.135107
0.300266
0.150136
0.121958
0.116355
0.126647
0.114109
0.137425
0.116277
0.169559
0.13494
0.302092
0.156899
0.121967
0.116355
0.126665
0.114086
0.137473
0.116205
0.16976
0.134748
0.303822
0.16351
0.121976
0.116354
0.126683
0.114062
0.137521
0.116129
0.169957
0.134528
0.305485
0.169862
0.121985
0.116353
0.126702
0.114037
0.137569
0.116051
0.170153
0.134287
0.307122
0.176075
0.121993
0.116352
0.126719
0.114015
0.137612
0.115981
0.170344
0.134084
0.30865
0.183023
-0.00309252
-0.0304536
-0.0372844
-0.0808863
-0.0942066
-0.163663
-0.195248
-0.279812
-0.355492
-0.387835
-0.00287059
-0.0299544
-0.0369751
-0.0802836
-0.093853
-0.162659
-0.194174
-0.275267
-0.348036
-0.341173
-0.00264214
-0.0294417
-0.036648
-0.0796576
-0.0934567
-0.16161
-0.192947
-0.270523
-0.33951
-0.297549
-0.00240731
-0.0289173
-0.0363055
-0.0790132
-0.0930257
-0.160533
-0.191599
-0.265696
-0.330117
-0.255721
-0.00216258
-0.0283755
-0.0359383
-0.0783359
-0.092538
-0.159396
-0.190093
-0.260774
-0.319976
-0.215759
-0.00190907
-0.0278197
-0.0355453
-0.0776259
-0.0919805
-0.158177
-0.188395
-0.255705
-0.309287
-0.17785
-0.00166989
-0.0272903
-0.0351801
-0.0769692
-0.0914604
-0.157025
-0.186672
-0.250536
-0.298044
-0.140944
-0.00148004
-0.0268384
-0.0349465
-0.0765126
-0.0912375
-0.156298
-0.185388
-0.245632
-0.285453
-0.102475
-0.00124943
-0.0262917
-0.034685
-0.0759676
-0.0910898
-0.155664
-0.184253
-0.24118
-0.270632
-0.0648416
-0.000570979
-0.0249872
-0.0334243
-0.0738966
-0.0890413
-0.152486
-0.180211
-0.235221
-0.256763
-0.0439624
-0.00540237
-0.0356439
-0.040676
-0.0878622
-0.0984085
-0.176821
-0.204804
-0.334181
-0.405437
-0.729235
-0.00519629
-0.0351773
-0.0404038
-0.0872403
-0.0981513
-0.175609
-0.204417
-0.329114
-0.402969
-0.68981
-0.00498311
-0.0346968
-0.0401116
-0.0865932
-0.0978465
-0.174352
-0.203875
-0.323863
-0.399769
-0.653227
-0.00476081
-0.0342065
-0.039802
-0.0859247
-0.0974974
-0.173058
-0.20319
-0.318487
-0.395913
-0.618343
-0.00452895
-0.0337061
-0.039474
-0.0852341
-0.0971024
-0.171727
-0.202359
-0.312993
-0.391433
-0.584874
-0.00429609
-0.0331865
-0.0391277
-0.0845213
-0.0966623
-0.17036
-0.201383
-0.30739
-0.386364
-0.552409
-0.00405926
-0.0326485
-0.0387601
-0.0837818
-0.0961688
-0.168943
-0.200244
-0.301654
-0.38077
-0.521103
-0.0038144
-0.0320919
-0.0383639
-0.0830054
-0.0956025
-0.16745
-0.198908
-0.295731
-0.374762
-0.493047
-0.00356185
-0.0315197
-0.0379452
-0.0822037
-0.094983
-0.165916
-0.19743
-0.289757
-0.368503
-0.469955
-0.00331231
-0.0309555
-0.0375614
-0.0814627
-0.0944694
-0.164583
-0.196136
-0.284322
-0.362152
-0.44214
-0.00735089
-0.0400867
-0.0433523
-0.0941335
-0.100824
-0.19018
-0.207286
-0.385798
-0.42313
-0.958793
-0.0071765
-0.0397064
-0.0431574
-0.0936136
-0.100758
-0.18905
-0.207504
-0.381496
-0.422886
-0.931274
-0.00699797
-0.0393084
-0.042943
-0.0930641
-0.100645
-0.187858
-0.2076
-0.376932
-0.422207
-0.906422
-0.00681491
-0.0388954
-0.04271
-0.092486
-0.100486
-0.186603
-0.207576
-0.372127
-0.421053
-0.883106
-0.00662663
-0.0384668
-0.0424567
-0.0918782
-0.100277
-0.185285
-0.207421
-0.367086
-0.41945
-0.861081
-0.00643282
-0.0380224
-0.0421827
-0.0912408
-0.100018
-0.183904
-0.207134
-0.361814
-0.417431
-0.840108
-0.00623275
-0.0375611
-0.0418842
-0.0905695
-0.0996977
-0.182449
-0.206687
-0.356276
-0.414987
-0.820633
-0.0060255
-0.0370807
-0.041555
-0.0898573
-0.0993022
-0.1809
-0.206042
-0.35043
-0.412108
-0.804568
-0.00581253
-0.0365854
-0.0412056
-0.0891209
-0.0988631
-0.179312
-0.20529
-0.344449
-0.409086
-0.792466
-0.00560139
-0.0360961
-0.0408965
-0.0884361
-0.0985376
-0.177909
-0.204826
-0.338946
-0.406865
-0.774103
-0.00901806
-0.0433668
-0.0450984
-0.0982162
-0.101881
-0.198986
-0.207247
-0.418222
-0.434884
-1.06113
-0.00886364
-0.043111
-0.0449813
-0.0980015
-0.101871
-0.198481
-0.207522
-0.41638
-0.434176
-1.04696
-0.00870666
-0.042836
-0.044851
-0.097719
-0.10183
-0.197912
-0.207705
-0.414285
-0.433311
-1.03516
-0.008547
-0.0425443
-0.0447054
-0.0973918
-0.101736
-0.197293
-0.207758
-0.41191
-0.432169
-1.02463
-0.00838395
-0.0422352
-0.0445424
-0.0970213
-0.101644
-0.196553
-0.20766
-0.40908
-0.430903
-1.01526
-0.00821716
-0.0419085
-0.0443613
-0.0966073
-0.101519
-0.195675
-0.207485
-0.405876
-0.429392
-1.00697
-0.00804578
-0.0415627
-0.0441581
-0.0961468
-0.101345
-0.194653
-0.207264
-0.402205
-0.42754
-1.00037
-0.00786884
-0.0411957
-0.0439275
-0.0956359
-0.101105
-0.193495
-0.206898
-0.398067
-0.425285
-0.997191
-0.00768868
-0.0408122
-0.0436836
-0.0950931
-0.100842
-0.192261
-0.206507
-0.393649
-0.42311
-0.997415
-0.00751451
-0.0404352
-0.0434843
-0.0945837
-0.100728
-0.19114
-0.206592
-0.389515
-0.422425
-0.990902
-0.0105701
-0.0452606
-0.0458334
-0.0996317
-0.101043
-0.20183
-0.205482
-0.427679
-0.448368
-1.05872
-0.0104193
-0.0451396
-0.0458242
-0.0996508
-0.101266
-0.201967
-0.205887
-0.428109
-0.447743
-1.05473
-0.0102671
-0.045001
-0.0457984
-0.0996271
-0.101456
-0.201996
-0.20622
-0.428194
-0.447002
-1.05315
-0.0101138
-0.0448466
-0.0457567
-0.0995623
-0.101607
-0.201918
-0.206477
-0.42794
-0.445952
-1.05274
-0.00995888
-0.0446759
-0.0456971
-0.0994553
-0.101717
-0.201729
-0.206645
-0.427341
-0.444608
-1.05348
-0.00980191
-0.0444884
-0.0456189
-0.0993057
-0.101782
-0.20143
-0.206718
-0.42639
-0.442951
-1.05536
-0.00964197
-0.0442828
-0.0455186
-0.099108
-0.101794
-0.201005
-0.206664
-0.425035
-0.440868
-1.05895
-0.00947793
-0.0440569
-0.0453929
-0.0988524
-0.101746
-0.200434
-0.206453
-0.423208
-0.438315
-1.0659
-0.00931286
-0.0438151
-0.0452566
-0.0985577
-0.101683
-0.199774
-0.206237
-0.421072
-0.435868
-1.07614
-0.00915871
-0.04358
-0.0451583
-0.0983215
-0.101739
-0.199253
-0.206499
-0.419311
-0.434921
-1.08029
-0.0121398
-0.045742
-0.0457575
-0.0979959
-0.0989856
-0.197488
-0.203095
-0.416175
-0.466674
-0.994305
-0.0119837
-0.0457565
-0.0458235
-0.098325
-0.0993281
-0.198325
-0.20365
-0.418421
-0.465839
-0.996458
-0.0118263
-0.0457553
-0.0458717
-0.0986125
-0.0996308
-0.199059
-0.204097
-0.420387
-0.464847
-1.00094
-0.0116684
-0.04574
-0.0459046
-0.0988608
-0.0998935
-0.199696
-0.204444
-0.422082
-0.463496
-1.00639
-0.0115096
-0.0457101
-0.0459207
-0.0990682
-0.100113
-0.20023
-0.204682
-0.423499
-0.461828
-1.01293
-0.0113496
-0.0456651
-0.0459194
-0.0992341
-0.10029
-0.200661
-0.20481
-0.424632
-0.459818
-1.02055
-0.0111876
-0.0456039
-0.0458969
-0.0993544
-0.100411
-0.200975
-0.204795
-0.425429
-0.457325
-1.02973
-0.0110222
-0.0455248
-0.0458479
-0.0994232
-0.100464
-0.201154
-0.204592
-0.425814
-0.454224
-1.04208
-0.0108566
-0.0454311
-0.0457872
-0.0994547
-0.100492
-0.201244
-0.204347
-0.425944
-0.451009
-1.05794
-0.0107051
-0.0453401
-0.0457756
-0.0995142
-0.10067
-0.201443
-0.204604
-0.426489
-0.449138
-1.0689
-0.0137358
-0.0450058
-0.0451038
-0.0936755
-0.0960228
-0.187414
-0.198816
-0.393918
-0.487574
-0.921686
-0.0135783
-0.0451311
-0.0452279
-0.094251
-0.0964738
-0.188768
-0.199695
-0.396898
-0.486809
-0.924903
-0.0134189
-0.0452425
-0.0453317
-0.0947878
-0.0968749
-0.19002
-0.200416
-0.399635
-0.485817
-0.9303
-0.0132586
-0.0453428
-0.0454203
-0.0952912
-0.0972328
-0.191189
-0.201011
-0.40217
-0.4844
-0.936272
-0.0130973
-0.0454312
-0.0454925
-0.0957596
-0.0975458
-0.192272
-0.201475
-0.404513
-0.482657
-0.943243
-0.0129347
-0.0455073
-0.045548
-0.0961925
-0.097814
-0.193267
-0.201812
-0.406663
-0.480579
-0.951224
-0.0127701
-0.0455702
-0.0455833
-0.0965865
-0.0980273
-0.194165
-0.201988
-0.40857
-0.478018
-0.960487
-0.0126017
-0.0456184
-0.0455918
-0.096935
-0.0981669
-0.194941
-0.201943
-0.410145
-0.474788
-0.972529
-0.0124323
-0.0456537
-0.0455849
-0.0972479
-0.0982665
-0.195634
-0.201785
-0.411531
-0.471208
-0.988255
-0.0122774
-0.0456908
-0.0456273
-0.097586
-0.0985079
-0.196444
-0.202087
-0.413448
-0.468548
-1.00054
-0.0152048
-0.0434225
-0.0440141
-0.0877173
-0.0923156
-0.174102
-0.192071
-0.373605
-0.510724
-0.88912
-0.0151063
-0.0436697
-0.0442293
-0.0884967
-0.0929476
-0.175859
-0.193431
-0.376421
-0.510376
-0.891131
-0.01495
-0.0438355
-0.044351
-0.0891389
-0.093374
-0.177318
-0.194287
-0.378452
-0.508384
-0.890742
-0.0148023
-0.0440035
-0.0444743
-0.089773
-0.0937952
-0.178751
-0.195118
-0.380563
-0.506737
-0.892515
-0.0146561
-0.0441679
-0.0445877
-0.0903873
-0.0941829
-0.180124
-0.195843
-0.382587
-0.504939
-0.895545
-0.014507
-0.044323
-0.0446848
-0.0909737
-0.0945257
-0.181423
-0.196441
-0.384488
-0.502846
-0.899318
-0.0143541
-0.0444682
-0.0447629
-0.0915291
-0.0948154
-0.182638
-0.196887
-0.386225
-0.500363
-0.903951
-0.0141956
-0.0446018
-0.0448142
-0.0920461
-0.0950292
-0.183742
-0.197099
-0.38768
-0.497296
-0.910791
-0.0140316
-0.0447249
-0.0448453
-0.0925309
-0.0951849
-0.18476
-0.197133
-0.388961
-0.49379
-0.921258
-0.0138761
-0.044852
-0.0449218
-0.0930473
-0.095466
-0.18592
-0.197575
-0.390906
-0.490703
-0.929555
0.00337907
0.0103546
0.0150176
0.0319093
0.0140041
0.0721441
-0.00592646
0.121855
-0.075394
0.121639
0.00338167
0.0103555
0.0150374
0.0318937
0.0140615
0.0720712
-0.00583662
0.121624
-0.0755911
0.121824
0.00338441
0.0103566
0.0150582
0.0318774
0.0141186
0.071989
-0.00576289
0.121355
-0.0758514
0.121878
0.00338714
0.0103576
0.0150787
0.0318606
0.014174
0.071905
-0.00569439
0.121082
-0.0761282
0.121922
0.00338987
0.0103584
0.0150992
0.0318436
0.0142289
0.0718209
-0.00562638
0.120807
-0.0764111
0.12198
0.0033926
0.0103591
0.0151197
0.0318264
0.0142832
0.0717366
-0.0055601
0.120531
-0.0767086
0.12206
0.00339534
0.0103598
0.0151402
0.0318092
0.0143373
0.0716526
-0.00549465
0.120253
-0.0770041
0.122111
0.00339821
0.0103608
0.0151614
0.0317921
0.0143944
0.0715667
-0.00542105
0.119964
-0.0772395
0.121926
0.00340136
0.0103624
0.0151848
0.0317734
0.0144579
0.0714676
-0.0053402
0.119622
-0.0775057
0.121672
0.00340396
0.0103611
0.0152051
0.0317494
0.0145008
0.0713602
-0.00533171
0.11928
-0.0783812
0.123097
0.00335716
0.0103538
0.014855
0.0320551
0.0135777
0.0728133
-0.00645028
0.123817
-0.0730226
0.121805
0.00335912
0.0103541
0.0148698
0.0320426
0.0136188
0.0727571
-0.00639059
0.123659
-0.0732051
0.121852
0.00336124
0.0103546
0.0148857
0.0320294
0.0136617
0.072693
-0.00633801
0.123469
-0.0734204
0.121812
0.00336338
0.0103549
0.0149016
0.0320157
0.0137037
0.0726272
-0.00628922
0.123274
-0.0736504
0.121758
0.00336552
0.0103551
0.0149176
0.0320016
0.0137453
0.0725609
-0.00624168
0.123078
-0.0738883
0.121699
0.0033677
0.0103552
0.0149336
0.0319873
0.0137867
0.0724936
-0.00619524