/*--------------------------------*- C++ -*----------------------------------*\
  =========                 |
  \\      /  F ield         | OpenFOAM: The Open Source CFD Toolbox
   \\    /   O peration     | Website:  https://openfoam.org
    \\  /    A nd           | Version:  10
     \\/     M anipulation  |
\*---------------------------------------------------------------------------*/
FoamFile
{
    format      ascii;
    class       surfaceScalarField;
    location    "5";
    object      phi;
}
// * * * * * * * * * * * * * * * * * * * * * * * * * * * * * * * * * * * * * //

dimensions      [0 3 -1 0 0 0 0];

internalField   nonuniform List<scalar> 
6840
(
-0.00109726
1.36133e-05
-1.51236e-05
-0.00109323
3.61688e-05
-4.01924e-05
-0.00108074
0.000112511
-0.000125007
-0.00106133
0.000174566
-0.000193969
-0.00100818
0.000479348
-0.000532506
-0.000935017
0.000661055
-0.000734214
-0.000789568
0.00131506
-0.00146051
-0.000644151
0.0013108
-0.00145622
-0.000467703
0.00146956
-0.00164601
0.00431619
-0.0047839
-0.00109726
1.21022e-05
-0.00109323
3.21458e-05
-0.00108073
0.000100011
-0.00106133
0.000155159
-0.00100813
0.000426153
-0.000934866
0.00058779
-0.000789202
0.0011694
-0.000643667
0.00116527
-0.000470755
0.00129665
0.00384544
-0.00109725
1.05904e-05
-0.00109323
2.81237e-05
-0.00108073
8.75102e-05
-0.00106132
0.000135751
-0.0010081
0.000372926
-0.000934748
0.000514442
-0.0007889
0.00102355
-0.000643291
0.00101966
-0.000473615
0.00112697
0.00337182
-0.00109725
9.07815e-06
-0.00109323
2.41027e-05
-0.00108073
7.50075e-05
-0.00106132
0.000116345
-0.00100807
0.000319675
-0.000934658
0.000441029
-0.000788659
0.000877551
-0.000643005
0.000874005
-0.000476242
0.000960207
0.00289558
-0.00109725
7.56548e-06
-0.00109323
2.00827e-05
-0.00108073
6.25043e-05
-0.00106132
9.69411e-05
-0.00100806
0.000266406
-0.000934594
0.000367566
-0.000788475
0.000731433
-0.000642798
0.000728328
-0.0004786
0.000796008
0.00241698
-0.00109725
6.05253e-06
-0.00109323
1.60638e-05
-0.00108073
5.00011e-05
-0.00106133
7.75412e-05
-0.00100805
0.000213126
-0.000934552
0.000294069
-0.000788343
0.000585225
-0.00064266
0.000582644
-0.000480658
0.000634006
0.00193632
-0.00109725
4.5394e-06
-0.00109323
1.20461e-05
-0.00108073
3.74986e-05
-0.00106134
5.81463e-05
-0.00100805
0.00015984
-0.000934531
0.000220551
-0.00078826
0.000438953
-0.00064258
0.000436964
-0.000482387
0.000473813
0.00145394
-0.00109725
3.0262e-06
-0.00109323
8.02958e-06
-0.00108073
2.49972e-05
-0.00106134
3.87573e-05
-0.00100806
0.000106554
-0.000934531
0.000147025
-0.000788221
0.000292642
-0.000642551
0.000291295
-0.000483765
0.000315027
0.000970174
-0.00109725
1.51302e-06
-0.00109323
4.01422e-06
-0.00108073
1.24975e-05
-0.00106135
1.93749e-05
-0.00100807
5.3272e-05
-0.00093455
7.3504e-05
-0.000788225
0.000146317
-0.000642569
0.000145639
-0.000484773
0.000157231
0.0004854
-0.00109725
-2.45951e-11
-0.00109324
1.68407e-11
-0.00108074
-1.1504e-11
-0.00106136
-7.01987e-11
-0.00100809
-1.53601e-10
-0.000934587
-2.35001e-10
-0.000788269
-1.8402e-10
-0.000642631
1.10619e-10
-0.0004854
8.3609e-11
2.88534e-10
-0.00105511
2.81977e-05
-2.96431e-05
-0.00105121
7.52922e-05
-7.91959e-05
-0.00103918
0.000233541
-0.000245564
-0.00102042
0.000363344
-0.000382111
-0.000969645
0.0009932
-0.00104397
-0.000900444
0.00136664
-0.00143584
-0.00076399
0.00271082
-0.00284728
-0.000627739
0.0027061
-0.00284235
-0.000409572
0.0033928
-0.00361097
0.00862664
-0.00903621
-0.00105511
2.67504e-05
-0.0010512
7.13878e-05
-0.00103917
0.000221507
-0.00102038
0.000344553
-0.000969491
0.000942314
-0.000899993
0.00129715
-0.000762899
0.00257373
-0.000625878
0.00256908
-0.000412733
0.00317966
0.0082139
-0.0010551
2.53013e-05
-0.0010512
6.74836e-05
-0.00103915
0.000209463
-0.00102035
0.000325745
-0.000969356
0.000891323
-0.000899601
0.00122739
-0.00076192
0.00243605
-0.00062424
0.0024314
-0.000416074
0.00297149
0.00779783
-0.0010551
2.38506e-05
-0.0010512
6.358e-05
-0.00103914
0.00019741
-0.00102032
0.000306925
-0.000969243
0.000840242
-0.00089926
0.00115741
-0.000761051
0.00229784
-0.000622807
0.00229315
-0.000419559
0.00276824
0.00737827
-0.0010551
2.23986e-05
-0.00105119
5.96774e-05
-0.00103914
0.000185351
-0.00102031
0.000288098
-0.000969148
0.000789082
-0.000898966
0.00108723
-0.000760287
0.00215916
-0.000621566
0.00215443
-0.000423154
0.00256983
0.00695512
-0.00105509
2.09453e-05
-0.00105119
5.57763e-05
-0.00103913
0.000173287
-0.0010203
0.000269266
-0.000969072
0.000737857
-0.000898718
0.00101687
-0.000759623
0.00202006
-0.000620504
0.00201531
-0.000426827
0.00237615
0.00652829
-0.00105509
1.9491e-05
-0.00105119
5.1877e-05
-0.00103912
0.000161219
-0.00102029
0.000250435
-0.000969012
0.000686576
-0.000898511
0.000946371
-0.000759052
0.00188061
-0.00061961
0.00187587
-0.000430545
0.00218709
0.00609775
-0.00105509
1.80359e-05
-0.00105119
4.79798e-05
-0.00103912
0.000149149
-0.00102029
0.000231606
-0.000968969
0.00063525
-0.000898345
0.000875747
-0.000758569
0.00174083
-0.000618869
0.00173617
-0.000434272
0.00200249
0.00566347
-0.00105509
1.658e-05
-0.00105119
4.40849e-05
-0.00103912
0.000137078
-0.0010203
0.000212784
-0.000968939
0.00058389
-0.000898214
0.000805022
-0.000758168
0.00160078
-0.000618269
0.00159627
-0.000437971
0.00182219
0.0052255
-0.00105509
-0.00105119
-0.00103912
-0.00102031
-0.000968925
-0.000898117
-0.000757845
-0.000617796
-0.000441606
-0.000972433
4.1626e-05
-4.29436e-05
-0.000968802
0.000111968
-0.000115599
-0.00095777
0.000345722
-0.000356754
-0.000940478
0.000539584
-0.000556877
-0.000894584
0.0014648
-0.0015107
-0.000833336
0.00200569
-0.00206694
-0.000714696
0.00395722
-0.00407586
-0.000599165
0.00393879
-0.00405432
-0.000345754
0.00568209
-0.0059355
0.0122293
-0.012575
-0.000972426
4.0305e-05
-0.000968792
0.000108334
-0.000957736
0.000334666
-0.000940385
0.000522233
-0.000894285
0.0014187
-0.000832539
0.00194395
-0.00071282
0.0038375
-0.000595782
0.00382175
-0.00034693
0.00543324
0.0118823
-0.000972421
3.89809e-05
-0.000968783
0.000104696
-0.000957704
0.000323587
-0.000940304
0.000504833
-0.000894007
0.00137241
-0.000831801
0.00188174
-0.000711048
0.00371675
-0.000592606
0.00370331
-0.000348366
0.005189
0.011534
-0.000972415
3.7654e-05
-0.000968775
0.000101056
-0.000957675
0.000312487
-0.000940232
0.00048739
-0.000893752
0.00132593
-0.000831115
0.00181911
-0.000709385
0.00359502
-0.00058963
0.00358356
-0.000350037
0.00494941
0.0111839
-0.00097241
3.63243e-05
-0.000968768
9.74139e-05
-0.000957649
0.000301369
-0.000940168
0.000469908
-0.000893519
0.00127928
-0.000830481
0.00175607
-0.000707831
0.00347237
-0.00058685
0.00346257
-0.000351933
0.00471449
0.010832
-0.000972405
3.49922e-05
-0.000968762
9.37706e-05
-0.000957627
0.000290233
-0.000940113
0.000452394
-0.000893308
0.00123247
-0.000829898
0.00169266
-0.000706383
0.00334885
-0.000584265
0.00334046
-0.000354054
0.00448428
0.010478
-0.000972401
3.36578e-05
-0.000968757
9.01266e-05
-0.000957607
0.000279083
-0.000940065
0.000434853
-0.000893119
0.00118553
-0.000829364
0.0016289
-0.000705042
0.00322453
-0.000581874
0.00321729
-0.000356396
0.0042588
0.0101216
-0.000972397
3.23213e-05
-0.000968753
8.64826e-05
-0.00095759
0.00026792
-0.000940026
0.000417289
-0.000892951
0.00113845
-0.00082888
0.00156483
-0.000703805
0.00309945
-0.000579675
0.00309316
-0.000358951
0.00403808
0.00976261
-0.000972393
3.0983e-05
-0.000968749
8.28389e-05
-0.000957575
0.000256746
-0.000939994
0.000399708
-0.000892804
0.00109126
-0.000828444
0.00150047
-0.000702672
0.00297368
-0.000577666
0.00296815
-0.000361715
0.00382213
0.0094009
-0.000972389
-0.000968746
-0.000957564
-0.000939968
-0.000892678
-0.000828052
-0.000701646
-0.000575843
-0.000364686
-0.000852387
5.33436e-05
-5.44813e-05
-0.000849166
0.000144743
-0.000147964
-0.000839586
0.000444374
-0.000453954
-0.000824406
0.000695645
-0.000710826
-0.000785434
0.00187256
-0.00191153
-0.000734453
0.00254577
-0.00259676
-0.000639688
0.00498319
-0.00507796
-0.000549733
0.0049229
-0.00501285
-0.000282692
0.00818215
-0.00844919
0.0151274
-0.0154101
-0.00085238
5.22012e-05
-0.000849159
0.000141522
-0.000839525
0.00043474
-0.000824339
0.00068046
-0.000784988
0.00183321
-0.000733733
0.00249452
-0.000637352
0.00488681
-0.000546678
0.00483222
-0.000282005
0.00791748
0.0148454
-0.000852373
5.10551e-05
-0.000849147
0.000138296
-0.000839484
0.000425078
-0.000824231
0.000665206
-0.000784646
0.00179362
-0.000732867
0.00244274
-0.000635315
0.00478926
-0.000543131
0.00474004
-0.000282104
0.00765645
0.0145633
-0.000852367
4.99056e-05
-0.000849135
0.000135064
-0.000839445
0.000415388
-0.000824128
0.000649889
-0.000784317
0.00175381
-0.000732028
0.00239045
-0.000633327
0.00469056
-0.000539635
0.00464635
-0.000282351
0.00739916
0.014281
-0.000852361
4.87527e-05
-0.000849125
0.000131828
-0.000839409
0.000405672
-0.000824032
0.000634513
-0.000784003
0.00171378
-0.000731221
0.00233767
-0.000631397
0.00459073
-0.000536228
0.00455118
-0.000282695
0.00714563
0.0139983
-0.000852355
4.75966e-05
-0.000849115
0.000128589
-0.000839375
0.000395931
-0.000823943
0.000619081
-0.000783705
0.00167354
-0.000730445
0.00228441
-0.000629528
0.00448982
-0.000532914
0.00445457
-0.000283159
0.00689588
0.0137151
-0.000852349
4.64375e-05
-0.000849106
0.000125345
-0.000839342
0.000386167
-0.000823859
0.000603597
-0.000783421
0.00163311
-0.000729702
0.00223069
-0.000627722
0.00438784
-0.000529694
0.00435654
-0.000283758
0.00664994
0.0134314
-0.000852344
4.52755e-05
-0.000849098
0.000122099
-0.000839313
0.000376382
-0.000823782
0.000588066
-0.000783154
0.00159248
-0.000728991
0.00217653
-0.000625981
0.00428483
-0.000526572
0.00425713
-0.000284496
0.00640786
0.0131469
-0.000852339
4.41108e-05
-0.00084909
0.00011885
-0.000839285
0.000366577
-0.000823711
0.000572492
-0.000782903
0.00155167
-0.000728315
0.00212194
-0.000624307
0.00418082
-0.000523556
0.00415638
-0.000285389
0.0061697
0.0128615
-0.000852334
-0.000849083
-0.00083926
-0.000823645
-0.00078267
-0.000727672
-0.000622711
-0.000520654
-0.000286462
-7.23568e-05
0.01795
-0.0178773
-0.000142032
0.0182919
-0.0182222
-0.000213622
0.0184869
-0.0184153
-0.000280574
0.0188897
-0.0188227
-0.000349088
0.0190399
-0.0189714
-0.000406516
0.0196102
-0.0195527
-0.000465439
0.0198821
-0.0198232
-0.000482762
0.0210868
-0.0210694
-0.000418379
0.0206033
-0.0206677
0.0151143
-0.0155327
-7.17572e-05
0.0180227
-0.000141262
0.0183614
-0.000212601
0.0185583
-0.000279042
0.0189561
-0.000346813
0.0191077
-0.000402848
0.0196662
-0.000459158
0.0199384
-0.000471969
0.0210996
-0.000401697
0.020533
0.0147126
-7.11536e-05
0.0180952
-0.00014051
0.0184307
-0.000211572
0.0186293
-0.00027754
0.0190221
-0.000344532
0.0191747
-0.000399244
0.0197209
-0.000452895
0.0199921
-0.00046131
0.021108
-0.000384307
0.020456
0.0143283
-7.05556e-05
0.0181678
-0.000139764
0.0184999
-0.000210546
0.0187001
-0.000276038
0.0190876
-0.000342239
0.0192409
-0.000395604
0.0197743
-0.000446562
0.020043
-0.000450608
0.021112
-0.00036731
0.0203727
0.013961
-6.99644e-05
0.0182403
-0.000139023
0.018569
-0.000209521
0.0187706
-0.000274529
0.0191526
-0.000339924
0.0193062
-0.000391901
0.0198263
-0.000440096
0.0200912
-0.000439756
0.0211117
-0.000350784
0.0202838
0.0136102
-6.9383e-05
0.0183127
-0.000138291
0.0186379
-0.000208502
0.0188408
-0.000273022
0.0192171
-0.000337595
0.0193708
-0.000388147
0.0198768
-0.000433518
0.0201366
-0.000428768
0.0211069
-0.000334584
0.0201896
0.0132756
-6.8819e-05
0.0183851
-0.000137577
0.0187067
-0.0002075
0.0189107
-0.000271529
0.0192811
-0.000335272
0.0194346
-0.00038437
0.0199259
-0.000426869
0.0201791
-0.000417703
0.0210978
-0.000318727
0.0200906
0.0129569
-6.82906e-05
0.0184574
-0.000136902
0.0187753
-0.00020654
0.0189804
-0.000270085
0.0193447
-0.000332999
0.0194975
-0.00038063
0.0199735
-0.000420224
0.0202187
-0.000406652
0.0210842
-0.0003033
0.0199872
0.0126536
-6.78438e-05
0.0185297
-0.000136323
0.0188437
-0.000205695
0.0190498
-0.00026879
0.0194078
-0.000330914
0.0195596
-0.000377132
0.0200198
-0.000413878
0.0202554
-0.000395996
0.0210663
-0.000288719
0.01988
0.0123649
-6.75328e-05
0.0186018
-0.000136082
0.0189123
-0.000205083
0.0191188
-0.000268118
0.0194708
-0.000329356
0.0196208
-0.000374971
0.0200654
-0.000408995
0.0202894
-0.000388282
0.0210456
-0.000277191
0.0197689
0.0120877
-6.24777e-05
0.0173837
-0.0173287
-0.000114888
0.0177588
-0.0177064
-0.000169327
0.017938
-0.0178836
-0.000220421
0.0183868
-0.0183357
-0.000273723
0.0185248
-0.0184715
-0.000318968
0.0192052
-0.01916
-0.000370902
0.0194578
-0.0194058
-0.00039503
0.0210371
-0.021013
-0.000377719
0.0210614
-0.0210787
0.0182323
-0.01861
-6.16413e-05
0.0174386
-0.000113849
0.017811
-0.000168035
0.0179922
-0.000218575
0.0184374
-0.000271196
0.0185774
-0.000315091
0.0192491
-0.000364907
0.0195076
-0.000384692
0.0210569
-0.00036195
0.0210387
0.0178703
-6.08004e-05
0.0174936
-0.000112829
0.0178631
-0.000166735
0.0180461
-0.000216758
0.0184874
-0.000268654
0.0186293
-0.000311269
0.0192917
-0.000358898
0.0195552
-0.000374542
0.0210725
-0.000345691
0.0210098
0.0175246
-5.99647e-05
0.0175485
-0.000111814
0.0179149
-0.000165436
0.0180997
-0.000214939
0.0185369
-0.000266103
0.0186805
-0.000307429
0.019333
-0.000352832
0.0196006
-0.000364424
0.0210841
-0.000329776
0.0209752
0.0171949
-5.91338e-05
0.0176033
-0.000110803
0.0179666
-0.000164138
0.0181531
-0.000213117
0.0185859
-0.000263533
0.0187309
-0.000303547
0.019373
-0.000346664
0.0196437
-0.00035423
0.0210917
-0.000314276
0.0209352
0.0168806
-5.83086e-05
0.0176582
-0.000109796
0.0180181
-0.000162841
0.0182061
-0.00021129
0.0186343
-0.000260947
0.0187806
-0.000299627
0.0194117
-0.000340398
0.0196845
-0.000343944
0.0210953
-0.00029905
0.0208903
0.0165815
-5.7489e-05
0.017713
-0.000108795
0.0180694
-0.000161546
0.0182589
-0.000209461
0.0186822
-0.000258346
0.0188295
-0.000295674
0.0194491
-0.00033405
0.0197229
-0.000333579
0.0210948
-0.000284039
0.0208408
0.0162975
-5.66752e-05
0.0177678
-0.0001078
0.0181205
-0.000160253
0.0183113
-0.000207631
0.0187296
-0.000255733
0.0188776
-0.00029169
0.019485
-0.000327624
0.0197588
-0.000323141
0.0210903
-0.000269279
0.0207869
0.0160282
-5.58676e-05
0.0178225
-0.00010681
0.0181714
-0.000158962
0.0183635
-0.000205799
0.0187764
-0.000253105
0.0189249
-0.000287673
0.0195196
-0.00032112
0.0197923
-0.000312651
0.0210818
-0.000254887
0.0207292
0.0157733
-5.507e-05
-0.000105822
-0.000157676
-0.000203959
-0.000250463
-0.000283623
-0.000314537
-0.000302136
-0.00024065
-5.32055e-05
0.0170127
-0.0169775
-8.67774e-05
0.0174138
-0.0173803
-0.000122215
0.0175774
-0.0175419
-0.000156203
0.018055
-0.018021
-0.000191946
0.0181797
-0.018144
-0.000224233
0.0189299
-0.0188977
-0.000262861
0.0191376
-0.019099
-0.00029224
0.020935
-0.0209056
-0.000305978
0.0211724
-0.0211586
0.0206967
-0.0210027
-5.21782e-05
0.017048
-8.55273e-05
0.0174472
-0.000120699
0.0176125
-0.000154119
0.0180884
-0.000189238
0.0182148
-0.000220165
0.0189609
-0.000257154
0.0191746
-0.000282131
0.02096
-0.000290813
0.021181
0.0204059
-5.11478e-05
0.0170832
-8.42868e-05
0.0174803
-0.000119178
0.0176474
-0.000152048
0.0181213
-0.000186516
0.0182493
-0.000216118
0.0189905
-0.000251416
0.0192099
-0.000272168
0.0209807
-0.000275485
0.0211844
0.0201304
-5.01199e-05
0.0171184
-8.30489e-05
0.0175132
-0.000117657
0.017682
-0.000149975
0.0181536
-0.000183784
0.0182831
-0.000212057
0.0190187
-0.000245622
0.0192434
-0.000262269
0.0209974
-0.000260446
0.0211825
0.01987
-4.90947e-05
0.0171535
-8.18134e-05
0.017546
-0.000116135
0.0177163
-0.000147897
0.0181854
-0.000181035
0.0183163
-0.000207968
0.0190457
-0.00023975
0.0192752
-0.000252352
0.02101
-0.000245717
0.0211759
0.0196243
-4.80726e-05
0.0171886
-8.05814e-05
0.0175785
-0.000114615
0.0177504
-0.000145817
0.0182166
-0.000178273
0.0183487
-0.000203855
0.0190713
-0.000233805
0.0193052
-0.000242392
0.0210186
-0.000231205
0.0211647
0.0193931
-4.70545e-05
0.0172237
-7.93529e-05
0.0176108
-0.000113096
0.0177841
-0.000143735
0.0182472
-0.000175498
0.0183805
-0.000199723
0.0190955
-0.000227798
0.0193333
-0.000232386
0.0210231
-0.000216858
0.0211492
0.0191762
-4.60402e-05
0.0172587
-7.81291e-05
0.0176429
-0.00011158
0.0178176
-0.000141652
0.0182773
-0.000172714
0.0184115
-0.000195574
0.0191183
-0.000221735
0.0193594
-0.000222331
0.0210237
-0.000202669
0.0211295
0.0189735
-4.50303e-05
0.0172937
-7.69101e-05
0.0176747
-0.000110065
0.0178507
-0.00013957
0.0183068
-0.00016992
0.0184419
-0.000191411
0.0191398
-0.000215619
0.0193836
-0.000212226
0.0210204
-0.000188681
0.021106
0.0187849
-4.40279e-05
-7.56934e-05
-0.000108557
-0.000137484
-0.000167117
-0.000187234
-0.000209441
-0.000202083
-0.000174842
-4.37907e-05
0.0168498
-0.0168353
-5.75681e-05
0.0172669
-0.0172532
-7.29529e-05
0.0174165
-0.0174011
-8.88065e-05
0.0179036
-0.0178878
-0.000105426
0.0180218
-0.0180051
-0.000124192
0.0187899
-0.0187711
-0.000144868
0.0189752
-0.0189545
-0.000180021
0.020784
-0.0207488
-0.000211993
0.0210683
-0.0210363
0.0222682
-0.0224802
-4.26725e-05
0.0168642
-5.62125e-05
0.0172805
-7.13078e-05
0.0174316
-8.66131e-05
0.0179189
-0.000102637
0.0180378
-0.000120081
0.0188073
-0.000139446
0.0189946
-0.000170116
0.0208147
-0.000197397
0.0210956
0.0220708
-4.15525e-05
0.0168785
-5.4855e-05
0.0172938
-6.96608e-05
0.0174464
-8.44126e-05
0.0179337
-9.9838e-05
0.0180532
-0.000115945
0.0188235
-0.00013398
0.0190126
-0.000160251
0.0208409
-0.000182942
0.0211183
0.0218878
-4.04305e-05
0.0168928
-5.34954e-05
0.0173068
-6.8012e-05
0.0174609
-8.22045e-05
0.0179479
-9.70266e-05
0.018068
-0.000111779
0.0188382
-0.000128453
0.0190293
-0.000150425
0.0208629
-0.000168658
0.0211365
0.0217192
-3.93074e-05
0.016907
-5.21348e-05
0.0173197
-6.63613e-05
0.0174752
-7.9989e-05
0.0179615
-9.42017e-05
0.0180823
-0.000107587
0.0188516
-0.000122863
0.0190446
-0.000140592
0.0208806
-0.000154497
0.0211504
0.0215647
-3.81833e-05
0.0169212
-5.07737e-05
0.0173323
-6.47096e-05
0.0174891
-7.7768e-05
0.0179745
-9.13653e-05
0.0180958
-0.00010337
0.0188636
-0.000117217
0.0190584
-0.000130724
0.0208941
-0.000140413
0.0211601
0.0214243
-3.70589e-05
0.0169353
-4.94129e-05
0.0173446
-6.30577e-05
0.0175027
-7.55429e-05
0.017987
-8.85193e-05
0.0181088
-9.91343e-05
0.0188742
-0.000111524
0.0190708
-0.000120806
0.0209034
-0.000126376
0.0211657
0.0212979
-3.59347e-05
0.0169494
-4.80531e-05
0.0173567
-6.14063e-05
0.0175161
-7.33149e-05
0.0179989
-8.56657e-05
0.0181212
-9.48836e-05
0.0188834
-0.000105792
0.0190817
-0.000110827
0.0209085
-0.000112367
0.0211672
0.0211855
-3.4811e-05
0.0169635
-4.66948e-05
0.0173686
-5.97564e-05
0.0175291
-7.10858e-05
0.0180103
-8.28057e-05
0.0181329
-9.0621e-05
0.0188912
-0.000100024
0.0190911
-0.000100774
0.0209092
-9.8387e-05
0.0211648
0.0210871
-3.36901e-05
-4.5338e-05
-5.81107e-05
-6.88558e-05
-7.9942e-05
-8.63523e-05
-9.4222e-05
-9.06355e-05
-8.44449e-05
-3.30117e-05
0.0168984
-0.016905
-2.67096e-05
0.0173217
-0.017328
-2.18286e-05
0.0174579
-0.0174628
-1.86055e-05
0.0179431
-0.0179463
-1.59367e-05
0.0180517
-0.0180544
-1.92541e-05
0.0188024
-0.0187991
-2.11576e-05
0.0189878
-0.0189859
-6.11493e-05
0.0205932
-0.0205532
-0.000102148
0.0208281
-0.0207871
0.0228
-0.0229021
-3.19284e-05
0.0168917
-2.53707e-05
0.0173152
-2.01872e-05
0.0174528
-1.64346e-05
0.0179393
-1.32197e-05
0.0180485
-1.52649e-05
0.0188045
-1.61496e-05
0.0189887
-5.16337e-05
0.0206287
-8.86848e-05
0.0208652
0.0227113
-3.08434e-05
0.0168849
-2.40193e-05
0.0173083
-1.85467e-05
0.0174473
-1.42378e-05
0.017935
-1.05025e-05
0.0180448
-1.11814e-05
0.0188052
-1.1118e-05
0.0189886
-4.20011e-05
0.0206596
-7.5573e-05
0.0208987
0.0226357
-2.97526e-05
0.016878
-2.26623e-05
0.0173012
-1.69022e-05
0.0174415
-1.20229e-05
0.0179302
-7.78834e-06
0.0180405
-7.00239e-06
0.0188044
-6.1111e-06
0.0189877
-3.22893e-05
0.0206858
-6.24346e-05
0.0209289
0.0225733
-2.8656e-05
0.0168711
-2.13002e-05
0.0172939
-1.52554e-05
0.0174355
-9.79112e-06
0.0179247
-5.09172e-06
0.0180358
-2.65502e-06
0.0188019
-1.30407e-06
0.0189864
-2.2441e-05
0.0207069
-4.91997e-05
0.0209556
0.0225241
-2.75546e-05
0.0168641
-1.99337e-05
0.0172863
-1.36074e-05
0.0174292
-7.53979e-06
0.0179186
-2.44271e-06
0.0180307
1.56476e-06
0.0187979
4.40814e-06
0.0189835
-1.23342e-05
0.0207237
-3.59102e-05
0.0209792
0.0224882
-2.64487e-05
0.016857
-1.85632e-05
0.0172784
-1.19593e-05
0.0174225
-5.26297e-06
0.0179119
1.50662e-08
0.0180255
5.34742e-06
0.0187926
1.01406e-05
0.0189787
-1.30935e-06
0.0207351
-2.26344e-05
0.0210005
0.0224656
-2.53384e-05
0.0168498
-1.71892e-05
0.0172702
-1.03124e-05
0.0174157
-2.94415e-06
0.0179046
3.22259e-06
0.0180193
9.29235e-06
0.0187865
1.57764e-05
0.0189722
7.49183e-06
0.0207434
-9.56254e-06
0.0210176
0.022456
-2.42248e-05
0.0168426
-1.5813e-05
0.0172618
-8.66867e-06
0.0174085
-4.85721e-07
0.0178964
6.17484e-06
0.0180126
1.33047e-05
0.0187794
2.13867e-05
0.0189642
1.66928e-05
0.0207481
3.95455e-06
0.0210303
0.0224599
-2.31081e-05
-1.44362e-05
-7.03256e-06
1.59244e-06
9.07746e-06
1.73514e-05
2.69812e-05
2.62281e-05
2.02318e-05
-1.97343e-05
0.0171535
-0.0171806
6.3142e-06
0.0175743
-0.0176003
3.10867e-05
0.0177006
-0.0177254
5.34281e-05
0.0181679
-0.0181902
7.55589e-05
0.0182828
-0.0183049
8.91636e-05
0.0189625
-0.0189761
0.000105218
0.0191984
-0.0192144
6.3382e-05
0.0203336
-0.0202918
2.1181e-05
0.0205817
-0.0205395
0.0221518
-0.0221306
-1.87915e-05
0.0171263
7.50856e-06
0.017548
3.26289e-05
0.0176755
5.53865e-05
0.0181451
7.81843e-05
0.01826
9.25752e-05
0.0189481
0.000110115
0.0191808
7.15322e-05
0.0203722
3.31377e-05
0.0206201
0.0221849
-1.78477e-05
0.017099
8.71861e-06
0.0175214
3.41701e-05
0.0176501
5.73803e-05
0.0181219
8.0823e-05
0.0182366
9.60859e-05
0.0189329
0.000115115
0.0191618
7.99015e-05
0.0204074
4.47018e-05
0.0206553
0.0222296
-1.68958e-05
0.0170715
9.93688e-06
0.0174946
3.57178e-05
0.0176243
5.93878e-05
0.0180982
8.34794e-05
0.0182125
9.96499e-05
0.0189167
0.000120194
0.0191413
8.83913e-05
0.0204392
5.66232e-05
0.0206871
0.0222862
-1.59365e-05
0.017044
1.11626e-05
0.0174675
3.72705e-05
0.0175982
6.14046e-05
0.0180741
8.61444e-05
0.0181877
0.00010325
0.0188996
0.00012532
0.0191192
9.69951e-05
0.0204675
6.90388e-05
0.020715
0.0223553
-1.49697e-05
0.0170164
1.23947e-05
0.0174401
3.88273e-05
0.0175717
6.34299e-05
0.0180495
8.8816e-05
0.0181623
0.000106884
0.0188815
0.000130485
0.0190956
0.000105729
0.0204923
8.18874e-05
0.0207389
0.0224372
-1.39963e-05
0.0169887
1.36332e-05
0.0174125
4.03877e-05
0.017545
6.54633e-05
0.0180244
9.14938e-05
0.0181363
0.000110549
0.0188625
0.000135686
0.0190704
0.000114607
0.0205134
9.51523e-05
0.0207583
0.0225323
-1.30165e-05
0.0169609
1.48769e-05
0.0173846
4.19511e-05
0.0175179
6.75037e-05
0.0179989
9.41757e-05
0.0181096
0.000114243
0.0188424
0.000140916
0.0190438
0.000123635
0.0205306
0.000108875
0.0207731
0.0226412
-1.20312e-05
0.016933
1.61252e-05
0.0173564
4.35158e-05
0.0174905
6.95489e-05
0.0179728
9.68581e-05
0.0180823
0.00011796
0.0188213
0.000146161
0.0190156
0.000132816
0.020544
0.000123112
0.0207828
0.0227643
-1.104e-05
1.73743e-05
4.50803e-05
7.15932e-05
9.95354e-05
0.000121692
0.000151391
0.000142148
0.000137835
-3.41068e-06
0.0176024
-0.0176487
4.12863e-05
0.018015
-0.0180597
8.51252e-05
0.0181343
-0.0181782
0.000126543
0.0185809
-0.0186224
0.000166898
0.0186964
-0.0187368
0.000200416
0.0193068
-0.0193404
0.000228767
0.0195471
-0.0195755
0.000197154
0.0201084
-0.0200768
0.000150895
0.0202947
-0.0202484
0.0202865
-0.0201356
-2.67875e-06
0.017556
4.22851e-05
0.01797
8.64614e-05
0.0180901
0.00012824
0.0185392
0.00016923
0.0186554
0.000203289
0.0192728
0.000233266
0.0195171
0.000203489
0.0201382
0.00016106
0.0203371
0.0204476
-1.9474e-06
0.0175095
4.33043e-05
0.0179247
8.77966e-05
0.0180456
0.000129979
0.018497
0.000171588
0.0186138
0.000206268
0.0192381
0.000237928
0.0194855
0.000210123
0.020166
0.000170372
0.0203769
0.0206179
-1.21549e-06
0.0174628
4.43298e-05
0.0178792
8.91384e-05
0.0180008
0.000131729
0.0184544
0.000173965
0.0185716
0.000209294
0.0192028
0.000242686
0.0194521
0.000216988
0.0201917
0.000180333
0.0204135
0.0207983
-4.93812e-07
0.0174161
4.53604e-05
0.0178333
9.04843e-05
0.0179557
0.000133484
0.0184114
0.00017635
0.0185287
0.000212347
0.0191668
0.000247494
0.0194169
0.000224072
0.0202151
0.000191173
0.0204464
0.0209895
2.49198e-07
0.0173693
4.63959e-05
0.0177872
9.18338e-05
0.0179103
0.000135243
0.018368
0.00017874
0.0184852
0.000215424
0.0191301
0.000252345
0.01938
0.000231377
0.0202361
0.000202684
0.0204751
0.0211921
1.07955e-06
0.0173223
4.74363e-05
0.0177408
9.31868e-05
0.0178645
0.000137008
0.0183242
0.000181137
0.0184411
0.000218527
0.0190927
0.000257238
0.0193413
0.000238901
0.0202544
0.000214792
0.0204992
0.0214069
1.88533e-06
0.0172752
4.84809e-05
0.0176942
9.45429e-05
0.0178185
0.000138777
0.0182799
0.000183539
0.0183963
0.000221652
0.0190546
0.000262163
0.0193008
0.000246639
0.02027
0.00022755
0.0205183
0.0216345
2.68896e-06
0.017228
4.9529e-05
0.0176474
9.59001e-05
0.0177721
0.000140548
0.0182353
0.000185941
0.018351
0.000224795
0.0190157
0.000267102
0.0192585
0.000254583
0.0202825
0.000241007
0.0205319
0.0218755
3.49457e-06
5.05752e-05
9.72578e-05
0.000142314
0.000188338
0.00022795
0.00027202
0.000262721
0.000255114
1.60256e-05
0.0182286
-0.0182929
7.72633e-05
0.018628
-0.0186892
0.000139207
0.0187444
-0.0188063
0.0001975
0.0191744
-0.0192327
0.000256094
0.0192824
-0.019341
0.00030776
0.019846
-0.0198976
0.000346525
0.0199931
-0.0200319
0.000336099
0.0200304
-0.0200199
0.00026588
0.0198457
-0.0197755
0.0172618
-0.0169959
1.64185e-05
0.0181647
7.85607e-05
0.0185659
0.000140337
0.0186826
0.00020025
0.0191145
0.000258773
0.0192239
0.000312768
0.019792
0.000352653
0.0199532
0.000342392
0.0200406
0.000276796
0.0199113
0.0175385
1.69587e-05
0.0181006
7.93645e-05
0.0185035
0.00014144
0.0186205
0.000201721
0.0190542
0.00026077
0.0191648
0.0003153
0.0197374
0.000356619
0.0199119
0.000347332
0.0200499
0.000285906
0.0199728
0.0178245
1.74967e-05
0.0180364
8.01532e-05
0.0184408
0.000142503
0.0185582
0.000203126
0.0189936
0.000262668
0.0191053
0.000317702
0.0196824
0.000360583
0.019869
0.000352449
0.020058
0.000296069
0.0200291
0.0181205
1.80413e-05
0.0179721
8.09487e-05
0.0183779
0.000143578
0.0184955
0.000204556
0.0189326
0.000264617
0.0190452
0.000320195
0.0196268
0.000364726
0.0198245
0.000357744
0.020065
0.000306423
0.0200805
0.0184269
1.85926e-05
0.0179076
8.17507e-05
0.0183147
0.000144663
0.0184326
0.000206004
0.0188713
0.000266604
0.0189846
0.000322747
0.0195707
0.000368982
0.0197783
0.000363283
0.0200707
0.000317235
0.0201265
0.0187442
1.91495e-05
0.0178431
8.25562e-05
0.0182513
0.000145752
0.0183694
0.000207454
0.0188096
0.000268596
0.0189235
0.000325313
0.019514
0.000373299
0.0197303
0.000369082
0.0200749
0.000328758
0.0201668
0.0190729
1.97113e-05
0.0177784
8.33636e-05
0.0181877
0.00014684
0.0183059
0.000208902
0.0187475
0.000270588
0.0188618
0.00032788
0.0194567
0.000377661
0.0196805
0.000375122
0.0200775
0.00034103
0.0202009
0.019414
2.02775e-05
0.0177136
8.41717e-05
0.0181238
0.000147927
0.0182422
0.000210346
0.0186851
0.000272579
0.0187996
0.00033045
0.0193988
0.000382055
0.0196289
0.000381372
0.0200782
0.00035402
0.0202283
0.019768
2.08497e-05
8.49755e-05
0.000149013
0.000211782
0.000274568
0.000333024
0.000386455
0.000387806
0.00036763
0.00074986
0.000265118
-0.000257295
0.000759563
-0.000285091
0.000275388
0.00075204
0.000149963
-0.00014244
0.000751551
0.000160833
-0.000160344
0.000752141
-0.000167667
0.000167076
0.000736643
0.000651286
-0.000635788
0.000718813
0.000332389
-0.000314559
0.000658464
0.00252089
-0.00246054
0.000527171
0.00292454
-0.00279325
0.0219839
-0.0214568
0.000749813
0.000272988
0.000759659
-0.000294937
0.000751897
0.000157725
0.000751691
0.000161039
0.000751988
-0.000167964
0.000736726
0.000666548
0.000718378
0.000350737
0.000659067
0.0025802
0.000526838
0.00305677
0.0225108
0.000749767
0.000280903
0.000759755
-0.000304924
0.000751755
0.000165724
0.000751832
0.000160962
0.000751837
-0.000167969
0.000736812
0.000681573
0.000717958
0.000369591
0.000659725
0.00263843
0.000526736
0.00318976
0.0230375
0.000749723
0.000288863
0.000759852
-0.000315053
0.000751615
0.000173961
0.000751977
0.0001606
0.000751686
-0.000167678
0.000736907
0.000696353
0.000717544
0.000388954
0.000660465
0.00269551
0.000526785
0.00332344
0.0235643
0.00074968
0.000296866
0.000759949
-0.000325322
0.000751476
0.000182434
0.000752126
0.00015995
0.000751536
-0.000167087
0.00073701
0.000710878
0.000717138
0.000408827
0.000661294
0.00275136
0.000526938
0.00345779
0.0240912
0.000749639
0.00030491
0.000760048
-0.000335731
0.000751339
0.000191142
0.000752279
0.00015901
0.000751386
-0.000166194
0.000737122
0.000725141
0.000716742
0.000429208
0.000662219
0.00280588
0.000527199
0.00359281
0.0246184
0.000749599
0.000312993
0.000760147
-0.00034628
0.000751205
0.000200085
0.000752436
0.000157778
0.000751238
-0.000164996
0.000737244
0.000739135
0.000716357
0.000450095
0.000663244
0.00285899
0.000527568
0.00372849
0.025146
0.000749562
0.000321114
0.000760248
-0.000356966
0.000751073
0.00020926
0.000752596
0.000156254
0.000751091
-0.00016349
0.000737373
0.000752853
0.000715982
0.000471486
0.000664359
0.00291061
0.000528021
0.00386483
0.025674
0.000749526
0.00032927
0.000760348
-0.000367788
0.000750944
0.000218665
0.000752761
0.000154437
0.000750947
-0.000161676
0.000737514
0.000766286
0.000715625
0.000493375
0.000665637
0.0029606
0.000528611
0.00400185
0.0262026
0.000749511
0.000337443
0.00076042
-0.000378697
0.000750867
0.000228217
0.000752865
0.00015244
0.000750922
-0.000159734
0.000737551
0.000779657
0.000715668
0.000515258
0.000667103
0.00300917
0.000530648
0.00413831
0.0267333
0.000856145
0.000179816
-0.000171527
0.000865419
-0.000184294
0.000175019
0.000859868
8.0433e-05
-7.48812e-05
0.000856005
0.000138837
-0.000134974
0.000860126
-0.000142272
0.00013815
0.000840745
0.000471372
-0.000451991
0.000828173
0.000181348
-0.000168776
0.000753094
0.00183126
-0.00175618
0.000647192
0.00181524
-0.00170933
0.0156269
-0.0149797
0.000856082
0.000188169
0.000865519
-0.000193731
0.000859713
8.62389e-05
0.000856125
0.000142425
0.000859993
-0.00014614
0.000840812
0.000490554
0.000827807
0.000194352
0.000753631
0.00190543
0.00064697
0.0019219
0.0162738
0.000856018
0.000196584
0.00086562