/*--------------------------------*- C++ -*----------------------------------*\
  =========                 |
  \\      /  F ield         | OpenFOAM: The Open Source CFD Toolbox
   \\    /   O peration     | Website:  https://openfoam.org
    \\  /    A nd           | Version:  10
     \\/     M anipulation  |
\*---------------------------------------------------------------------------*/
FoamFile
{
    format      ascii;
    class       volVectorField;
    location    "5";
    object      U;
}
// * * * * * * * * * * * * * * * * * * * * * * * * * * * * * * * * * * * * * //

dimensions      [0 1 -1 0 0 0 0];

internalField   nonuniform List<vector> 
3600
(
(1.12642 -0.000124692 7.49765e-20)
(1.12332 -0.000331383 4.90088e-20)
(1.11823 -0.00103052 -5.76686e-19)
(1.09762 -0.00160147 -1.44996e-18)
(1.07894 -0.00439083 -6.94641e-19)
(0.988225 -0.00606529 -2.2365e-18)
(0.930658 -0.0120482 4.03662e-19)
(0.688782 -0.0120346 8.21042e-18)
(0.635422 -0.01352 3.70632e-18)
(0.327045 -0.0395035 -4.45659e-18)
(1.12642 -0.000111611 1.246e-19)
(1.12332 -0.000296539 7.56284e-20)
(1.11823 -0.000922342 -4.77715e-19)
(1.0976 -0.00143293 -1.42418e-18)
(1.07892 -0.00393057 -8.06135e-19)
(0.988099 -0.00542923 -2.71185e-18)
(0.930368 -0.0107881 3.96602e-19)
(0.688139 -0.01077 7.0005e-18)
(0.63486 -0.0120087 3.30472e-18)
(0.333369 -0.0354469 -3.09311e-18)
(1.12642 -9.84688e-05 1.24663e-19)
(1.12332 -0.000261573 1.09011e-19)
(1.11823 -0.000813641 -1.56485e-19)
(1.09759 -0.00126449 -1.88833e-18)
(1.0789 -0.00346787 -9.57337e-19)
(0.987992 -0.00479303 -2.25027e-18)
(0.930122 -0.00952066 3.68752e-19)
(0.687591 -0.00950652 8.12586e-18)
(0.634419 -0.0105211 4.06202e-18)
(0.339176 -0.0313337 1.88998e-19)
(1.12642 -8.53293e-05 1.31675e-19)
(1.12331 -0.000226628 1.42585e-19)
(1.11823 -0.000704993 -6.47392e-20)
(1.09758 -0.00109595 -1.47251e-18)
(1.07888 -0.0030052 -9.34359e-19)
(0.987902 -0.00415576 -1.83105e-18)
(0.929915 -0.00825247 2.99948e-19)
(0.68713 -0.00824185 7.55285e-18)
(0.63408 -0.00906015 3.99845e-18)
(0.344404 -0.0272042 3.53807e-18)
(1.12642 -7.21913e-05 1.44695e-19)
(1.12331 -0.000191704 1.84508e-19)
(1.11823 -0.000596387 5.21698e-20)
(1.09757 -0.00092737 -1.14669e-18)
(1.07887 -0.00254255 -9.55782e-19)
(0.987828 -0.00351775 -1.50913e-18)
(0.929744 -0.00698367 2.06516e-19)
(0.686748 -0.00697634 9.10508e-18)
(0.633824 -0.00762335 3.05283e-18)
(0.348999 -0.0230569 7.01798e-18)
(1.12642 -5.90492e-05 1.13874e-19)
(1.12331 -0.000156786 2.37002e-19)
(1.11822 -0.00048777 -5.98988e-20)
(1.09756 -0.000758791 -8.35065e-19)
(1.07886 -0.00207973 -1.00486e-18)
(0.987768 -0.00287925 -1.21193e-18)
(0.929606 -0.00571383 7.26532e-20)
(0.686441 -0.00571042 9.07451e-18)
(0.633635 -0.00620717 2.21973e-18)
(0.352909 -0.0188898 9.08197e-18)
(1.12642 -4.59024e-05 8.02846e-20)
(1.12331 -0.000121871 2.87294e-19)
(1.11822 -0.000379134 -1.50216e-19)
(1.09756 -0.000590228 -5.63015e-19)
(1.07886 -0.00161674 -8.85023e-19)
(0.987721 -0.00224043 -1.05168e-18)
(0.929498 -0.00444305 -8.6229e-20)
(0.686201 -0.00444433 7.47617e-18)
(0.6335 -0.00480819 2.52442e-18)
(0.356093 -0.0147052 7.75889e-18)
(1.12642 -3.27463e-05 5.55217e-20)
(1.12331 -8.69456e-05 3.55574e-19)
(1.11822 -0.000270437 -4.42807e-20)
(1.09756 -0.000421711 -2.85645e-19)
(1.07885 -0.00115346 -7.92398e-19)
(0.987686 -0.00160158 1.50645e-19)
(0.92942 -0.00317126 -1.95426e-19)
(0.686025 -0.00317874 4.3884e-18)
(0.633409 -0.00342289 4.05387e-18)
(0.358513 -0.0105052 6.81862e-18)
(1.12641 -1.95787e-05 2.89338e-20)
(1.12331 -5.20043e-05 4.27065e-19)
(1.11822 -0.000161657 -1.78865e-19)
(1.09755 -0.000253253 -4.49768e-20)
(1.07885 -0.000689829 -7.2364e-19)
(0.987664 -0.000962852 1.33084e-18)
(0.929368 -0.00189839 -2.3636e-19)
(0.685909 -0.00191384 1.32285e-18)
(0.633352 -0.00204751 5.67584e-18)
(0.360141 -0.00629122 4.4011e-18)
(1.12641 -6.46051e-06 7.59557e-21)
(1.12331 -1.71844e-05 3.73655e-19)
(1.11822 -5.33073e-05 -2.83862e-19)
(1.09755 -8.46128e-05 1.77735e-19)
(1.07885 -0.000227718 -4.80923e-19)
(0.987652 -0.000322441 3.70219e-18)
(0.929342 -0.000627963 -2.91396e-19)
(0.685852 -0.000643154 -1.58104e-18)
(0.633325 -0.000678839 7.48969e-18)
(0.36096 -0.00207712 3.87645e-18)
(1.12643 -0.000250291 -3.37151e-20)
(1.12337 -0.000668625 3.92459e-19)
(1.11828 -0.002073 1.56846e-18)
(1.09794 -0.00323187 -8.30527e-19)
(1.07955 -0.00881629 1.16495e-18)
(0.990769 -0.0121555 3.89379e-18)
(0.936489 -0.0240634 9.62783e-19)
(0.701732 -0.0240833 1.93163e-17)
(0.651433 -0.0303215 5.93455e-18)
(0.249906 -0.0764546 -4.47291e-18)
(1.12643 -0.000237835 -5.3126e-20)
(1.12337 -0.000635005 3.60564e-19)
(1.11827 -0.00196947 1.50683e-18)
(1.09789 -0.00306998 -4.87118e-19)
(1.07945 -0.00837915 1.02988e-18)
(0.990381 -0.0115582 3.54727e-18)
(0.935605 -0.0228883 7.83045e-19)
(0.69978 -0.0229069 1.64212e-17)
(0.648695 -0.0284716 5.65662e-18)
(0.257931 -0.0729316 -5.75535e-18)
(1.12643 -0.000225317 -8.03504e-20)
(1.12336 -0.000601271 3.33637e-19)
(1.11826 -0.00186539 1.48618e-18)
(1.09784 -0.00290783 -1.61969e-19)
(1.07935 -0.00793874 7.03486e-19)
(0.990028 -0.0109575 3.22945e-18)
(0.934798 -0.0217 6.58814e-19)
(0.697994 -0.0217213 1.40027e-17)
(0.646258 -0.0266498 5.69894e-18)
(0.266017 -0.0693353 -7.47416e-18)
(1.12643 -0.00021279 -1.09271e-19)
(1.12335 -0.000567544 3.19464e-19)
(1.11826 -0.00176128 1.1191e-18)
(1.0978 -0.00274535 -2.95995e-19)
(1.07927 -0.0074977 5.86353e-19)
(0.989708 -0.0103541 2.04574e-18)
(0.934064 -0.0205077 5.12167e-19)
(0.696368 -0.0205293 1.20065e-17)
(0.644106 -0.0248706 5.92233e-18)
(0.274124 -0.0657226 -9.52188e-18)
(1.12643 -0.00020025 -1.44644e-19)
(1.12335 -0.000533821 3.0165e-19)
(1.11825 -0.00165712 7.83019e-19)
(1.09776 -0.00258269 -4.21684e-19)
(1.0792 -0.00705599 4.74629e-19)
(0.989418 -0.00974844 9.00656e-19)
(0.933401 -0.0193115 3.53202e-19)
(0.694893 -0.0193325 1.05011e-17)
(0.642221 -0.0231345 5.40679e-18)
(0.282202 -0.0620847 -1.00146e-17)
(1.12642 -0.000187694 -1.34404e-19)
(1.12334 -0.000500094 2.93097e-19)
(1.11825 -0.00155286 4.62428e-19)
(1.09773 -0.0024199 -5.63134e-19)
(1.07914 -0.00661348 3.68361e-19)
(0.989157 -0.00914093 -1.64657e-19)
(0.932803 -0.0181109 2.58271e-19)
(0.693563 -0.0181313 9.44105e-18)
(0.640584 -0.0214394 4.04722e-18)
(0.290203 -0.058413 -9.09768e-18)
(1.12642 -0.000175121 -9.03159e-20)
(1.12334 -0.000466365 1.5106e-19)
(1.11824 -0.0014485 1.74539e-19)
(1.0977 -0.00225703 -7.71901e-19)
(1.07909 -0.00617021 2.49737e-19)
(0.988924 -0.00853176 -1.24872e-18)
(0.932267 -0.0169063 2.2947e-19)
(0.692369 -0.0169263 8.65543e-18)
(0.639175 -0.019784 2.82017e-18)
(0.298071 -0.0547066 -8.59672e-18)
(1.12642 -0.000162526 -4.8978e-20)
(1.12333 -0.000432617 1.48885e-19)
(1.11824 -0.00134401 -1.25682e-19)
(1.09768 -0.00209411 -9.54561e-19)
(1.07904 -0.0057261 1.5635e-19)
(0.988716 -0.00792142 -1.43104e-18)
(0.931789 -0.015698 2.40872e-19)
(0.691302 -0.0157195 7.99889e-18)
(0.637975 -0.0181677 2.78403e-18)
(0.305751 -0.0509674 -6.3368e-18)
(1.12642 -0.000149906 -9.75672e-21)
(1.12333 -0.00039884 1.64575e-19)
(1.11823 -0.00123934 -4.04309e-19)
(1.09765 -0.00193116 -1.23553e-18)
(1.079 -0.00528101 -1.29976e-19)
(0.988531 -0.00731007 -1.64491e-18)
(0.931364 -0.014486 3.16324e-19)
(0.690355 -0.0145117 7.75519e-18)
(0.636963 -0.0165882 2.93322e-18)
(0.313184 -0.0471956 -6.17454e-18)
(1.12642 -0.000137324 2.98989e-20)
(1.12332 -0.000365181 3.01028e-20)
(1.11823 -0.00113501 -4.83026e-19)
(1.09763 -0.00176793 -1.5302e-18)
(1.07897 -0.00483648 -3.98052e-19)
(0.988369 -0.00669518 -1.92596e-18)
(0.930989 -0.013271 3.71966e-19)
(0.689519 -0.0132925 7.94335e-18)
(0.636119 -0.0150396 3.27428e-18)
(0.320308 -0.0433771 -6.06057e-18)
(1.12646 -0.000364532 9.37517e-20)
(1.12348 -0.000981063 -2.69633e-19)
(1.11844 -0.00302775 5.46776e-19)
(1.09867 -0.0047348 -1.34419e-18)
(1.0812 -0.0128272 7.27631e-19)
(0.996332 -0.0175947 1.21725e-18)
(0.949069 -0.0346434 1.87932e-18)
(0.729445 -0.034559 2.13469e-17)
(0.694431 -0.050102 4.88735e-18)
(0.179984 -0.106935 6.78589e-18)
(1.12646 -0.00035328 7.22769e-20)
(1.12347 -0.000950097 -1.61315e-19)
(1.11842 -0.00293363 7.9342e-19)
(1.09858 -0.00458747 -1.34173e-18)
(1.08097 -0.0124361 8.8812e-19)
(0.995615 -0.0170732 8.63532e-19)
(0.947466 -0.0336327 1.86934e-18)
(0.725949 -0.0335755 2.09012e-17)
(0.688791 -0.047974 4.19102e-18)
(0.185965 -0.103999 5.76026e-18)
(1.12645 -0.000341974 5.57719e-20)
(1.12345 -0.000919028 -7.04441e-20)
(1.1184 -0.00283899 1.09082e-18)
(1.09848 -0.00443934 -1.38445e-18)
(1.08076 -0.0120409 1.10043e-18)
(0.994935 -0.0165448 6.06737e-19)
(0.945942 -0.0326037 1.86656e-18)
(0.722614 -0.0325709 2.09223e-17)
(0.68345 -0.0458573 4.76803e-18)
(0.192188 -0.101004 4.88392e-18)
(1.12645 -0.000330648 4.55889e-20)
(1.12344 -0.000887933 -1.01124e-19)
(1.11838 -0.00274422 1.24312e-18)
(1.0984 -0.0042905 -1.49434e-18)
(1.08057 -0.0116444 1.29056e-18)
(0.994292 -0.0160116 1.29652e-18)
(0.944496 -0.0315674 1.77933e-18)
(0.719442 -0.0315532 2.00235e-17)
(0.67841 -0.0437816 5.62438e-18)
(0.198651 -0.0980209 4.04114e-18)
(1.12645 -0.000319294 3.32238e-20)
(1.12343 -0.000856803 -1.22628e-20)
(1.11836 -0.00264924 1.22042e-18)
(1.09832 -0.00414118 -1.63678e-18)
(1.08038 -0.0112464 1.53114e-18)
(0.993686 -0.0154744 2.00711e-18)
(0.943129 -0.0305233 1.6892e-18)
(0.716434 -0.0305245 1.98216e-17)
(0.673673 -0.0417479 5.6879e-18)
(0.20535 -0.0950289 3.30459e-18)
(1.12645 -0.000307908 2.20189e-20)
(1.12342 -0.000825636 7.79183e-20)
(1.11834 -0.00255404 1.24821e-18)
(1.09824 -0.00399145 -1.84084e-18)
(1.08021 -0.0108466 1.80635e-18)
(0.993116 -0.0149336 2.83831e-18)
(0.941839 -0.0294706 1.51944e-18)
(0.713589 -0.0294848 2.00298e-17)
(0.669237 -0.0397533 5.93769e-18)
(0.212279 -0.0920151 2.70336e-18)
(1.12644 -0.000296493 1.4471e-20)
(1.12341 -0.000794438 1.71161e-19)
(1.11833 -0.00245863 1.32532e-18)
(1.09817 -0.00384136 -2.11116e-18)
(1.08006 -0.0104453 1.73199e-18)
(0.992581 -0.0143892 3.70289e-18)
(0.940626 -0.0284098 1.33755e-18)
(0.710908 -0.0284346 2.10098e-17)
(0.665101 -0.0377979 6.48619e-18)
(0.219427 -0.088978 2.05205e-18)
(1.12644 -0.000285044 6.16801e-21)
(1.1234 -0.000763194 2.581e-19)
(1.11832 -0.00236297 1.44876e-18)
(1.09811 -0.00369096 -2.02202e-18)
(1.07991 -0.0100424 1.69869e-18)
(0.992081 -0.0138419 4.77652e-18)
(0.939488 -0.0273418 1.22336e-18)
(0.708386 -0.0273766 2.0996e-17)
(0.661261 -0.0358833 6.25246e-18)
(0.226783 -0.0859216 1.71049e-18)
(1.12644 -0.000273551 -6.93023e-21)
(1.12339 -0.000731881 3.46598e-19)
(1.1183 -0.00226699 1.62044e-18)
(1.09805 -0.00354024 -1.60952e-18)
(1.07978 -0.00963751 1.50157e-18)
(0.991615 -0.0132919 4.95884e-18)
(0.938424 -0.026266 1.18762e-18)
(0.706023 -0.0263122 2.14161e-17)
(0.657711 -0.0340086 6.19007e-18)
(0.234331 -0.0828469 -7.57589e-19)
(1.12644 -0.000262071 -1.87274e-20)
(1.12338 -0.000700631 4.42762e-19)
(1.11829 -0.00217107 1.66779e-18)
(1.09799 -0.00338897 -1.20037e-18)
(1.07966 -0.00923141 1.32957e-18)
(0.991181 -0.012736 4.34282e-18)
(0.937431 -0.0251795 1.12879e-18)
(0.703815 -0.0252283 2.098e-17)
(0.654443 -0.0321601 5.35789e-18)
(0.242053 -0.0797141 -3.33965e-18)
(1.12649 -0.000461961 -6.60456e-21)
(1.12363 -0.00125434 -3.21657e-19)
(1.11872 -0.00384892 -2.03689e-18)
(1.0998 -0.00604353 6.72143e-19)
(1.08391 -0.01622 -9.35883e-19)
(1.00455 -0.0221183 -7.64626e-18)
(0.967258 -0.0431545 1.91991e-18)
(0.769199 -0.0428002 1.05837e-17)
(0.759792 -0.0714011 5.72553e-18)
(0.133157 -0.130982 1.32005e-17)
(1.12649 -0.000452635 -1.18022e-21)
(1.12361 -0.00122767 -3.01425e-19)
(1.11869 -0.0037703 -1.83071e-18)
(1.09967 -0.00591404 7.54616e-19)
(1.08359 -0.015896 -6.96762e-19)
(1.00362 -0.0216753 -6.68399e-18)
(0.965226 -0.042352 1.9232e-18)
(0.764805 -0.041992 1.17034e-17)
(0.752603 -0.0690098 3.66642e-18)
(0.136936 -0.128881 1.5455e-17)
(1.12649 -0.000443213 4.09209e-21)
(1.12359 -0.00120124 -2.84204e-19)
(1.11866 -0.00369056 -1.52221e-18)
(1.09954 -0.00578651 4.19276e-19)
(1.08328 -0.0155704 -4.26664e-19)
(1.0027 -0.0212404 -5.04893e-18)
(0.963237 -0.0415542 1.86903e-18)
(0.760493 -0.04121 1.30807e-17)
(0.745536 -0.0668721 2.6747e-18)
(0.140896 -0.126236 1.46762e-17)
(1.12648 -0.000433583 1.02386e-20)
(1.12358 -0.00117419 -2.75133e-19)
(1.11863 -0.0036093 -1.23732e-18)
(1.09942 -0.00565843 5.0897e-19)
(1.08298 -0.0152376 -1.60238e-19)
(1.00182 -0.0208054 -3.48848e-18)
(0.961293 -0.0407345 1.81828e-18)
(0.756268 -0.0404369 1.34263e-17)
(0.7386 -0.0647084 2.8181e-18)
(0.145044 -0.123806 1.43166e-17)
(1.12648 -0.00042389 2.01245e-20)
(1.12356 -0.00114693 -1.52654e-19)
(1.1186 -0.00352758 -9.70956e-19)
(1.0993 -0.00552942 5.84077e-19)
(1.08269 -0.0149015 -5.34152e-20)
(1.00096 -0.020365 -1.98768e-18)
(0.959397 -0.0399006 1.84731e-18)
(0.752135 -0.0396485 1.41277e-17)
(0.731806 -0.0625393 3.03766e-18)
(0.149386 -0.121471 1.23628e-17)
(1.12648 -0.000414171 2.76598e-20)
(1.12355 -0.00111965 -1.4571e-19)
(1.11857 -0.00344566 -7.26991e-19)
(1.09919 -0.00539971 3.07469e-19)
(1.08242 -0.0145637 5.6861e-20)
(1.00012 -0.0199193 -1.40322e-18)
(0.957551 -0.0390569 1.81313e-18)
(0.748099 -0.0388436 1.51502e-17)
(0.725162 -0.0604021 3.44122e-18)
(0.153932 -0.119113 1.04889e-17)
(1.12647 -0.000404421 3.60579e-20)
(1.12353 -0.00109233 -1.39748e-19)
(1.11854 -0.0033635 -4.9867e-19)
(1.09908 -0.00526943 1.77223e-20)
(1.08215 -0.014224 1.8852e-19)
(0.999315 -0.019469 -8.59376e-19)
(0.955756 -0.0382037 1.79058e-18)
(0.744164 -0.0380251 1.65729e-17)
(0.718677 -0.0582999 3.95304e-18)
(0.158688 -0.116732 8.68558e-18)
(1.12647 -0.00039463 4.58577e-20)
(1.12352 -0.00106494 -1.39314e-19)
(1.11851 -0.00328102 -2.66869e-19)
(1.09897 -0.00513862 -3.11751e-19)
(1.0819 -0.0138823 3.14482e-19)
(0.998534 -0.0190148 -4.19612e-19)
(0.954014 -0.0373414 1.77e-18)
(0.740334 -0.0371957 1.85403e-17)
(0.712359 -0.0562325 4.65762e-18)
(0.163666 -0.11435 7.2183e-18)
(1.12647 -0.000384782 5.88272e-20)
(1.12351 -0.00103743 -2.60136e-19)
(1.11849 -0.00319807 -4.84726e-20)
(1.09887 -0.00500723 -6.50103e-19)
(1.08166 -0.0135379 4.50394e-19)
(0.997781 -0.0185569 5.96707e-20)
(0.952325 -0.0364691 1.8243e-18)
(0.736613 -0.0363574 1.93953e-17)
(0.706216 -0.0541981 5.56861e-18)
(0.168872 -0.111975 7.42231e-18)
(1.12646 -0.000374918 7.26096e-20)
(1.12349 -0.00100991 -2.56127e-19)
(1.11847 -0.00311487 3.28053e-19)
(1.09877 -0.004875 -9.97761e-19)
(1.08143 -0.0131903 5.84393e-19)
(0.997056 -0.0180914 5.90711e-19)
(0.950692 -0.0355789 1.88668e-18)
(0.733005 -0.0354951 2.09708e-17)
(0.700254 -0.0521679 5.69444e-18)
(0.174315 -0.109545 7.87316e-18)
(1.12849 -0.000584123 1.25573e-18)
(1.15012 0.00515406 3.42665e-18)
(1.16226 -0.0105678 1.6372e-18)
(1.18776 -0.00330403 9.08752e-19)
(1.19693 -0.0404966 2.11422e-18)
(1.23313 -0.0338487 9.53889e-19)
(1.24947 -0.119362 -5.13627e-18)
(1.32595 -0.129998 -3.17627e-20)
(1.29618 -0.324741 4.55722e-18)
(0.962709 -0.231183 1.12543e-17)
(1.12864 -0.00133039 1.22096e-18)
(1.15 0.0042827 3.6445e-18)
(1.1622 -0.0116519 1.27115e-18)
(1.18731 -0.0048284 8.62923e-19)
(1.19652 -0.0426199 2.03846e-18)
(1.23185 -0.0370599 8.72096e-19)
(1.24816 -0.124233 -3.48091e-18)
(1.3216 -0.138296 -1.54504e-19)
(1.28683 -0.335143 5.92283e-19)
(0.932239 -0.238624 1.13032e-17)
(1.1288 -0.00206879 1.20389e-18)
(1.14987 0.00341764 3.5206e-18)
(1.16215 -0.0127287 1.21988e-18)
(1.18684 -0.00635086 7.7533e-19)
(1.19611 -0.0447409 1.98007e-18)
(1.23055 -0.0402843 7.32801e-19)
(1.24682 -0.129137 -3.46097e-18)
(1.3172 -0.146653 1.5984e-19)
(1.27736 -0.345408 1.31202e-18)
(0.903115 -0.245904 1.12668e-17)
(1.12895 -0.00279867 1.17979e-18)
(1.14973 0.00255976 3.41536e-18)
(1.16207 -0.0137971 1.26896e-18)
(1.18634 -0.00786993 4.48996e-19)
(1.19564 -0.0468577 1.97178e-18)
(1.22915 -0.0435184 7.07763e-19)
(1.24528 -0.134071 -3.38489e-18)
(1.3125 -0.15506 6.68808e-19)
(1.26748 -0.355599 2.9499e-18)
(0.876432 -0.25309 1.07885e-17)
(1.12909 -0.00351839 1.17995e-18)
(1.14958 0.00171093 3.33993e-18)
(1.16197 -0.0148549 1.55645e-18)
(1.18581 -0.00938284 -1.8285e-19)
(1.19511 -0.0489666 2.0565e-18)
(1.22768 -0.0467573 6.93593e-19)
(1.24354 -0.139028 -3.31881e-18)
(1.30751 -0.163509 8.22213e-19)
(1.25723 -0.365754 6.73677e-18)
(0.85115 -0.260205 9.84126e-18)
(1.12923 -0.00422406 1.16485e-18)
(1.14943 0.000875217 3.2539e-18)
(1.16185 -0.0158971 1.50382e-18)
(1.18526 -0.0108839 -1.51128e-19)
(1.19453 -0.0510598 2.46201e-18)
(1.22612 -0.0499916 6.99204e-19)
(1.24164 -0.143995 -2.68955e-18)
(1.30229 -0.171984 7.50041e-19)
(1.24671 -0.375877 6.76517e-18)
(0.82689 -0.267214 8.92954e-18)
(1.12936 -0.0049061 1.16728e-18)
(1.14927 6.25532e-05 3.16499e-18)
(1.16172 -0.0169111 1.44413e-18)
(1.18468 -0.0123586 -2.07265e-19)
(1.19391 -0.0531167 1.69364e-18)
(1.2245 -0.0531975 7.87313e-19)
(1.2396 -0.14894 -1.12865e-18)
(1.29687 -0.180448 7.96528e-19)
(1.236 -0.385932 6.09179e-18)
(0.803816 -0.273996 5.59127e-18)
(1.12949 -0.00554081 1.20878e-18)
(1.1491 -0.000702133 3.10657e-18)
(1.16157 -0.0178644 1.44086e-18)
(1.18407 -0.0137685 -3.38763e-19)
(1.19325 -0.0550806 1.74722e-18)
(1.22279 -0.0563053 1.28298e-18)
(1.2374 -0.153752 -8.07242e-19)
(1.29122 -0.188773 1.89544e-18)
(1.22513 -0.395744 4.61193e-18)
(0.781893 -0.280266 2.45592e-18)
(1.12961 -0.00606937 1.33368e-18)
(1.1489 -0.00135567 3.16341e-18)
(1.16138 -0.0186725 1.36545e-18)
(1.18341 -0.01501 -6.83187e-19)
(1.19249 -0.0567914 1.75027e-18)
(1.22095 -0.0591069 2.84487e-18)
(1.23491 -0.158087 3.78493e-19)
(1.2851 -0.196491 4.47716e-18)
(1.21348 -0.404627 4.27821e-19)
(0.759885 -0.285374 -5.89005e-18)
(1.12971 -0.00634564 1.43215e-18)
(1.1487 -0.0017374 3.38948e-18)
(1.16117 -0.0191152 1.34504e-18)
(1.18273 -0.0158006 -2.64624e-20)
(1.19165 -0.057797 1.72093e-18)
(1.21899 -0.0609747 3.92434e-18)
(1.23209 -0.160823 -1.00784e-18)
(1.27835 -0.201899 4.45587e-18)
(1.20056 -0.410078 9.00146e-19)
(0.737874 -0.287908 -5.45353e-18)
(1.12673 0.00834056 1.57562e-18)
(1.15117 0.0152545 3.77363e-18)
(1.16266 0.00214772 1.85733e-19)
(1.19191 0.0132825 2.36598e-18)
(1.20058 -0.0168029 1.77719e-18)
(1.24499 -0.00129226 1.29177e-19)
(1.26052 -0.0685732 -2.10149e-18)
(1.36366 -0.0512083 -7.61244e-18)
(1.36454 -0.210973 -1.1826e-17)
(1.19371 -0.134028 8.05455e-18)
(1.12692 0.0074114 1.66412e-18)
(1.15111 0.0142132 3.66159e-18)
(1.16269 0.000831686 1.06631e-19)
(1.19162 0.011613 2.29133e-18)
(1.20038 -0.0192131 1.91364e-18)
(1.24411 -0.00448636 -1.48618e-18)
(1.25995 -0.0736471 -1.73571e-18)
(1.36084 -0.0587439 -7.48357e-18)
(1.35898 -0.222998 -1.07357e-17)
(1.16553 -0.144741 1.75273e-17)
(1.12711 0.00648836 1.69213e-18)
(1.15105 0.013177 3.52586e-18)
(1.16272 -0.000477699 -2.14147e-19)
(1.19132 0.00994379 1.92696e-18)
(1.2002 -0.0216196 2.38187e-18)
(1.24321 -0.00769757 -2.01835e-18)
(1.25941 -0.0787305 -6.24238e-19)
(1.35798 -0.0663664 -3.89695e-18)
(1.35346 -0.234767 -8.93398e-18)
(1.13801 -0.155171 2.48428e-17)
(1.12729 0.00557169 1.58269e-18)
(1.15097 0.0121461 3.4e-18)
(1.16273 -0.00177989 -1.35801e-19)
(1.19098 0.00827567 1.42984e-18)
(1.19996 -0.0240214 2.01219e-18)
(1.24222 -0.0109234 -3.91308e-18)
(1.25869 -0.0838207 -2.44788e-18)
(1.35484 -0.0740665 -3.78281e-18)
(1.34753 -0.246356 -5.1071e-18)
(1.11288 -0.165396 2.14653e-17)
(1.12747 0.00466167 1.63729e-18)
(1.15088 0.0111211 3.33407e-18)
(1.16271 -0.0030742 5.89276e-20)
(1.19061 0.00660973 2.09989e-18)
(1.19966 -0.0264169 1.2118e-18)
(1.24115 -0.0141604 -4.92494e-18)
(1.2578 -0.0889134 -2.47045e-18)
(1.35142 -0.0818324 -3.79638e-18)
(1.34117 -0.25782 -3.87012e-18)
(1.08926 -0.175475 1.07124e-17)
(1.12765 0.00375856 1.58331e-18)
(1.15077 0.0101025 3.25472e-18)
(1.16268 -0.00436007 4.70601e-19)
(1.19021 0.00494674 2.00005e-18)
(1.19932 -0.0288048 1.28771e-18)
(1.23999 -0.0174063 -3.15219e-18)
(1.25676 -0.0940056 -3.02806e-18)
(1.34775 -0.0896552 -2.97957e-18)
(1.33449 -0.269189 5.73499e-19)
(1.06663 -0.185433 9.13745e-18)
(1.12782 0.00286263 1.51254e-18)
(1.15066 0.0090905 3.11604e-18)
(1.16263 -0.00563695 6.02398e-19)
(1.18977 0.00328721 1.67206e-18)
(1.19893 -0.031184 1.39794e-18)
(1.23876 -0.0206592 -2.64045e-18)
(1.25559 -0.0990947 -4.96813e-18)
(1.34385 -0.0975288 -3.32472e-18)
(1.32755 -0.280487 3.85352e-19)
(1.04497 -0.195281 1.16132e-18)
(1.12799 0.00197424 1.3611e-18)
(1.15054 0.00808525 3.08472e-18)
(1.16256 -0.0069042 1.06811e-18)
(1.18931 0.00163107 8.55741e-19)
(1.19849 -0.0335532 1.52679e-18)
(1.23745 -0.0239185 -2.29814e-18)
(1.25427 -0.104178 -6.33473e-18)
(1.33973 -0.105448 -3.47071e-18)
(1.32035 -0.291727 4.54122e-19)
(1.02435 -0.205001 1.66849e-18)
(1.12816 0.0010939 1.34756e-18)
(1.1504 0.00708638 3.11868e-18)
(1.16247 -0.00816087 1.42843e-18)
(1.18881 -2.35034e-05 8.97267e-19)
(1.198 -0.0359104 2.21085e-18)
(1.23606 -0.0271883 -3.0655e-19)
(1.25279 -0.109251 -5.94361e-18)
(1.33537 -0.113413 -2.93825e-18)
(1.31301 -0.302897 5.12915e-19)
(1.00531 -0.214492 4.01718e-18)
(1.12832 0.000222672 1.39522e-18)
(1.15025 0.00609207 3.36932e-18)
(1.16235 -0.00940508 1.4867e-18)
(1.18827 -0.00168409 9.37967e-19)
(1.19746 -0.0382518 2.14403e-18)
(1.23457 -0.0304882 9.2984e-19)
(1.25112 -0.114307 -5.52733e-18)
(1.3308 -0.121449 2.86946e-19)
(1.3059 -0.313889 1.33931e-18)
(0.988213 -0.223437 1.16804e-17)
(1.12472 0.0186741 2.04345e-18)
(1.15133 0.0266739 2.01076e-18)
(1.16204 0.0167941 -8.42776e-20)
(1.1937 0.0308961 3.39818e-18)
(1.20175 0.00933932 1.16792e-18)
(1.25152 0.0305556 6.51086e-19)
(1.26463 -0.014931 4.82904e-18)
(1.38385 0.0185927 -1.95637e-17)
(1.39852 -0.0815893 -2.36023e-17)
(1.37898 -0.00912984 1.48682e-17)
(1.12494 0.0176223 1.97517e-18)
(1.15137 0.0255124 1.68945e-18)
(1.16217 0.0152993 -6.78467e-20)
(1.19366 0.0291321 3.28243e-18)
(1.20179 0.00669929 1.10913e-18)
(1.25121 0.0274476 -1.02625e-18)
(1.26461 -0.0203277 2.8147e-18)
(1.38287 0.0120212 -1.59205e-17)
(1.39624 -0.0952854 -2.30621e-17)
(1.3563 -0.0225434 2.46136e-17)
(1.12515 0.0165725 1.90025e-18)
(1.1514 0.0243533 2.06605e-18)
(1.16231 0.0138077 -2.09098e-19)
(1.19362 0.0273663 3.21252e-18)
(1.20185 0.00405837 1.08747e-18)
(1.25088 0.0243186 -1.07104e-18)
(1.26468 -0.0257323 2.49226e-18)
(1.38184 0.0053452 -1.58326e-17)
(1.39419 -0.108673 -2.16326e-17)
(1.33361 -0.0356599 3.2063e-17)
(1.12536 0.015525 1.83612e-18)
(1.15142 0.0231971 2.16242e-18)
(1.16242 0.01232 -5.75823e-19)
(1.19353 0.0255995 3.22522e-18)
(1.20186 0.001418 9.20681e-19)
(1.25045 0.0211704 -4.85145e-19)
(1.26462 -0.0311406 1.80539e-18)
(1.38052 -0.00142745 -1.59733e-17)
(1.39178 -0.121833 -2.07039e-17)
(1.31319 -0.0485484 3.06534e-17)
(1.12557 0.0144804 1.76375e-18)
(1.15143 0.0220443 2.62316e-18)
(1.16251 0.0108369 -5.93159e-19)
(1.19341 0.0238328 3.78413e-18)
(1.20181 -0.00121985 9.22155e-19)
(1.24993 0.0180061 9.82082e-19)
(1.2644 -0.0365466 -1.29008e-19)
(1.37889 -0.00828369 -1.90515e-17)
(1.38894 -0.134835 -1.96655e-17)
(1.29434 -0.0612753 2.72647e-17)
(1.12577 0.0134389 1.64964e-18)
(1.15142 0.0208955 2.93028e-18)
(1.16258 0.00935938 -7.64879e-19)
(1.19324 0.0220671 2.89104e-18)
(1.20172 -0.00385346 9.92069e-19)
(1.24931 0.0148283 5.16958e-19)
(1.26406 -0.0419455 -6.2884e-20)
(1.37699 -0.0152129 -1.76061e-17)
(1.38577 -0.147719 -1.54834e-17)
(1.27647 -0.0738736 1.82366e-17)
(1.12597 0.0124011 1.70468e-18)
(1.15139 0.019751 2.9587e-18)
(1.16264 0.00788807 -2.99232e-19)
(1.19304 0.0203031 2.67115e-18)
(1.20158 -0.00648123 1.26098e-18)
(1.24862 0.0116389 -1.16499e-18)
(1.26361 -0.0473331 -3.49732e-19)
(1.37485 -0.0222071 -1.31905e-17)
(1.38232 -0.160514 -1.5089e-17)
(1.25948 -0.0863637 1.78264e-17)
(1.12617 0.0113674 1.67399e-18)
(1.15136 0.0186113 3.40143e-18)
(1.16267 0.00642388 -2.39387e-19)
(1.19281 0.0185412 2.60944e-18)
(1.2014 -0.0091013 2.10198e-18)
(1.24783 0.00843919 -9.13677e-19)
(1.26304 -0.0527044 -3.25783e-19)
(1.37245 -0.0292602 -9.81811e-18)
(1.3786 -0.173244 -1.47626e-17)
(1.24347 -0.0987551 1.88522e-17)
(1.12636 0.0103384 1.69349e-18)
(1.1513 0.0174762 3.72433e-18)
(1.16268 0.00496814 -1.50844e-19)
(1.19254 0.0167807 2.57834e-18)
(1.20118 -0.0117108 2.0788e-18)
(1.24696 0.00522736 5.78249e-19)
(1.26233 -0.0580523 -1.72468e-18)
(1.3698 -0.036372 -1.2027e-17)
(1.3747 -0.185921 -1.73031e-17)
(1.22882 -0.111013 1.80165e-17)
(1.12655 0.00931529 1.56389e-18)
(1.15124 0.0163448 3.90923e-18)
(1.16267 0.00352379 2.25988e-19)
(1.19222 0.0150169 2.4663e-18)
(1.20088 -0.0143031 2.64271e-18)
(1.24598 0.00199045 -8.00582e-19)
(1.26143 -0.0633598 -6.29747e-19)
(1.36683 -0.043575 -8.08654e-18)
(1.37068 -0.198492 -1.63753e-17)
(1.21557 -0.122936 1.52014e-17)
(1.12247 0.0296015 2.77399e-18)
(1.1503 0.03876 4.84118e-18)
(1.1602 0.0325542 2.57727e-19)
(1.19265 0.0489624 4.50829e-18)
(1.20047 0.0367954 1.40388e-18)
(1.25159 0.0612146 -6.35629e-19)
(1.26378 0.0407167 7.62963e-18)
(1.38386 0.0791947 -1.08526e-17)
(1.40255 0.0600584 -1.52475e-17)
(1.49216 0.133297 -3.06666e-18)
(1.12271 0.0285169 2.70738e-18)
(1.15047 0.0375495 4.19174e-18)
(1.16046 0.0309741 5.15702e-19)
(1.1929 0.0471621 3.87985e-18)
(1.20074 0.0340691 1.29556e-18)
(1.25194 0.0582189 1.44589e-18)
(1.26415 0.0352229 9.2541e-18)
(1.385 0.0735327 -1.03712e-17)
(1.40309 0.045436 -1.82982e-17)
(1.47737 0.118615 -2.34916e-18)
(1.12295 0.0274286 2.69615e-18)
(1.15063 0.0363378 3.62956e-18)
(1.16072 0.0293914 1.44546e-19)
(1.19315 0.0453584 5.2443e-18)
(1.20103 0.0313314 1.27695e-18)
(1.25228 0.0552042 3.28755e-18)
(1.26463 0.0296923 1.00928e-17)
(1.38608 0.0677676 -1.07457e-17)
(1.40394 0.0310703 -1.85354e-17)
(1.46209 0.104137 7.1075e-18)
(1.12319 0.0263371 2.61236e-18)
(1.15077 0.0351252 3.50327e-18)
(1.16096 0.0278069 1.55512e-19)
(1.19336 0.0435517 4.36563e-18)
(1.20128 0.0285838 1.49413e-18)
(1.25252 0.0521713 3.13821e-18)
(1.26501 0.024131 8.11081e-18)
(1.38684 0.0619036 -1.40855e-17)
(1.40453 0.0168797 -2.16225e-17)
(1.44896 0.0898033 8.4303e-18)
(1.12342 0.0252428 2.52054e-18)
(1.1509 0.0339125 3.21384e-18)
(1.16117 0.0262218 1.55085e-19)
(1.19352 0.041743 4.81335e-18)
(1.20148 0.0258288 2.10953e-18)
(1.25266 0.0491229 2.63878e-18)
(1.26527 0.0185467 8.02418e-18)
(1.38728 0.0559518 -1.55062e-17)
(1.40474 0.00278401 -2.17744e-17)
(1.43742 0.075544 1.66495e-17)
(1.12365 0.0241462 2.43652e-18)
(1.15101 0.0327 2.61454e-18)
(1.16136 0.0246368 7.00189e-20)
(1.19365 0.0399332 3.82358e-18)
(1.20164 0.0230683 1.06717e-18)
(1.2527 0.0460612 1.14108e-18)
(1.26542 0.0129463 7.59039e-18)
(1.38742 0.0499226 -2.21662e-17)
(1.40461 -0.0112618 -2.82244e-17)
(1.42685 0.0613237 1.67371e-17)
(1.12387 0.0230479 2.35157e-18)
(1.1511 0.0314884 2.48831e-18)
(1.16154 0.0230529 -3.7466e-19)
(1.19373 0.0381231 3.75942e-18)
(1.20175 0.0203044 1.03166e-18)
(1.25265 0.0429876 8.67261e-19)
(1.26548 0.00733585 7.39221e-18)
(1.38728 0.0438241 -2.15479e-17)
(1.40422 -0.0252906 -2.69792e-17)
(1.41711 0.0471195 1.7791e-17)
(1.12409 0.0219482 2.27463e-18)
(1.15118 0.030278 2.42059e-18)
(1.16169 0.0214708 -6.46079e-19)
(1.19378 0.0363131 3.67072e-18)
(1.20183 0.0175393 1.11479e-18)
(1.25251 0.0399035 6.96294e-19)
(1.26545 0.00172215 8.52863e-18)
(1.38688 0.0376632 -2.11812e-17)
(1.40356 -0.0393343 -2.26156e-17)
(1.40827 0.0329115 2.47629e-17)
(1.1243 0.0208481 2.1984e-18)
(1.15124 0.029069 2.2698e-18)
(1.16183 0.0198923 -2.54815e-19)
(1.19379 0.0345034 3.49472e-18)
(1.20186 0.0147764 1.12508e-18)
(1.25228 0.0368083 9.60147e-19)
(1.26532 -0.00388539 7.70554e-18)
(1.38618 0.0314427 -2.08938e-17)
(1.40268 -0.0534191 -2.56664e-17)
(1.40069 0.0186956 2.18899e-17)
(1.12451 0.0197486 2.12549e-18)
(1.15128 0.0278612 2.1807e-18)
(1.16193 0.0183208 -1.42398e-19)
(1.19375 0.0326919 3.44798e-18)
(1.20182 0.0120237 1.12819e-18)
(1.25192 0.0336953 1.11303e-18)
(1.26499 -0.00946553 5.32444e-18)
(1.3851 0.025142 -2.02286e-17)
(1.40146 -0.0675374 -2.47645e-17)
(1.39412 0.00455954 1.32216e-17)
(1.11997 0.0401667 3.84534e-18)
(1.14802 0.0507177 4.58921e-18)
(1.15702 0.0484256 7.27498e-19)
(1.18912 0.0668005 3.47558e-18)
(1.19636 0.0638534 3.14319e-18)
(1.24593 0.0907454 5.72661e-18)
(1.25841 0.0943186 -3.76761e-18)
(1.36364 0.132769 -6.2292e-18)
(1.37992 0.201692 -1.99818e-17)
(1.51722 0.275483 5.58555e-18)
(1.12024 0.0391439 3.77355e-18)
(1.14832 0.0495398 4.42507e-18)
(1.15741 0.0468569 6.8168e-19)
(1.18963 0.0650383 3.24762e-18)
(1.19688 0.0612121 3.01543e-18)
(1.24685 0.0878452 5.49601e-18)
(1.25917 0.0892171 -3.75482e-18)
(1.36685 0.127738 -6.41503e-18)
(1.38292 0.187825 -2.04377e-17)
(1.51153 0.261594 1.16366e-17)
(1.12051 0.0381122 3.59618e-18)
(1.14861 0.0483568 4.21223e-18)
(1.1578 0.0452814 7.76641e-19)
(1.19013 0.0632696 3.42549e-18)
(1.19743 0.0585496 2.14569e-18)
(1.24776 0.0849297 5.19099e-18)
(1.26006 0.0840359 -3.5503e-18)
(1.36997 0.122617 -6.44089e-18)
(1.38624 0.17405 -2.29394e-17)
(1.5052 0.247752 2.97017e-18)
(1.12077 0.0370721 3.54859e-18)
(1.14888 0.0471691 3.89453e-18)
(1.15817 0.0436996 1.1499e-18)
(1.19059 0.0614951 4.50425e-18)
(1.19794 0.0558677 2.95884e-18)
(1.24856 0.0819993 4.73932e-18)
(1.26087 0.0787814 -2.9213e-18)
(1.37279 0.11741 -1.02736e-17)
(1.38935 0.160281 -2.08914e-17)
(1.50103 0.233892 -4.35566e-18)
(1.12103 0.0360241 3.42039e-18)
(1.14913 0.0459771 4.46745e-18)
(1.15852 0.0421123 1.02529e-18)
(1.191 0.0597156 5.74661e-18)
(1.19841 0.0531688 2.64173e-18)
(1.24926 0.0790558 2.3919e-18)
(1.2616 0.0734624 -9.91493e-19)
(1.37525 0.112125 -1.40306e-17)
(1.39215 0.14644 -1.672e-17)
(1.49842 0.219947 -6.27573e-18)
(1.12128 0.0349685 3.24203e-18)
(1.14937 0.0447815 4.32567e-18)
(1.15884 0.0405205 6.54334e-19)
(1.19138 0.0579319 4.72855e-18)
(1.19885 0.0504558 1.72109e-18)
(1.24984 0.0760998 4.94786e-19)
(1.26227 0.0680862 -3.12434e-19)
(1.37738 0.10677 -1.65251e-17)
(1.39471 0.132479 -1.56066e-17)
(1.4967 0.205883 -1.39734e-17)
(1.12153 0.0339058 3.15379e-18)
(1.14959 0.0435826 4.27331e-18)
(1.15915 0.038925 6.47227e-19)
(1.19172 0.0561442 4.85269e-18)
(1.19927 0.0477311 1.88133e-18)
(1.25032 0.0731331 -5.28761e-21)
(1.26283 0.0626596 1.76063e-18)
(1.37919 0.101351 -1.33291e-17)
(1.39709 0.118369 -1.15674e-17)
(1.49575 0.19168 -1.23474e-17)
(1.12177 0.0328366 3.11273e-18)
(1.14979 0.0423809 4.61548e-18)
(1.15945 0.0373268 6.55596e-19)
(1.19201 0.0543526 5.67861e-18)
(1.19966 0.0449965 2.70306e-18)
(1.25074 0.070159 -1.29851e-18)
(1.26328 0.0571912 2.43322e-18)
(1.38073 0.0958723 -1.60592e-17)
(1.39928 0.104076 -1.16578e-17)
(1.49564 0.17732 -4.23092e-18)
(1.12201 0.0317616 2.93892e-18)