/*--------------------------------*- C++ -*----------------------------------*\
  =========                 |
  \\      /  F ield         | OpenFOAM: The Open Source CFD Toolbox
   \\    /   O peration     | Website:  https://openfoam.org
    \\  /    A nd           | Version:  7
     \\/     M anipulation  |
\*---------------------------------------------------------------------------*/
FoamFile
{
    version     2.0;
    format      ascii;
    class       surfaceScalarField;
    location    "74";
    object      phi;
}
// * * * * * * * * * * * * * * * * * * * * * * * * * * * * * * * * * * * * * //

dimensions      [0 3 -1 0 0 0 0];

internalField   nonuniform List<scalar> 
22080
(
0.000682002
3.9437e-07
-4.8068e-07
0.000682298
1.71834e-06
-2.01426e-06
0.000682872
3.66904e-06
-4.24236e-06
0.000683667
5.27366e-06
-6.0693e-06
0.000684584
6.18933e-06
-7.10587e-06
0.000685514
6.25643e-06
-7.18697e-06
0.000686354
5.43994e-06
-6.27917e-06
0.000687007
3.79369e-06
-4.44665e-06
0.000687391
1.40616e-06
-1.79086e-06
0.000687439
-1.61527e-06
1.56758e-06
0.000687092
-5.17686e-06
5.52423e-06
0.000686304
-9.16218e-06
9.94953e-06
0.000685042
-1.34823e-05
1.47447e-05
0.000683278
-1.80539e-05
1.98175e-05
0.000680995
-2.28028e-05
2.50857e-05
0.000678182
-2.76645e-05
3.04778e-05
0.000674833
-3.25818e-05
3.59304e-05
0.00067095
-3.7504e-05
4.13869e-05
0.000666539
-4.23849e-05
4.67964e-05
0.00066161
-4.71824e-05
5.21118e-05
0.000656177
-5.18564e-05
5.72887e-05
0.000650261
-5.63685e-05
6.22845e-05
0.000643885
-6.06812e-05
6.70576e-05
0.000637075
-6.47574e-05
7.15669e-05
0.000629864
-6.85605e-05
7.57719e-05
0.000622285
-7.20545e-05
7.9633e-05
0.000614378
-7.52046e-05
8.31119e-05
0.000606184
-7.79783e-05
8.61727e-05
0.000597747
-8.03461e-05
8.87833e-05
0.000589113
-8.22826e-05
9.09158e-05
0.000580332
-8.37676e-05
9.25485e-05
0.000571453
-8.47873e-05
9.36664e-05
0.000562526
-8.53347e-05
9.42622e-05
0.000553599
-8.54099e-05
9.43366e-05
0.000544722
-8.5021e-05
9.38987e-05
0.000535939
-8.41828e-05
9.29656e-05
0.000527294
-8.29173e-05
9.15615e-05
0.000518829
-8.12515e-05
8.9717e-05
0.000510579
-7.92172e-05
8.7467e-05
0.000502578
-7.68487e-05
8.48496e-05
0.000494856
-7.41817e-05
8.19045e-05
0.000487436
-7.12522e-05
7.86713e-05
0.000480343
-6.8095e-05
7.51885e-05
0.000473593
-6.47438e-05
7.14935e-05
0.000467202
-6.12305e-05
6.76214e-05
0.000461182
-5.75856e-05
6.3606e-05
0.000455541
-5.38384e-05
5.94798e-05
0.000450284
-5.00176e-05
5.52745e-05
0.000445414
-4.61517e-05
5.10217e-05
0.00044093
-4.22697e-05
4.67535e-05
0.000436829
-3.84011e-05
4.25025e-05
0.000433102
-3.45766e-05
3.83027e-05
0.000429741
-3.08277e-05
3.41888e-05
0.000426732
-2.71867e-05
3.01964e-05
0.000424057
-2.36861e-05
2.63611e-05
0.000421697
-2.03574e-05
2.27174e-05
0.000419629
-1.72306e-05
1.9298e-05
0.00041783
-1.43327e-05
1.61323e-05
0.000416271
-1.16871e-05
1.32456e-05
0.000414926
-9.31444e-06
1.06597e-05
0.000413765
-7.22658e-06
8.38757e-06
0.000412759
-5.43072e-06
6.43669e-06
0.000411879
-3.93034e-06
4.81019e-06
0.000411097
-2.72167e-06
3.50376e-06
0.000410385
-1.79816e-06
2.50994e-06
0.000409718
-1.15139e-06
1.8189e-06
0.00040907
-7.67456e-07
1.41582e-06
0.000408417
-6.32661e-07
1.28556e-06
0.000407736
-7.31269e-07
1.41222e-06
0.000407004
-1.0501e-06
1.78175e-06
0.000406199
-1.57787e-06
2.38259e-06
0.000405301
-2.31485e-06
3.21359e-06
0.000404285
-3.25439e-06
4.26952e-06
0.00040313
-4.39673e-06
5.55175e-06
0.00040181
-5.75098e-06
7.07104e-06
0.000400298
-7.33408e-06
8.84656e-06
0.000398563
-9.16942e-06
1.09045e-05
0.000396571
-1.12931e-05
1.32849e-05
0.000394284
-1.37461e-05
1.60332e-05
0.000391656
-1.6592e-05
1.92196e-05
0.000388636
-1.98927e-05
2.29125e-05
0.000385162
-2.37623e-05
2.72362e-05
0.000381164
-2.82832e-05
3.22817e-05
0.000376552
-3.36611e-05
3.8273e-05
0.000371229
-3.9986e-05
4.53095e-05
0.000365061
-4.76607e-05
5.38286e-05
0.000357909
-5.67223e-05
6.38738e-05
0.000349564
-6.80256e-05
7.63711e-05
0.000339828
-8.13713e-05
9.11068e-05
0.000328343
-9.86456e-05
0.000110131
0.000314843
-0.00011904
0.00013254
0.000298677
-0.000146344
0.000162511
0.000279482
-0.000179526
0.000198721
0.000256175
-0.000222629
0.000245936
0.000227902
-0.00028252
0.000310793
0.000194097
-0.000343085
0.00037689
0.000150585
-0.000456569
0.000500081
0.00010467
-0.000501266
0.000547181
4.20234e-05
-0.000607995
0.000670642
-0.000417928
0.000459952
0.000691659
3.22286e-07
0.000691921
1.45675e-06
0.000692442
3.14781e-06
0.000693173
4.54304e-06
0.000694019
5.34311e-06
0.000694877
5.3981e-06
0.000695644
4.67307e-06
0.000696225
3.21284e-06
0.000696537
1.09388e-06
0.000696512
-1.5894e-06
0.000696089
-4.75403e-06
0.000695223
-8.2965e-06
0.000693879
-1.21379e-05
0.000692029
-1.62039e-05
0.000689655
-2.04288e-05
0.000686745
-2.4755e-05
0.000683295
-2.91319e-05
0.000679306
-3.35143e-05
0.000674782
-3.78615e-05
0.000669736
-4.2136e-05
0.000664182
-4.63022e-05
0.000658139
-5.03262e-05
0.000651633
-5.41744e-05
0.000644689
-5.78139e-05
0.00063734
-6.12118e-05
0.000629622
-6.43358e-05
0.000621572
-6.71549e-05
0.000613233
-6.96397e-05
0.00060465
-7.17633e-05
0.000595871
-7.35029e-05
0.000586943
-7.48401e-05
0.000577918
-7.57619e-05
0.000568845
-7.62617e-05
0.000559774
-7.63393e-05
0.000550755
-7.60013e-05
0.000541833
-7.52608e-05
0.000533052
-7.41369e-05
0.000524455
-7.26537e-05
0.000516077
-7.08392e-05
0.000507952
-6.87242e-05
0.000500111
-6.63403e-05
0.000492578
-6.37197e-05
0.000485377
-6.08937e-05
0.000478525
-5.78921e-05
0.000472038
-5.47437e-05
0.000465928
-5.14756e-05
0.000460204
-4.8114e-05
0.000454871
-4.46848e-05
0.000449933
-4.12132e-05
0.000445388
-3.77253e-05
0.000441235
-3.42475e-05
0.000437465
-3.08074e-05
0.000434071
-2.74332e-05
0.000431038
-2.41541e-05
0.000428351
-2.09992e-05
0.000425991
-1.79973e-05
0.000423936
-1.51752e-05
0.000422161
-1.25578e-05
0.00042064
-1.01663e-05
0.000419346
-8.02002e-06
0.000418249
-6.12968e-06
0.00041732
-4.50198e-06
0.00041653
-3.1407e-06
0.000415851
-2.04248e-06
0.000415255
-1.20147e-06
0.000414714
-6.11185e-07
0.000414205
-2.58123e-07
0.000413702
-1.29174e-07
0.000413181
-2.10681e-07
0.000412621
-4.90088e-07
0.000411997
-9.54231e-07
0.00041129
-1.60715e-06
0.000410475
-2.43985e-06
0.00040953
-3.45163e-06
0.000408429
-4.64995e-06
0.000407144
-6.04946e-06
0.000405646
-7.67076e-06
0.000403898
-9.54579e-06
0.000401863
-1.1711e-05
0.000399495
-1.42232e-05
0.00039674
-1.71376e-05
0.000393535
-2.05574e-05
0.000389808
-2.45563e-05
0.000385467
-2.93208e-05
0.000380412
-3.49306e-05
0.000374503
-4.17519e-05
0.000367597
-4.98155e-05
0.00035947
-5.98988e-05
0.000349917
-7.18181e-05
0.000338555
-8.72838e-05
0.000325095
-0.00010558
0.000308846
-0.000130095
0.000289368
-0.000160048
0.000265548
-0.000198809
0.000236263
-0.000253235
0.000201058
-0.000307879
0.000155226
-0.000410736
0.000106403
-0.000452444
4.24443e-05
-0.000544036
-0.000375484
0.000700273
2.61637e-07
0.000700506
1.22337e-06
0.000700983
2.6708e-06
0.000701658
3.86823e-06
0.000702443
4.55797e-06
0.000703239
4.60298e-06
0.000703942
3.9699e-06
0.000704459
2.69572e-06
0.000704707
8.45707e-07
0.000704616
-1.49833e-06
0.000704126
-4.26426e-06
0.000703191
-7.36132e-06
0.000701774
-1.07207e-05
0.000699847
-1.42774e-05
0.000697392
-1.7974e-05
0.000694398
-2.17602e-05
0.000690858
-2.5592e-05
0.000686773
-2.94299e-05
0.00068215
-3.32387e-05
0.000677
-3.69856e-05
0.000671338
-4.06399e-05
0.000665183
-4.41716e-05
0.000658561
-4.75517e-05
0.000651498
-5.0751e-05
0.000644027
-5.37408e-05
0.000636183
-5.64924e-05
0.000628007
-5.89784e-05
0.000619539
-6.11724e-05
0.000610827
-6.30508e-05
0.000601917
-6.45927e-05
0.000592858
-6.57817e-05
0.000583702
-6.66059e-05
0.0005745
-6.70589e-05
0.0005653
-6.71401e-05
0.000556154
-6.68548e-05
0.000547107
-6.62142e-05
0.000538205
-6.52346e-05
0.000529488
-6.39372e-05
0.000520995
-6.23463e-05
0.00051276
-6.04887e-05
0.000504812
-5.83923e-05
0.000497178
-5.60853e-05
0.000489879
-5.35952e-05
0.000482935
-5.09485e-05
0.000476362
-4.81701e-05
0.000470171
-4.52844e-05
0.000464371
-4.23143e-05
0.000458969
-3.92826e-05
0.000453967
-3.62119e-05
0.000449367
-3.3125e-05
0.000445165
-3.00454e-05
0.000441355
-2.69976e-05
0.000437929
-2.40067e-05
0.000434873
-2.10986e-05
0.000432173
-1.82993e-05
0.00042981
-1.56343e-05
0.000427763
-1.31278e-05
0.000426007
-1.08021e-05
0.000424517
-8.67621e-06
0.000423265
-6.76812e-06
0.000422223
-5.0871e-06
0.00042136
-3.63929e-06
0.000420648
-2.4287e-06
0.000420058
-1.45224e-06
0.000419561
-7.05089e-07
0.000419132
-1.81388e-07
0.000418743
1.30186e-07
0.000418373
2.41275e-07
0.000417994
1.6802e-07
0.000417583
-7.85524e-08
0.000417119
-4.9068e-07
0.000416579
-1.06754e-06
0.000415942
-1.80207e-06
0.000415182
-2.69169e-06
0.000414274
-3.74223e-06
0.000413191
-4.96605e-06
0.000411901
-6.38096e-06
0.00041037
-8.01461e-06
0.000408558
-9.89893e-06
0.000406418
-1.20835e-05
0.000403897
-1.4617e-05
0.000400931
-1.7591e-05
0.000397445
-2.10706e-05
0.000393346
-2.52216e-05
0.000388529
-3.0114e-05
0.000382852
-3.60743e-05
0.000376164
-4.3128e-05
0.000368234
-5.19686e-05
0.000358847
-6.24311e-05
0.000347599
-7.60359e-05
0.000334182
-9.2163e-05
0.000317868
-0.000113782
0.000298152
-0.000140332
0.000273898
-0.000174555
0.000243746
-0.000223083
0.000207339
-0.000271472
0.000159561
-0.000362958
0.000108222
-0.000401105
4.31619e-05
-0.000478976
-0.000332322
0.000707833
2.10113e-07
0.000708043
1.01301e-06
0.000708483
2.23076e-06
0.000709111
3.24071e-06
0.000709843
3.82509e-06
0.000710584
3.86234e-06
0.000711232
3.32191e-06
0.000711694
2.23398e-06
0.000711886
6.53293e-07
0.000711738
-1.35046e-06
0.00071119
-3.71614e-06
0.000710195
-6.36557e-06
0.000708714
-9.24013e-06
0.000706721
-1.22842e-05
0.000704195
-1.54487e-05
0.000701126
-1.8691e-05
0.000697508
-2.19735e-05
0.000693341
-2.52629e-05
0.000688631
-2.85292e-05
0.00068339
-3.17447e-05
0.000677634
-3.48831e-05
0.000671381
-3.79191e-05
0.000664657
-4.08277e-05
0.00065749
-4.3584e-05
0.000649912
-4.6163e-05
0.00064196
-4.85399e-05
0.000633672
-5.06908e-05
0.000625092
-5.25926e-05
0.000616266
-5.42245e-05
0.000607242
-5.55682e-05
0.000598068
-5.66087e-05
0.000588798
-5.73353e-05
0.000579481
-5.77421e-05
0.000570169
-5.78278e-05
0.000560911
-5.75967e-05
0.000551754
-5.70578e-05
0.000542745
-5.6225e-05
0.000533923
-5.51161e-05
0.000525329
-5.37518e-05
0.000516995
-5.21551e-05
0.000508953
-5.035e-05
0.000501228
-4.83606e-05
0.000493844
-4.62107e-05
0.000486818
-4.3923e-05
0.000480168
-4.15194e-05
0.000473904
-3.90207e-05
0.000468037
-3.64471e-05
0.000462572
-3.38182e-05
0.000457514
-3.11538e-05
0.000452863
-2.84739e-05
0.000448617
-2.5799e-05
0.000444769
-2.31503e-05
0.000441313
-2.05501e-05
0.000438235
-1.80208e-05
0.000435521
-1.55855e-05
0.000433153
-1.32665e-05
0.000431111
-1.10851e-05
0.000429369
-9.06093e-06
0.000427904
-7.21069e-06
0.000426687
-5.55106e-06
0.00042569
-4.08974e-06
0.000424882
-2.83216e-06
0.000424236
-1.78251e-06
0.000423722
-9.37692e-07
0.000423311
-2.94126e-07
0.000422977
1.52634e-07
0.000422694
4.12753e-07
0.000422435
4.99952e-07
0.000422178
4.25333e-07
0.0004219
1.99987e-07
0.000421573
-1.63621e-07
0.000421179
-6.74143e-07
0.000420695
-1.31785e-06
0.000420096
-2.09271e-06
0.000419356
-3.00268e-06
0.000418448
-4.05781e-06
0.00041734
-5.27311e-06
0.000415998
-6.67187e-06
0.00041438
-8.28143e-06
0.000412441
-1.01441e-05
0.000410125
-1.23014e-05
0.000407368
-1.48335e-05
0.000404093
-1.77965e-05
0.000400206
-2.13345e-05
0.0003956
-2.55079e-05
0.000390127
-3.06012e-05
0.000383635
-3.66356e-05
0.000375881
-4.4215e-05
0.000366645
-5.31957e-05
0.000355506
-6.48965e-05
0.000342137
-7.87942e-05
0.000325785
-9.74292e-05
0.00030588
-0.000120427
0.000281278
-0.000149953
0.000250404
-0.00019221
0.000212998
-0.000234066
0.000163604
-0.000313564
0.000110078
-0.000347579
4.39596e-05
-0.000412858
-0.000288362
0.000714329
1.65792e-07
0.000714521
8.21178e-07
0.000714931
1.82116e-06
0.000715519
2.65257e-06
0.000716208
3.13609e-06
0.000716903
3.16771e-06
0.000717504
2.72072e-06
0.000717918
1.81931e-06
0.000718063
5.08338e-07
0.000717867
-1.15422e-06
0.000717269
-3.1183e-06
0.000716222
-5.31823e-06
0.000714687
-7.70555e-06
0.000712637
-1.02341e-05
0.000710052
-1.28635e-05
0.00070692
-1.55585e-05
0.000703234
-1.82883e-05
0.000698997
-2.10256e-05
0.000694214
-2.37459e-05
0.000688895
-2.64264e-05
0.000683058
-2.90458e-05
0.000676722
-3.1583e-05
0.000669912
-3.40174e-05
0.000662656
-3.6328e-05
0.000654987
-3.84939e-05
0.000646941
-4.04942e-05
0.000638559
-4.23083e-05
0.000629883
-4.39166e-05
0.000620959
-4.53011e-05
0.000611837
-4.64457e-05
0.000602565
-4.73373e-05
0.000593196
-4.79664e-05
0.000583782
-4.83273e-05
0.000574372
-4.84183e-05
0.000565018
-4.82425e-05
0.000555767
-4.7807e-05
0.000546665
-4.71228e-05
0.000537753
-4.62047e-05
0.000529071
-4.50696e-05
0.000520653
-4.37367e-05
0.000512529
-4.22259e-05
0.000504726
-4.05575e-05
0.000497266
-3.87512e-05
0.00049017
-3.68264e-05
0.000483452
-3.48013e-05
0.000477125
-3.26937e-05
0.000471198
-3.05206e-05
0.000465679
-2.82991e-05
0.000460571
-2.60457e-05
0.000455875
-2.37777e-05
0.000451588
-2.15127e-05
0.000447707
-1.9269e-05
0.000444223
-1.70656e-05
0.000441124
-1.4922e-05
0.000438396
-1.28579e-05
0.000436022
-1.08925e-05
0.000433981
-9.0443e-06
0.000432251
-7.33003e-06
0.000430804
-5.76414e-06
0.000429615
-4.36188e-06
0.000428654
-3.12923e-06
0.000427893
-2.07081e-06
0.000427301
-1.19069e-06
0.000426851
-4.87276e-07
0.000426511
4.57626e-08
0.000426259
4.04646e-07
0.000426064
6.08012e-07
0.000425901
6.62347e-07
0.000425747
5.79369e-07
0.000425578
3.68735e-07
0.000425369
4.52972e-08
0.0004251
-4.04928e-07
0.000424747
-9.64389e-07
0.000424285
-1.63095e-06
0.000423689
-2.40665e-06
0.00042293
-3.29918e-06
0.000421978
-4.32082e-06
0.000420797
-5.49039e-06
0.000419346
-6.83063e-06
0.000417578
-8.37626e-06
0.000415439
-1.0162e-05
0.000412861
-1.22558e-05
0.000409769
-1.47047e-05
0.000406065
-1.76308e-05
0.000401642
-2.10846e-05
0.000396348
-2.53068e-05
0.000390027
-3.03148e-05
0.000382431
-3.66188e-05
0.000373333
-4.40978e-05
0.000362297
-5.38611e-05
0.000348984
-6.54802e-05
0.000332617
-8.10631e-05
0.000312573
-0.000100383
0.00028771
-0.00012509
0.000256259
-0.000160758
0.000218053
-0.00019586
0.00016735
-0.000262862
0.000111969
-0.000292198
4.487e-05
-0.000345758
-0.000243492
0.000719755
1.27059e-07
0.000719932
6.43984e-07
0.000720317
1.43605e-06
0.000720873
2.0964e-06
0.000721527
2.48297e-06
0.000722183
2.51091e-06
0.000722746
2.15813e-06
0.000723122
1.44351e-06
0.000723228
4.02577e-07
0.000722991
-9.18005e-07
0.000722352
-2.4794e-06
0.000721263
-4.22831e-06
0.000719683
-6.12642e-06
0.000717586
-8.13724e-06
0.000714952
-1.02289e-05
0.000711767
-1.23739e-05
0.000708027
-1.4548e-05
0.000703732
-1.67303e-05
0.000698887
-1.89016e-05
0.000693505
-2.10445e-05
0.000687602
-2.31421e-05
0.000681197
-2.5178e-05
0.000674315
-2.71358e-05
0.000666986
-2.89986e-05
0.000659241
-3.07495e-05
0.000651119
-3.23714e-05
0.000642658
-3.38474e-05
0.000633902
-3.5161e-05
0.000624898
-3.6297e-05
0.000615694
-3.72419e-05
0.000606341
-3.79843e-05
0.00059689
-3.85158e-05
0.000587394
-3.8831e-05
0.000577904
-3.89279e-05
0.000568469
-3.88082e-05
0.00055914
-3.84772e-05
0.00054996
-3.79432e-05
0.000540973
-3.72176e-05
0.000532217
-3.63139e-05
0.000523728
-3.52471e-05
0.000515535
-3.40331e-05
0.000507665
-3.26883e-05
0.000500143
-3.12285e-05
0.000492986
-2.96694e-05
0.00048621
-2.8026e-05
0.00047983
-2.63127e-05
0.000473853
-2.45436e-05
0.000468286
-2.27329e-05
0.000463135
-2.08943e-05
0.0004584
-1.90424e-05
0.000454079
-1.71917e-05
0.000450167
-1.53577e-05
0.000446658
-1.35564e-05
0.00044354
-1.18039e-05
0.000440799
-1.01169e-05
0.000438418
-8.51151e-06
0.000436377
-7.00319e-06
0.000434653
-5.60587e-06
0.00043322
-4.33158e-06
0.000432052
-3.19413e-06
0.000431121
-2.19774e-06
0.000430396
-1.34577e-06
0.000429849
-6.43629e-07
0.000429448
-8.61474e-08
0.00042917
3.22988e-07
0.000428982
5.92727e-07
0.00042886
7.30669e-07
0.000428776
7.46105e-07
0.000428707
6.48261e-07
0.000428629
4.4681e-07
0.000428519
1.55209e-07
0.000428352
-2.38023e-07
0.000428107
-7.19507e-07
0.00042776
-1.28321e-06
0.000427283
-1.93002e-06
0.000426649
-2.66516e-06
0.000425826
-3.49824e-06
0.00042478
-4.44356e-06
0.000423468
-5.51923e-06
0.000421844
-6.75229e-06
0.000419853
-8.17039e-06
0.000417426
-9.82933e-06
0.000414488
-1.1767e-05
0.00041094
-1.40825e-05
0.000406672
-1.68169e-05
0.000401531
-2.01656e-05
0.000395359
-2.41427e-05
0.000387901
-2.91611e-05
0.000378928
-3.5124e-05
0.000367991
-4.29248e-05
0.000354739
-5.22277e-05
0.000338384
-6.4708e-05
0.00031825
-8.02485e-05
0.00029321
-0.000100051
0.000261321
-0.000128869
0.000222514
-0.000157053
0.000170797
-0.000211145
0.000113905
-0.000235305
4.59286e-05
-0.000277782
-0.000197564
0.000724103
9.25391e-08
0.000724269
4.77992e-07
0.000724635
1.06996e-06
0.000725166
1.56528e-06
0.000725791
1.85811e-06
0.000726418
1.88398e-06
0.00072695
1.62607e-06
0.000727295
1.09847e-06
0.00072737
3.27791e-07
0.000727102
-6.50218e-07
0.000726431
-1.8081e-06
0.000725307
-3.10483e-06
0.000723693
-4.51223e-06
0.00072156
-6.00351e-06
0.000718886
-7.55546e-06
0.00071566
-9.14819e-06
0.000711877
-1.07645e-05
0.000707536
-1.23895e-05
0.000702644
-1.40096e-05
0.000697212
-1.56126e-05
0.000691256
-1.71863e-05
0.000684797
-1.87188e-05
0.000677859
-2.0198e-05
0.000670472
-2.16113e-05
0.000662668
-2.29457e-05
0.000654485
-2.41879e-05
0.000645962
-2.53244e-05
0.000637143
-2.63423e-05
0.000628075
-2.72291e-05
0.000618807
-2.79737e-05
0.000609389
-2.85666e-05
0.000599874
-2.90003e-05
0.000590313
-2.92698e-05
0.000580758
-2.93729e-05
0.00057126
-2.931e-05
0.000561867
-2.90843e-05
0.000552625
-2.87015e-05
0.000543577
-2.81698e-05
0.000534762
-2.74989e-05
0.000526215
-2.66999e-05
0.000517967
-2.57847e-05
0.000510044
-2.47655e-05
0.00050247
-2.36544e-05
0.000495264
-2.24633e-05
0.000488442
-2.12039e-05
0.000482016
-1.98874e-05
0.000475998
-1.8525e-05
0.000470393
-1.71278e-05
0.000465205
-1.5707e-05
0.000460437
-1.42743e-05
0.000456087
-1.28414e-05
0.00045215
-1.14208e-05
0.000448619
-1.00255e-05
0.000445484
-8.6686e-06
0.00044273
-7.36345e-06
0.000440342
-6.12311e-06
0.000438299
-4.96005e-06
0.000436578
-3.8853e-06
0.000435155
-2.90851e-06
0.000434003
-2.04182e-06
0.000433093
-1.28753e-06
0.000432396
-6.49205e-07
0.000431881
-1.28604e-07
0.000431524
2.71143e-07
0.00043129
5.56687e-07
0.000431154
7.28556e-07
0.000431088
7.96572e-07
0.000431067
7.67545e-07
0.000431065
6.49674e-07
0.000431061
4.51675e-07
0.000431027
1.88425e-07
0.000430943
-1.53881e-07
0.000430785
-5.61483e-07
0.000430529
-1.0267e-06
0.000430148
-1.54909e-06
0.000429614
-2.13118e-06
0.000428896
-2.77999e-06
0.000427957
-3.50523e-06
0.000426758
-4.3204e-06
0.000425251
-5.24475e-06
0.000423379
-6.29884e-06
0.000421076
-7.52604e-06
0.000418264
-8.95525e-06
0.000414844
-1.0662e-05
0.000410705
-1.26782e-05
0.000405692
-1.51524e-05
0.000399646
-1.80964e-05
0.000392308
-2.18232e-05
0.000383444
-2.62608e-05
0.000372602
-3.20825e-05
0.000359417
-3.90427e-05
0.000343097
-4.83874e-05
0.000322921
-6.00733e-05
0.000297787
-7.49166e-05
0.0002656
-9.66826e-05
0.000226388
-0.00011784
0.000173939
-0.000158696
0.000115886
-0.000177252
4.71498e-05
-0.000209046
-0.000150414
0.000727369
6.10366e-08
0.000727526
3.20126e-07
0.000727879
7.17844e-07
0.000728391
1.05262e-06
0.000728995
1.25414e-06
0.0007296
1.27917e-06
0.000730109
1.11662e-06
0.000730432
7.7615e-07
0.000730484
2.75807e-07
0.000730193
-3.59207e-07
0.000729498
-1.11304e-06
0.00072835
-1.95681e-06
0.00072671
-2.87247e-06
0.000724549
-3.84297e-06
0.000721848
-4.85378e-06
0.000718592
-5.89275e-06
0.000714777
-6.94963e-06
0.000710404
-8.01563e-06
0.000705477
-9.08294e-06
0.000700009
-1.01443e-05
0.000694015
-1.11926e-05
0.000687516
-1.22202e-05
0.000680538
-1.32195e-05
0.000673109
-1.4182e-05
0.000665261
-1.50987e-05
0.000657034
-1.596e-05
0.000648465
-1.67563e-05
0.000639601
-1.74776e-05
0.000630486
-1.81145e-05
0.000621171
-1.86583e-05
0.000611705
-1.91011e-05
0.000602142
-1.94368e-05
0.000592533
-1.96607e-05
0.00058293
-1.97701e-05
0.000573384
-1.97642e-05
0.000563944
-1.96442e-05
0.000554656
-1.94134e-05
0.000545562
-1.90763e-05
0.000536703
-1.86392e-05
0.000528112
-1.81092e-05
0.000519821
-1.74941e-05
0.000511858
-1.68019e-05
0.000504244
-1.6041e-05
0.000497001
-1.52195e-05
0.000490142
-1.43458e-05
0.000483683
-1.34278e-05
0.000477632
-1.24739e-05
0.000471996
-1.14922e-05
0.00046678
-1.04913e-05
0.000461986
-9.48002e-06
0.000457612
-8.46736e-06
0.000453654
-7.46294e-06
0.000450105
-6.47662e-06
0.000446955
-5.5185e-06
0.000444191
-4.59873e-06
0.000441795
-3.72722e-06
0.000439748
-2.91347e-06
0.000438028
-2.16546e-06
0.00043661
-1.49063e-06
0.000435468
-8.99623e-07
0.000434574
-3.92788e-07
0.000433894
3.03878e-08
0.000433407
3.58629e-07
0.000433076
6.01354e-07
0.000432877
7.56434e-07
0.000432778
8.27105e-07
0.000432754
8.20562e-07
0.000432779
7.42914e-07
0.000432828
6.0099e-07
0.000432876
4.02723e-07
0.000432902
1.63104e-07
0.00043288
-1.31974e-07
0.000432787
-4.68643e-07
0.000432599
-8.39023e-07
0.000432291
-1.24057e-06
0.000431833
-1.67306e-06
0.000431194
-2.14104e-06
0.000430338
-2.64961e-06
0.000429225
-3.20769e-06
0.000427807
-3.82661e-06
0.000426028
-4.51984e-06
0.000423821
-5.31826e-06
0.000421107
-6.24178e-06
0.000417787
-7.34207e-06
0.000413751
-8.64191e-06
0.000408841
-1.02426e-05
0.000402898
-1.21535e-05
0.000395661
-1.45862e-05
0.000386895
-1.74944e-05
0.000376141
-2.1329e-05
0.000363029
-2.59309e-05
0.000346766
-3.21238e-05
0.000326597
-3.99043e-05
0.000301447
-4.97667e-05
0.000269098
-6.43335e-05
0.000229672
-7.84149e-05
0.000176766
-0.00010579
0.000117905
-0.000118391
4.85439e-05
-0.000139685
-0.00010187
0.000729547
3.14852e-08
0.0007297
1.67564e-07
0.000730043
3.74912e-07
0.000730543
5.52139e-07
0.000731133
6.6394e-07
0.000731724
6.88906e-07
0.000732218
6.21975e-07
0.000732526
4.68636e-07
0.000732563
2.38434e-07
0.000732257
-5.32095e-08
0.000731547
-4.0292e-07
0.000730383
-7.9326e-07
0.000728728
-1.21662e-06
0.00072655
-1.66564e-06
0.000723831
-2.13448e-06
0.000720557
-2.61878e-06
0.000716723
-3.11523e-06
0.000712328
-3.62127e-06
0.00070738
-4.13473e-06
0.000701889
-4.65356e-06
0.000695872
-5.17534e-06
0.000689349
-5.69723e-06
0.000682345
-6.21571e-06
0.00067489
-6.72652e-06
0.000667016
-7.22467e-06
0.00065876
-7.70446e-06
0.000650163
-8.15971e-06
0.00064127
-8.58386e-06
0.000632126
-8.97035e-06
0.00062278
-9.3128e-06
0.000613284
-9.60529e-06
0.00060369
-9.84265e-06
0.00059405
-1.00207e-05
0.000584416
-1.01362e-05
0.000574839
-1.01873e-05
0.000565368
-1.01733e-05
0.000556049
-1.00945e-05
0.000546926
-9.95252e-06
0.000538036
-9.74973e-06
0.000529416
-9.48926e-06
0.000521097
-9.1748e-06
0.000513105
-8.81041e-06
0.000505465
-8.40047e-06
0.000498195
-7.94954e-06
0.000491311
-7.4624e-06
0.000484828
-6.94403e-06
0.000478753
-6.39961e-06
0.000473096
-5.83468e-06
0.000467859
-5.25487e-06
0.000463046
-4.66643e-06
0.000458654
-4.07556e-06
0.00045468
-3.48898e-06
0.000451117
-2.91358e-06
0.000447955
-2.35634e-06
0.00044518
-1.82427e-06
0.000442777
-1.32414e-06
0.000440726
-8.6244e-07
0.000439005
-4.44476e-07
0.000437588
-7.34996e-08
0.00043645
2.3806e-07
0.000435563
4.94829e-07
0.000434899
6.94516e-07
0.000434424
8.33662e-07
0.000434112
9.13272e-07
0.000433933
9.35425e-07
0.000433858
9.01461e-07
0.000433862
8.17291e-07
0.000433917
6.88015e-07
0.000433999
5.19072e-07
0.000434084
3.17233e-07
0.000434148
9.94579e-08
0.000434167
-1.51546e-07
0.000434119
-4.2027e-07
0.000433978
-6.98015e-07
0.000433719
-9.81309e-07
0.000433312
-1.26685e-06
0.000432728
-1.55663e-06
0.00043193
-1.85114e-06
0.000430877
-2.15483e-06
0.000429521
-2.47106e-06
0.000427807
-2.80616e-06
0.000425668
-3.17849e-06
0.000423025
-3.59907e-06
0.000419778
-4.09555e-06
0.000415818
-4.6817e-06
0.000410987
-5.41103e-06
0.000405124
-6.29122e-06
0.000397969
-7.43126e-06
0.000389286
-8.81088e-06
0.000378615
-1.06583e-05
0.000365581
-1.28969e-05
0.000349396
-1.59381e-05
0.000329279
-1.97875e-05
0.00030419
-2.46779e-05
0.000271812
-3.19554e-05
0.000232365
-3.89676e-05
0.000179268
-5.26927e-05
0.000119961
-5.90846e-05
5.01277e-05
-6.98512e-05
-5.17425e-05
0.000730636
2.89768e-09
0.000730786
1.76471e-08
0.000731124
3.65791e-08
0.000731619
5.77279e-08
0.000732202
8.05593e-08
0.000732785
1.05753e-07
0.000733273
1.34444e-07
0.000733573
1.68029e-07
0.000733604
2.07958e-07
0.000733292
2.58921e-07
0.000732575
3.13894e-07
0.000731405
3.7686e-07
0.000729742
4.45879e-07
0.000727558
5.18508e-07
0.000724832
5.91848e-07
0.00072155
6.62493e-07
0.000717708
7.26788e-07
0.000713306
7.81045e-07
0.00070835
8.21774e-07
0.00070285
8.45889e-07
0.000696824
8.50946e-07
0.000690291
8.35253e-07
0.000683278
7.97987e-07
0.000675812
7.39238e-07
0.000667927
6.60011e-07
0.000659661
5.62167e-07
0.000651053
4.48323e-07
0.000642147
3.21722e-07
0.000632991
1.86064e-07
0.000623632
4.53214e-08
0.000614124
-9.63888e-08
0.000604516
-2.35051e-07
0.000594862
-3.66831e-07
0.000585214
-4.88211e-07
0.000575623
-5.96056e-07
0.000566137
-6.87678e-07
0.000556804
-7.60851e-07
0.000547665
-8.13812e-07
0.000538761
-8.45255e-07
0.000530126
-8.54321e-07
0.000521791
-8.40592e-07
0.000513785
-8.04085e-07
0.00050613
-7.45259e-07
0.000498845
-6.65018e-07
0.000491948
-5.64719e-07
0.00048545
-4.46168e-07
0.000479362
-3.11608e-07
0.000473691
-1.63711e-07
0.000468441
-5.42418e-09
0.000463615
1.59626e-07
0.000459212
3.28104e-07
0.000455227
4.96109e-07
0.000451653
6.59754e-07
0.000448482
8.15121e-07
0.000445699
9.58376e-07
0.000443289
1.08589e-06
0.000441232
1.19421e-06
0.000439507
1.28104e-06
0.00043809
1.3439e-06
0.000436951
1.37612e-06
0.000436066
1.38069e-06
0.000435403
1.35705e-06
0.000434934
1.30262e-06
0.000434629
1.21844e-06
0.000434459
1.10558e-06
0.000434395
9.65071e-07
0.000434411
8.01427e-07
0.00043448
6.18723e-07
0.000434578
4.20935e-07
0.000434682
2.13945e-07
0.000434766
1.47184e-08
0.000434808
-1.92745e-07
0.000434782
-3.94279e-07
0.000434665
-5.81403e-07
0.000434432
-7.48352e-07
0.000434054
-8.88452e-07
0.000433499
-1.00209e-06
0.000432733
-1.08479e-06
0.000431714
-1.13584e-06
0.000430394
-1.15116e-06
0.000428718
-1.13031e-06
0.000426619
-1.07907e-06
0.000424019
-9.99495e-07
0.000420819
-8.95192e-07
0.000416908
-7.71072e-07
0.00041213
-6.32881e-07
0.000406326
-4.86761e-07
0.000399233
-3.39169e-07
0.000390619
-1.96169e-07
0.000380024
-6.37028e-08
0.000367074
5.35529e-08
0.000350984
1.5126e-07
0.000330969
2.27572e-07
0.000306011
2.80434e-07
0.000273744
3.11167e-07
0.000234455
3.22167e-07
0.000181444
3.1743e-07
0.000122053
3.06988e-07
5.1928e-05
2.73634e-07
1.85544e-07
0.000474001
2.10794e-06
-2.48026e-06
0.000474867
6.41933e-06
-7.28533e-06
0.000476124
1.14793e-05
-1.27368e-05
0.000477666
1.54897e-05
-1.70316e-05
0.000479314
1.75287e-05
-1.91763e-05
0.000480942
1.76375e-05
-1.92653e-05
0.000482454
1.58899e-05
-1.74025e-05
0.000483776
1.24896e-05
-1.38114e-05
0.000484848
7.66488e-06
-8.73657e-06
0.000485623
1.65391e-06
-2.42894e-06
0.000486066
-5.34754e-06
4.90423e-06
0.00048615
-1.31223e-05
1.30385e-05
0.000485853
-2.14985e-05
2.17952e-05
0.00048516
-3.03218e-05
3.10143e-05
0.000484062
-3.94544e-05
4.05529e-05
0.000482552
-4.87773e-05
5.02872e-05
0.000480629
-5.81844e-05
6.01076e-05
0.000478294
-6.75811e-05
6.99155e-05
0.000475554
-7.68808e-05
7.96214e-05
0.000472416
-8.60035e-05
8.91418e-05
0.000468891
-9.48734e-05
9.83978e-05
0.000464995
-0.000103417
0.000107313
0.000460745
-0.000111563
0.000115813
0.000456162
-0.000119241
0.000123824
0.00045127
-0.000126381
0.000131273
0.000446095
-0.000132915
0.00013809
0.000440668
-0.000138779
0.000144206
0.00043502
-0.000143912
0.00014956
0.000429186
-0.000148261
0.000154095
0.000423202
-0.000151782
0.000157766
0.000417106
-0.000154442
0.000160538
0.000410935
-0.000156219
0.00016239
0.000404727
-0.000157107
0.000163315
0.00039852
-0.000157113
0.00016332
0.000392348
-0.000156258
0.00016243
0.000386245
-0.000154576
0.000160679
0.000380242
-0.000152113
0.000158116
0.000374368
-0.000148924
0.000154798
0.000368648
-0.000145071
0.000150791
0.000363106
-0.000140621
0.000146163
0.000357761
-0.000135641
0.000140986
0.000352631
-0.0001302
0.00013533
0.000347728
-0.000124363
0.000129266
0.000343064
-0.000118195
0.000122859
0.000338647
-0.000111759
0.000116176
0.000334481
-0.000105113
0.00010928
0.000330567
-9.83191e-05
0.000102233
0.000326902
-9.14344e-05
9.50986e-05
0.000323482
-8.45184e-05
8.79385e-05
0.000320297
-7.76313e-05
8.08163e-05
0.000317335
-7.08335e-05
7.37961e-05
0.000314578
-6.41872e-05
6.69434e-05
0.000312009
-5.77546e-05
6.03235e-05
0.000309606
-5.15973e-05
5.40008e-05
0.000307344
-4.57743e-05
4.80366e-05
0.000305197
-4.03407e-05
4.24878e-05
0.000303138
-3.53453e-05
3.74042e-05
0.000301139
-3.08291e-05
3.28275e-05
0.000299174
-2.68249e-05
2.87901e-05
0.000297215
-2.3357e-05
2.53163e-05
0.000295235
-2.04376e-05
2.24172e-05
0.00029321
-1.80685e-05
2.00934e-05
0.000291117
-1.62431e-05
1.83366e-05
0.000288933
-1.4947e-05
1.71309e-05
0.000286639
-1.41614e-05
1.64559e-05
0.000284214
-1.38637e-05
1.62878e-05
0.000281643
-1.403e-05
1.66016e-05
0.000278906
-1.46368e-05
1.73732e-05
0.000275988
-1.56637e-05
1.85818e-05
0.000272872
-1.70941e-05
2.02107e-05
0.000269539
-1.89185e-05
2.22511e-05
0.000265973
-2.11346e-05
2.4701e-05
0.000262153
-2.37476e-05
2.7567e-05
0.000258061
-2.67718e-05
3.08646e-05
0.000253672
-3.02343e-05
3.46231e-05
0.000248963
-3.41748e-05
3.8884e-05
0.000243906
-3.86448e-05
4.37016e-05
0.000238472
-4.37166e-05
4.91507e-05
0.000232627
-4.94725e-05
5.53173e-05
0.000226334
-5.60305e-05
6.2323e-05
0.000219552
-6.35127e-05
7.02944e-05
0.000212236
-7.21109e-05
7.94276e-05
0.000204332
-8.19915e-05
8.9895e-05
0.000195786
-9.34815e-05
0.000102028
0.000186532
-0.000106786
0.00011604
0.000176503
-0.000122503
0.000132531
0.000165622
-0.000140817
0.000151699
0.000153815
-0.000162927
0.000174733
0.000140997
-0.000188766
0.000201584
0.00012711
-0.000220945
0.000234831
0.000112107
-0.000258321
0.000273324
9.59678e-05
-0.000306937
0.000323076
7.89965e-05
-0.000362301
0.000379273
6.09931e-05
-0.00043699
0.000454993
4.40824e-05
-0.000521254
0.000538164
2.66127e-05
-0.000624812
0.000642282
1.72199e-05
-0.000754863
0.000764256
6.56138e-06
-0.000812273
0.000822931
5.85962e-06
-0.000970856