/*--------------------------------*- C++ -*----------------------------------*\
  =========                 |
  \\      /  F ield         | OpenFOAM: The Open Source CFD Toolbox
   \\    /   O peration     | Website:  https://openfoam.org
    \\  /    A nd           | Version:  7
     \\/     M anipulation  |
\*---------------------------------------------------------------------------*/
FoamFile
{
    version     2.0;
    format      ascii;
    class       surfaceScalarField;
    location    "34";
    object      phi;
}
// * * * * * * * * * * * * * * * * * * * * * * * * * * * * * * * * * * * * * //

dimensions      [0 3 -1 0 0 0 0];

internalField   nonuniform List<scalar> 
225
(
-0.0041395
-0.00510467
-0.00419343
-0.00496404
-0.00424221
-0.00473772
-0.00428426
-0.00442176
-0.00432219
-0.00403059
-0.00359094
-0.00422765
-0.00514407
-0.0042027
-0.00513407
-0.0041783
-0.00513422
-0.00415846
-0.00513991
-0.0041458
-0.00514673
-0.0041442
-0.00515511
-0.00415698
-0.00515975
-0.00418756
-0.0051609
-0.00423827
-0.00515358
-0.00430964
-0.00513279
-0.00439904
-0.00508782
-0.0045002
-0.00500351
-0.00460437
-0.00485987
-0.00470301
-0.00463908
-0.00479117
-0.00433359
-0.00486924
-0.00395252
-0.00351867
-0.0042597
-0.00515564
-0.0042487
-0.00514508
-0.00424033
-0.00514258
-0.00423846
-0.00514178
-0.00424563
-0.00513956
-0.00426555
-0.00513519
-0.00430162
-0.00512367
-0.00435751
-0.00510502
-0.00443623
-0.00507486
-0.00453935
-0.00502967
-0.00466547
-0.00496169
-0.00480911
-0.00485987
-0.00496092
-0.00470806
-0.00510995
-0.00449005
-0.0052475
-0.00419605
-0.00537034
-0.00382968
-0.00340827
-0.00428765
-0.00515885
-0.00428781
-0.00514492
-0.0042925
-0.00513789
-0.00430545
-0.00512883
-0.00432907
-0.00511594
-0.00436684
-0.00509742
-0.00442208
-0.00506844
-0.00449845
-0.00502865
-0.00459938
-0.00497393
-0.00472738
-0.00490167
-0.00488262
-0.00480645
-0.00506138
-0.00468112
-0.00525528
-0.00451416
-0.00545249
-0.00429284
-0.00564114
-0.0040074
-0.00581362
-0.0036572
-0.00325347
-0.00431113
-0.00515609
-0.00431975
-0.00513631
-0.00433461
-0.00512302
-0.00435928
-0.00510416
-0.00439606
-0.00507917
-0.00444809
-0.00504538
-0.00451851
-0.00499802
-0.00461077
-0.0049364
-0.00472836
-0.00485634
-0.0048744
-0.00475562
-0.00505049
-0.00463036
-0.00525505
-0.00447656
-0.00548209
-0.00428712
-0.00572101
-0.00405392
-0.00595855
-0.00376986
-0.00618334
-0.0034324
-0.00304778
-0.00432974
-0.00514966
-0.00434419
-0.00512186
-0.0043666
-0.00510061
-0.00440011
-0.00507065
-0.00444692
-0.00503236
-0.00450985
-0.00498245
-0.0045918
-0.00491607
-0.00469588
-0.00483232
-0.00482531
-0.0047269
-0.00498326
-0.00459767
-0.00517217
-0.00444145
-0.00539216
-0.00425657
-0.00564016
-0.00403912
-0.00590873
-0.00378535
-0.00618658
-0.00349202
-0.00646067
-0.0031583
-0.00278815
-0.00434232
-0.00514179
-0.0043603
-0.00510387
-0.00438798
-0.00507294
-0.00442774
-0.00503089
-0.00448177
-0.00497834
-0.00455264
-0.00491157
-0.00464309
-0.00482562
-0.0047559
-0.00471951
-0.00489389
-0.00458891
-0.00505964
-0.00443193
-0.00525506
-0.00424603
-0.00548135
-0.00403028
-0.00573766
-0.00378281
-0.00601993
-0.00350308
-0.00632016
-0.00319179
-0.00662735
-0.00285112
-0.00248559
-0.00434759
-0.00436757
-0.00439823
-0.00444162
-0.00450002
-0.00457599
-0.0046721
-0.00479096
-0.00493508
-0.00510667
-0.00530734
-0.00553767
-0.00579686
-0.0060821
-0.00638808
-0.00670701
)
;

boundaryField
{
    inlet
    {
        type            calculated;
        value           nonuniform 0();
    }
    outlet
    {
        type            calculated;
        value           nonuniform List<scalar> 7(0.00425013 0.00427127 0.00429087 0.00430836 0.00432331 0.00433445 0.0043394);
    }
    polygon
    {
        type            calculated;
        value           nonuniform 0();
    }
    top
    {
        type            symmetryPlane;
        value           uniform 0;
    }
    bottom
    {
        type            symmetryPlane;
        value           uniform 0;
    }
    outside
    {
        type            calculated;
        value           nonuniform List<scalar> 
17
(
-0.0051336
-0.00508389
-0.00504228
-0.0049875
-0.00491994
-0.0048356
-0.00472951
-0.00460065
-0.00444479
-0.00426033
-0.00404536
-0.00379995
-0.00352362
-0.00321784
-0.00288581
-0.00253218
-0.00216302
)
;
    }
    procBoundary7to6
    {
        type            processor;
        value           nonuniform List<scalar> 7(-0.00494151 -0.00548074 -0.00596842 -0.00638904 -0.0067203 -0.00692991 -0.00702958);
    }
    procBoundary7to14
    {
        type            processor;
        value           uniform -0.00436065;
    }
    procBoundary7to15
    {
        type            processor;
        value           nonuniform List<scalar> 
18
(
0.00515833
0.00501797
0.00478649
0.00446381
0.00406852
0.0036294
0.00512158
0.00510913
0.00510981
0.00512007
0.00513406
0.00515351
0.00517253
0.00519148
0.00520429
0.00520417
0.00408584
0.00517721
)
;
    }
}


// ************************************************************************* //
