/*--------------------------------*- C++ -*----------------------------------*\
  =========                 |
  \\      /  F ield         | OpenFOAM: The Open Source CFD Toolbox
   \\    /   O peration     | Website:  https://openfoam.org
    \\  /    A nd           | Version:  7
     \\/     M anipulation  |
\*---------------------------------------------------------------------------*/
FoamFile
{
    version     2.0;
    format      ascii;
    class       volScalarField;
    location    "30";
    object      p;
}
// * * * * * * * * * * * * * * * * * * * * * * * * * * * * * * * * * * * * * //

dimensions      [0 2 -2 0 0 0 0];

internalField   nonuniform List<scalar> 
4000
(
0.234302
0.244241
0.247772
0.253916
0.257218
0.261017
0.263137
0.265126
0.265237
0.265038
0.26155
0.258352
0.247784
0.239455
0.214306
0.186205
0.123288
0.00962198
-0.154793
-0.674011
0.224424
0.233993
0.23727
0.24277
0.245564
0.248594
0.249915
0.250723
0.249454
0.247272
0.241607
0.234717
0.219942
0.202222
0.168671
0.13383
0.078535
0.0644411
-0.0202676
0.200827
0.215177
0.224603
0.227654
0.232731
0.235001
0.23732
0.237667
0.237132
0.234169
0.229527
0.220921
0.209037
0.188625
0.162264
0.122109
0.0810503
0.026544
-0.0254014
-0.073956
-0.213933
0.206328
0.21552
0.218273
0.222897
0.224567
0.226071
0.225333
0.223362
0.218702
0.21157
0.199627
0.182915
0.157669
0.126135
0.0861927
0.0529779
0.0169871
0.02031
-0.0374166
0.0773526
0.197733
0.206574
0.208958
0.21307
0.214108
0.214787
0.213025
0.209708
0.203336
0.19374
0.178707
0.15788
0.128886
0.0949312
0.0589406
0.0346214
0.0114561
-0.0141629
-0.018409
-0.0392695
0.189395
0.197821
0.1998
0.203355
0.203716
0.203498
0.200656
0.195804
0.187257
0.174843
0.156764
0.132782
0.102253
0.0698923
0.0425573
0.0290677
0.0101918
0.016931
-0.00319051
0.0465609
0.181349
0.189324
0.190893
0.193871
0.193574
0.192502
0.188661
0.18256
0.172596
0.158545
0.138758
0.113058
0.0823122
0.0531592
0.0333001
0.0234441
0.0122039
0.00746278
0.0104935
0.0185426
0.173624
0.181115
0.182272
0.18464
0.183682
0.181747
0.176746
0.169035
0.156978
0.140403
0.118244
0.0910282
0.0616476
0.0380763
0.0249502
0.0186808
0.012156
0.0226896
0.0212168
0.0478523
0.166222
0.173184
0.173949
0.175682
0.174125
0.171381
0.165541
0.157033
0.144516
0.128059
0.106837
0.0811786
0.0537168
0.0333728
0.0223005
0.0183335
0.0173097
0.0254239
0.0297409
0.0465495
0.159172
0.165558
0.165971
0.167022
0.164897
0.16127
0.154467
0.144621
0.130193
0.111194
0.0869889
0.0579701
0.0290234
0.00831202
0.00146312
0.00835938
0.0194975
0.0358491
0.0425797
0.0648631
0.337409
0.3551
0.36163
0.376576
0.386643
0.401666
0.415005
0.431986
0.449965
0.471959
0.49699
0.527749
0.562763
0.606471
0.654033
0.7147
0.770873
0.856867
0.902625
1.04466
0.327168
0.344402
0.35036
0.364623
0.373671
0.387612
0.399434
0.414633
0.430161
0.449243
0.470333
0.49689
0.526083
0.564026
0.601316
0.657206
0.695068
0.781405
0.797288
0.934081
0.316995
0.333504
0.339011
0.352275
0.360403
0.373035
0.383391
0.396786
0.410093
0.426692
0.444647
0.46814
0.493402
0.529185
0.562896
0.618854
0.655508
0.741368
0.762489
0.882389
0.306872
0.322598
0.327728
0.340058
0.347369
0.358805
0.367817
0.379555
0.390757
0.404916
0.419527
0.439485
0.45931
0.490849
0.515691
0.56895
0.591572
0.681905
0.688459
0.82034
0.296659
0.311596
0.316355
0.327784
0.3343
0.344547
0.352209
0.362238
0.371238
0.382778
0.393801
0.409942
0.424258
0.451079
0.468823
0.516156
0.534651
0.611802
0.627644
0.735037
0.28632
0.300454
0.304855
0.315374
0.321123
0.330164
0.336507
0.344828
0.35166
0.360584
0.368111
0.380355
0.389412
0.411102
0.421792
0.463849
0.472489
0.55444
0.556817
0.710171
0.275909
0.289222
0.293305
0.30291
0.307954
0.315807
0.320928
0.327596
0.332388
0.338678
0.342865
0.35099
0.354777
0.369838
0.373656
0.403754
0.406441
0.452958
0.465694
0.539273
0.26547
0.277947
0.281776
0.290484
0.29492
0.301628
0.305668
0.310785
0.313757
0.317909
0.319198
0.324014
0.322515
0.332864
0.328594
0.357915
0.349303
0.429116
0.408437
0.651078
0.255066
0.266699
0.270356
0.27818
0.282106
0.287721
0.290854
0.29459
0.296225
0.298555
0.297492
0.298879
0.292949
0.295421
0.28255
0.29146
0.269453
0.25685
0.219733
0.168553
0.244664
0.255444
0.259021
0.265999
0.269561
0.274169
0.27663
0.279313
0.279948
0.280825
0.27801
0.277161
0.268368
0.268103
0.253098
0.270084
0.269463
0.363037
0.369774
0.702777
0.244664
0.255444
0.259021
0.265999
0.269561
0.274169
0.27663
0.279313
0.279948
0.280825
0.27801
0.277161
0.268368
0.268103
0.253098
0.270084
0.269463
0.363037
0.369774
0.702777
0.255066
0.266699
0.270356
0.27818
0.282106
0.287721
0.290854
0.29459
0.296225
0.298555
0.297492
0.298879
0.292949
0.295421
0.28255
0.29146
0.269453
0.25685
0.219733
0.168553
0.26547
0.277947
0.281776
0.290484
0.29492
0.301628
0.305668
0.310785
0.313757
0.317909
0.319198
0.324014
0.322515
0.332864
0.328594
0.357915
0.349303
0.429116
0.408437
0.651078
0.275909
0.289222
0.293305
0.30291
0.307954
0.315807
0.320928
0.327596
0.332388
0.338678
0.342865
0.35099
0.354777
0.369838
0.373656
0.403754
0.406441
0.452958
0.465694
0.539273
0.28632
0.300454
0.304855
0.315374
0.321123
0.330164
0.336507
0.344828
0.35166
0.360584
0.368111
0.380355
0.389412
0.411102
0.421792
0.463849
0.472489
0.55444
0.556817
0.710171
0.296659
0.311596
0.316355
0.327784
0.3343
0.344547
0.352209
0.362238
0.371238
0.382778
0.393801
0.409942
0.424258
0.451079
0.468823
0.516156
0.534651
0.611802
0.627644
0.735037
0.306872
0.322598
0.327728
0.340058
0.347369
0.358805
0.367817
0.379555
0.390757
0.404916
0.419527
0.439485
0.45931
0.490849
0.515691
0.56895
0.591572
0.681905
0.688459
0.82034
0.316995
0.333504
0.339011
0.352275
0.360403
0.373035
0.383391
0.396786
0.410093
0.426692
0.444647
0.46814
0.493402
0.529185
0.562896
0.618854
0.655508
0.741368
0.762489
0.882389
0.327168
0.344402
0.35036
0.364623
0.373671
0.387612
0.399434
0.414633
0.430161
0.449243
0.470333
0.49689
0.526083
0.564026
0.601316
0.657206
0.695068
0.781405
0.797288
0.934081
0.337409
0.3551
0.36163
0.376576
0.386643
0.401666
0.415005
0.431986
0.449965
0.471959
0.49699
0.527749
0.562763
0.606471
0.654033
0.7147
0.770873
0.856867
0.902625
1.04466
0.159172
0.165558
0.165971
0.167022
0.164897
0.16127
0.154467
0.144621
0.130193
0.111194
0.0869889
0.0579701
0.0290234
0.00831203
0.00146313
0.00835939
0.0194976
0.0358491
0.0425797
0.0648631
0.166222
0.173184
0.173949
0.175682
0.174125
0.171381
0.165541
0.157033
0.144516
0.128059
0.106837
0.0811786
0.0537168
0.0333728
0.0223005
0.0183335
0.0173097
0.0254239
0.0297409
0.0465495
0.173624
0.181115
0.182272
0.18464
0.183682
0.181747
0.176746
0.169035
0.156978
0.140403
0.118244
0.0910282
0.0616476
0.0380763
0.0249502
0.0186808
0.012156
0.0226896
0.0212168
0.0478523
0.181349
0.189324
0.190893
0.193871
0.193574
0.192502
0.188661
0.18256
0.172596
0.158545
0.138758
0.113058
0.0823122
0.0531592
0.0333001
0.0234441
0.0122039
0.00746279
0.0104935
0.0185426
0.189395
0.197821
0.1998
0.203355
0.203716
0.203498
0.200656
0.195804
0.187257
0.174843
0.156764
0.132782
0.102253
0.0698923
0.0425573
0.0290677
0.0101918
0.016931
-0.00319051
0.0465609
0.197733
0.206574
0.208958
0.21307
0.214108
0.214787
0.213025
0.209708
0.203336
0.19374
0.178707
0.15788
0.128886
0.0949312
0.0589406
0.0346214
0.0114561
-0.0141629
-0.018409
-0.0392695
0.206328
0.21552
0.218273
0.222897
0.224567
0.226071
0.225333
0.223362
0.218702
0.21157
0.199627
0.182915
0.157669
0.126135
0.0861927
0.0529779
0.0169871
0.02031
-0.0374165
0.0773526
0.215177
0.224603
0.227654
0.232731
0.235001
0.23732
0.237667
0.237132
0.234169
0.229527
0.220921
0.209037
0.188625
0.162264
0.122109
0.0810503
0.026544
-0.0254014
-0.073956
-0.213933
0.224424
0.233993
0.23727
0.24277
0.245564
0.248594
0.249915
0.250723
0.249454
0.247272
0.241607
0.234717
0.219942
0.202222
0.168671
0.13383
0.078535
0.0644412
-0.0202676
0.200827
0.234302
0.244241
0.247772
0.253916
0.257218
0.261017
0.263137
0.265126
0.265237
0.265038
0.26155
0.258352
0.247784
0.239455
0.214306
0.186205
0.123288
0.00962198
-0.154793
-0.674011
0.370322
0.388564
0.397165
0.411752
0.424412
0.439233
0.454646
0.471781
0.490729
0.512027
0.536126
0.563732
0.595514
0.632167
0.67372
0.720445
0.770416
0.824897
0.875053
0.923961
0.413494
0.429806
0.43843
0.452271
0.465352
0.480373
0.496684
0.514648
0.534346
0.555952
0.579534
0.605114
0.632561
0.661634
0.691882
0.722725
0.752591
0.782348
0.804148
0.825752
0.449825
0.464167
0.471715
0.483608
0.494738
0.507159
0.520297
0.534337
0.549324
0.565305
0.582283
0.600195
0.618923
0.638214
0.657715
0.676732
0.69479
0.710394
0.722646
0.730246
0.477144
0.489066
0.495575
0.505834
0.515534
0.526348
0.53774
0.54977
0.562371
0.575452
0.588896
0.602549
0.616207
0.629623
0.642474
0.654435
0.664985
0.673806
0.680074
0.683664
0.498055
0.507362
0.512356
0.520185
0.527465
0.535492
0.543845
0.552554
0.561567
0.570812
0.580201
0.589618
0.59892
0.607924
0.616423
0.62415
0.630871
0.636247
0.640075
0.642078
0.513855
0.521293
0.525338
0.531683
0.5376
0.544098
0.5508
0.557709
0.564748
0.571835
0.578878
0.585774
0.59241
0.598665
0.604403
0.609494
0.613789
0.61717
0.619496
0.620692
0.525177
0.530573
0.533495
0.538071
0.542322
0.54697
0.551743
0.556641
0.561611
0.566594
0.571526
0.576333
0.580939
0.585254
0.589191
0.592655
0.595561
0.597822
0.599376
0.600167
0.533843
0.538117
0.540427
0.544046
0.547388
0.551026
0.554732
0.558502
0.562284
0.566029
0.569685
0.573197
0.576511
0.579571
0.582322
0.584713
0.586693
0.58822
0.589259
0.589785
0.539847
0.542817
0.544436
0.546968
0.549316
0.551871
0.554476
0.557125
0.559785
0.562419
0.564991
0.567462
0.569792
0.571943
0.573874
0.575549
0.576934
0.578
0.578725
0.579092
0.544499
0.546861
0.548131
0.55012
0.551946
0.553924
0.555924
0.557944
0.559955
0.561929
0.563838
0.565655
0.567353
0.568907
0.57029
0.571482
0.572461
0.573212
0.573719
0.573976
0.547655
0.549255
0.550125
0.551492
0.552755
0.554128
0.555521
0.556933
0.558342
0.559729
0.561073
0.562356
0.563557
0.564657
0.565638
0.566483
0.567179
0.567711
0.568072
0.568254
0.550139
0.551424
0.552112
0.553189
0.554174
0.555238
0.55631
0.557388
0.558456
0.5595
0.560505
0.561458
0.562344
0.563151
0.563866
0.56448
0.564983
0.565367
0.565627
0.565757
0.551791
0.552646
0.553108
0.55384
0.554512
0.555244
0.555985
0.556734
0.55748
0.558212
0.558919
0.559591
0.560218
0.560791
0.5613
0.561737
0.562096
0.562371
0.562556
0.562649
0.553118
0.553818
0.55419
0.554774
0.555306
0.555879
0.556456
0.557034
0.557606
0.558163
0.558699
0.559205
0.559675
0.560102
0.56048
0.560803
0.561068
0.56127
0.561406
0.561475
0.553978
0.554439
0.554684
0.555079
0.555438
0.555831
0.556228
0.556629
0.557027
0.557418
0.557795
0.558153
0.558487
0.558791
0.559061
0.559293
0.559482
0.559627
0.559725
0.559775
0.554692
0.555079
0.555283
0.555606
0.555897
0.556213
0.556529
0.556847
0.55716
0.557465
0.557758
0.558035
0.558292
0.558524
0.55873
0.558907
0.559051
0.559161
0.559235
0.559272
0.555131
0.555388
0.55552
0.555743
0.55594
0.55616
0.556381
0.556605
0.556828
0.557047
0.557257
0.557458
0.557644
0.557814
0.557965
0.558094
0.5582
0.558281
0.558336
0.558363
0.555496
0.555721
0.555839
0.556029
0.556199
0.556386
0.556573
0.556761
0.556947
0.557128
0.557302
0.557467
0.55762
0.557758
0.557881
0.557986
0.558072
0.558138
0.558182
0.558204
0.555685
0.555835
0.555908
0.556045
0.556161
0.556299
0.556434
0.556576
0.556716
0.556855
0.556989
0.557117
0.557237
0.557347
0.557444
0.557528
0.557596
0.557649
0.557684
0.557702
0.555875
0.556015
0.556097
0.556228
0.556351
0.556486
0.556625
0.556765
0.556905
0.557042
0.557175
0.557301
0.557418
0.557525
0.557619
0.5577
0.557767
0.557817
0.557851
0.557869
0.0014929
0.00441634
0.00601262
0.00758847
0.00908429
0.0104791
0.0118268
0.0131562
0.0144749
0.0157867
0.0170921
0.0183859
0.019657
0.0208884
0.0220569
0.0231325
0.0240783
0.0248509
0.025403
0.0256922
0.00706676
0.0127532
0.0156714
0.0187384
0.0216308
0.024301
0.0268273
0.0292517
0.0315821
0.0338181
0.0359556
0.0379854
0.0398925
0.0416576
0.0432579
0.044667
0.0458555
0.0467914
0.0474412
0.0477752
0.0151272
0.0229818
0.0274475
0.032257
0.036923
0.0413733
0.0456799
0.0498833
0.0539876
0.0579853
0.0618608
0.0655885
0.0691317
0.0724436
0.0754687
0.0781442
0.0804024
0.0821752
0.0833995
0.0840256
0.024169
0.0333598
0.0386658
0.044429
0.0500214
0.0553575
0.0605074
0.0655056
0.0703496
0.0750245
0.0795096
0.083775
0.0877819
0.0914835
0.0948266
0.0977525
0.1002
0.102106
0.103416
0.104083
0.0344639
0.0448754
0.0510379
0.0578405
0.0645403
0.07103
0.0773717
0.0835909
0.0896736
0.0955908
0.101306
0.10677
0.111924
0.116697
0.121012
0.124786
0.127934
0.130378
0.13205
0.132899
0.0450459
0.0561497
0.0628497
0.0702266
0.0775302
0.0846242
0.0915614
0.0983622
0.105005
0.111454
0.117664
0.123583
0.129146
0.13428
0.138905
0.142937
0.146293
0.148891
0.150665
0.151566
0.056077
0.0677678
0.0749728
0.0829246
0.0908984
0.0987264
0.106451
0.114085
0.121598
0.128938
0.136044
0.142845
0.149255
0.155182
0.160524
0.165177
0.169042
0.172027
0.17406
0.175089
0.0669173
0.0787702
0.0862799
0.0944934
0.102807
0.111015
0.119146
0.127207
0.135162
0.142949
0.150499
0.157731
0.164551
0.170858
0.176542
0.181492
0.185601
0.188774
0.190933
0.192025
0.0775988
0.0894244
0.0971549
0.105557
0.114185
0.122801
0.131418
0.140034
0.148605
0.157054
0.165294
0.173224
0.180729
0.187684
0.193957
0.199419
0.203948
0.207438
0.209808
0.211005
0.0876021
0.0990042
0.106773
0.115116
0.123795
0.132562
0.1414
0.150302
0.159213
0.168048
0.176707
0.185072
0.193013
0.200389
0.207053
0.21286
0.217677
0.22139
0.22391
0.225183
0.0968816
0.107553
0.115207
0.123357
0.131967
0.140817
0.149862
0.159077
0.1684
0.17773
0.186945
0.195903
0.204447
0.212406
0.219608
0.225887
0.231091
0.235095
0.237809
0.239178
0.104947
0.114433
0.121729
0.129447
0.137728
0.146422
0.155449
0.164764
0.174296
0.183929
0.193522
0.202911
0.211911
0.220328
0.227966
0.234635
0.240168
0.244426
0.247311
0.248766
0.111646
0.119507
0.126196
0.133258
0.141018
0.149396
0.158296
0.16765
0.17737
0.187322
0.197339
0.207225
0.216762
0.225721
0.23387
0.240994
0.246903
0.251447
0.254523
0.256071
0.116473
0.122149
0.127844
0.13397
0.140912
0.148677
0.157182
0.166336
0.176032
0.186117
0.196397
0.206644
0.216606
0.226017
0.234615
0.242153
0.248417
0.253239
0.256504
0.258148
0.119157
0.12216
0.126281
0.131196
0.137048
0.143926
0.151801
0.160571
0.170104
0.180225
0.190712
0.201297
0.211684
0.221565
0.230633
0.238605
0.24524
0.25035
0.25381
0.255551
0.118467
0.118763
0.120761
0.12398
0.128366
0.133998
0.140877
0.148918
0.157979
0.167868
0.178335
0.189079
0.199763
0.210031
0.219528
0.227927
0.234949
0.240375
0.244065
0.245928
0.113708
0.110827
0.110611
0.111708
0.114171
0.118152
0.123653
0.130607
0.138883
0.148281
0.15853
0.169296
0.180197
0.190819
0.200751
0.209608
0.217061
0.222847
0.226779
0.228765
0.10473
0.0976467
0.095118
0.0935222
0.0934997
0.0952783
0.0988579
0.104206
0.11123
0.119745
0.129471
0.140047
0.151046
0.161992
0.172397
0.181795
0.18977
0.196005
0.200279
0.202449
0.0912039
0.0788938
0.073842
0.0687468
0.0656197
0.0645492
0.0655551
0.0686984
0.0739598
0.0811861
0.0900987
0.100315
0.111353
0.122663
0.133628
0.143709
0.15239
0.159253
0.163992
0.16641
0.0723615
0.0539518
0.0461472
0.0367104
0.0298705
0.0253334
0.0231615
0.0235802
0.0266378
0.0322295
0.0400872
0.0498023
0.0608453
0.0725445
0.0842715
0.0952538
0.104845
0.112509
0.117845
0.120582
0.0475173
0.0225346
0.0118054
-0.00268482
-0.0136019
-0.0220629
-0.0277619
-0.0303061
-0.0296262
-0.0258079
-0.019116
-0.00997377
0.00102971
0.0132222
0.0257438
0.0377215
0.0483478
0.0569368
0.0629659
0.0660754
0.0164641
-0.0151452
-0.028754
-0.0485033
-0.0632308
-0.0754582
-0.0843467
-0.089533
-0.0909812
-0.0887897
-0.0832343
-0.0747447
-0.0639425
-0.0515037
-0.0383906
-0.0255766
-0.0140274
-0.00458371
0.00209962
0.00556384
-0.0203622
-0.0578589
-0.0738435
-0.0981851
-0.115663
-0.130813
-0.141975
-0.149099
-0.152199
-0.151386
-0.146936
-0.139284
-0.128946
-0.116716
-0.103481
-0.0902818
-0.078193
-0.0681871
-0.0610456
-0.0573251
-0.0611629
-0.103053
-0.120369
-0.147874
-0.166584
-0.183537
-0.196002
-0.204404
-0.208743
-0.2091
-0.205725
-0.199024
-0.189515
-0.177903
-0.165047
-0.151984
-0.139836
-0.129661
-0.122338
-0.118504
-0.103
-0.147499
-0.1649
-0.194102
-0.212781
-0.23082
-0.243939
-0.253344
-0.258716
-0.260106
-0.257718
-0.251938
-0.24326
-0.232369
-0.220093
-0.207441
-0.195533
-0.185463
-0.178166
-0.17433
-0.142469
-0.187911
-0.204324
-0.23418
-0.25205
-0.270883
-0.284294
-0.294638
-0.300856
-0.303134
-0.301564
-0.29651
-0.288486
-0.278189
-0.266438
-0.254223
-0.242641
-0.232788
-0.225616
-0.221835
-0.175248
-0.221059
-0.235654
-0.265859
-0.282419
-0.301931
-0.315263
-0.326426
-0.333205
-0.336191
-0.335264
-0.330781
-0.32327
-0.313442
-0.302126
-0.290304
-0.279052
-0.26945
-0.262443
-0.258745
-0.198228
-0.245251
-0.25709
-0.287856
-0.302404
-0.32255
-0.33521
-0.347038
-0.353922
-0.357466
-0.356946
-0.352923
-0.345837
-0.336433
-0.325525
-0.314099
-0.303203
-0.293893
-0.287092
-0.283501
-0.214709
-0.26021
-0.269457
-0.299486
-0.311685
-0.331857
-0.343186
-0.355402
-0.361798
-0.365787
-0.365357
-0.36177
-0.355061
-0.346123
-0.335679
-0.32473
-0.314274
-0.305339
-0.298809
-0.295362
-0.225362
-0.265097
-0.273579
-0.299456
-0.311006
-0.328589
-0.339612
-0.350405
-0.356916
-0.360449
-0.36033
-0.356959
-0.350729
-0.342306
-0.33246
-0.322116
-0.31224
-0.3038
-0.297634
-0.29438
-0.228097
-0.260434
-0.268499
-0.289102
-0.299917
-0.314143
-0.324359
-0.333458
-0.339455
-0.342503
-0.342376
-0.339257
-0.333512
-0.325724
-0.31662
-0.307051
-0.297921
-0.29012
-0.284426
-0.281421
-0.222065
-0.247079
-0.25433
-0.269815
-0.279183
-0.290068
-0.298752
-0.306076
-0.311088
-0.313549
-0.313298
-0.310426
-0.305232
-0.298215
-0.290024
-0.28142
-0.273218
-0.266215
-0.261106
-0.258412
-0.207516
-0.226157
-0.232167
-0.243239
-0.250562
-0.258418
-0.265059
-0.270559
-0.274356
-0.27611
-0.275659
-0.273035
-0.268457
-0.262333
-0.255212
-0.247748
-0.240642
-0.234581
-0.230163
-0.227834
-0.185901
-0.19948
-0.204019
-0.211475
-0.216533
-0.221665
-0.226099
-0.229764
-0.232252
-0.233243
-0.232557
-0.230188
-0.226274
-0.221129
-0.215188
-0.208984
-0.20309
-0.198069
-0.194413
-0.192487
-0.159288
-0.169027
-0.172112
-0.176708
-0.179613
-0.182364
-0.184724
-0.186648
-0.187865
-0.188109
-0.187195
-0.185093
-0.181869
-0.177742
-0.17303
-0.168138
-0.163504
-0.159565
-0.156698
-0.155189
-0.130055
-0.137022
-0.138817
-0.141227
-0.142267
-0.143062
-0.14363
-0.144019
-0.144097
-0.143666
-0.142565
-0.140733
-0.13819
-0.135059
-0.131551
-0.127942
-0.12454
-0.121655
-0.11956
-0.118457
-0.100249
-0.105238
-0.106016
-0.106824
-0.106424
-0.105723
-0.10488
-0.104049
-0.103207
-0.102241
-0.101023
-0.0994736
-0.0975768
-0.0953775
-0.0929865
-0.0905641
-0.0882994
-0.0863867
-0.0850002
-0.0842716
-0.0716485
-0.0752723
-0.0753144
-0.0750165
-0.0736073
-0.0718565
-0.0700107
-0.0683118
-0.0668122
-0.0654789
-0.0642234
-0.0629633
-0.0616509
-0.0602746
-0.0588608
-0.0574724
-0.0561957
-0.0551265
-0.0543548
-0.05395
-0.0454263
-0.0481062
-0.0476829
-0.0466985
-0.0446824
-0.0422998
-0.0398551
-0.0376339
-0.0357553
-0.0342358
-0.0330293
-0.0320573
-0.0312627
-0.0305791
-0.0299737
-0.0294345
-0.0289662
-0.0285858
-0.0283155
-0.0281746
-0.0224063
-0.0244354
-0.0237578
-0.0224036
-0.0201002
-0.0174245
-0.0147137
-0.0122695
-0.010251
-0.00870839
-0.00762591
-0.00694145
-0.00657623
-0.00644719
-0.00647512
-0.00659272
-0.00674568
-0.00689298
-0.00700591
-0.00706661
-0.00290622
-0.00447192
-0.00370252
-0.00221808
0.000119454
0.00281446
0.00552043
0.00794016
0.00989989
0.0113287
0.0122266
0.0126417
0.0126573
0.0123683
0.0118793
0.0112913
0.0106975
0.010178
0.00979541
0.00959315
0.0129985
0.0117721
0.0125236
0.0139714
0.0161693
0.018695
0.0212119
0.0234403
0.0252101
0.0264438
0.0271338
0.0273179
0.0270746
0.0265007
0.0257122
0.0248267
0.0239581
0.0232081
0.0226593
0.0223699
0.0255162
0.0245507
0.0252113
0.0265112
0.0284558
0.0306902
0.0328992
0.0348284
0.0363237
0.0373144
0.0377906
0.0377824
0.0373617
0.036621
0.035673
0.0346384
0.0336367
0.0327772
0.0321502
0.0318199
0.034967
0.0342112
0.0347453
0.0358427
0.0374761
0.0393594
0.041206
0.0427899
0.0439797
0.0447213
0.045008
0.0448647
0.0443508
0.0435447
0.042553
0.0414883
0.0404659
0.039592
0.0389557
0.0386209
0.0418199
0.0412325
0.0416243
0.0424927
0.0437884
0.0452925
0.046754
0.0479735
0.0488432
0.0493316
0.0494401
0.0491925
0.0486369
0.0478426
0.0468921
0.0458849
0.0449232
0.0441037
0.0435077
0.0431943
0.0465537
0.0461011
0.0463535
0.0469901
0.0479511
0.0490801
0.0501683
0.0510443
0.0516207
0.0518882
0.0518604
0.0515633
0.051034
0.0503054
0.0494583
0.048569
0.0477237
0.0470047
0.0464822
0.0462074
0.0496792
0.0493281
0.049447
0.049854
0.0504885
0.0512488
0.051971
0.0525135
0.0528033
0.0528452
0.0526702
0.0523065
0.0517758
0.051142
0.0504218
0.0496783
0.0489756
0.0483794
0.0479465
0.047719
0.0516675
0.0513908
0.0513862
0.0515732
0.0518982
0.0523073
0.0526855
0.0529307
0.0529836
0.0528578
0.0525976
0.0522372
0.051797
0.0512718
0.0506971
0.0501154
0.0495697
0.049108
0.0487731
0.048597
0.0529705
0.0527427
0.0526193
0.0525882
0.052607
0.052661
0.0526818
0.0526104
0.0523956
0.0520449
0.0516126
0.0511426
0.0506541
0.0501822
0.0497279
0.0492866
0.0488819
0.0485431
0.0482984
0.04817
0.0540036
0.053805
0.0535623
0.0533156
0.0530316
0.0527324
0.0523993
0.0520289
0.051603
0.0511381
0.050689
0.0502911
0.0499435
0.0496224
0.0492907
0.0489925
0.0487283
0.0485105
0.0483547
0.0482732
0.055159
0.0549665
0.0545932
0.0541217
0.0535105
0.0528177
0.0520554
0.0512689
0.0504656
0.0496595
0.0488955
0.0482368
0.0476912
0.0472495
0.0469859
0.0467652
0.0465948
0.0464661
0.046378
0.0463331
0.0568038
0.0566202
0.056112
0.0554143
0.0544644
0.0533647
0.052156
0.0509682
0.0498944
0.0489998
0.0483078
0.0478341
0.0475375
0.0473934
0.0472234
0.0471285
0.0470744
0.0470462
0.047033
0.0470281
0.0593153
0.0591691
0.0585119
0.0575632
0.0562138
0.0545978
0.0527561
0.050861
0.049045
0.047422
0.0460308
0.0449268
0.0441203
0.0435599
0.0432953
0.0432095
0.0431983
0.0432332
0.0432736
0.0433004
0.0631504
0.0630879
0.0622827
0.0610902
0.0593369
0.0572048
0.0547409
0.0522267
0.0499355
0.0481482
0.0469214
0.0462006
0.0458761
0.045803
0.0458092
0.0458365
0.0459514
0.0460903
0.0462137
0.0462865
0.068809
0.0688592
0.0678675
0.0663829
0.06412
0.0612816
0.0578616
0.0541158
0.0503268
0.0468894
0.0440426
0.041852
0.0403314
0.0393966
0.0388959
0.0389197
0.0390671
0.0393315
0.0395668
0.0397208
0.0768263
0.0771191
0.0759807
0.0742794
0.0715707
0.0681306
0.0639507
0.0593868
0.0548638
0.0510562
0.0484201
0.0469606
0.0463186
0.0461611
0.0462998
0.0463072
0.046562
0.0469083
0.0472463
0.0474751
0.0876336
0.0883536
0.0871289
0.0852679
0.0819991
0.0775962
0.0719351
0.0652719
0.0579508
0.0506862
0.0443244
0.0394459
0.0360474
0.0341046
0.0331365
0.0332562
0.033849
0.0348651
0.0357759
0.0365084
0.101788
0.103223
0.102113
0.100436
0.0971167
0.0925518
0.086564
0.0794193
0.071521
0.0638943
0.057883
0.0542385
0.0525866
0.0516742
0.0511659
0.0506508
0.0505071
0.0510554
0.051785
0.0526173
0.11996
0.122352
0.121197
0.119371
0.115301
0.109391
0.101241
0.090883
0.0783828
0.0643476
0.0499733
0.0374148
0.0285826
0.0237538
0.0219781
0.0226292
0.024858
0.0294819
0.0333256
0.0380104
0.142921
0.147619
0.147451
0.146909
0.143756
0.138483
0.130626
0.12042
0.108248
0.0956655
0.0861711
0.082295
0.0824261
0.0801802
0.0729537
0.0663646
0.061156
0.0589492
0.0581037
0.060616
0.555875
0.556015
0.556097
0.556228
0.556351
0.556486
0.556625
0.556765
0.556905
0.557042
0.557175
0.557301
0.557418
0.557525
0.557619
0.5577
0.557767
0.557817
0.557851
0.557869
0.555685
0.555835
0.555908
0.556045
0.556161
0.556299
0.556434
0.556576
0.556716
0.556855
0.556989
0.557117
0.557237
0.557347
0.557444
0.557528
0.557596
0.557649
0.557684
0.557702
0.555496
0.555721
0.555839
0.556029
0.556199
0.556386
0.556573
0.556761
0.556947
0.557128
0.557302
0.557467
0.55762
0.557758
0.557881
0.557986
0.558072
0.558138
0.558182
0.558204
0.555131
0.555388
0.55552
0.555743
0.55594
0.55616
0.556381
0.556605
0.556828
0.557047
0.557257
0.557458
0.557644
0.557814
0.557965
0.558094
0.5582
0.558281
0.558336
0.558363
0.554692
0.555079
0.555283
0.555606
0.555897
0.556213
0.556529
0.556847
0.55716
0.557465
0.557758
0.558035
0.558292
0.558524
0.55873
0.558907
0.559051
0.559161
0.559235
0.559272
0.553978
0.554439
0.554684
0.555079
0.555438
0.555831
0.556228
0.556629
0.557027
0.557418
0.557795
0.558153
0.558487
0.558791
0.559061
0.559293
0.559482
0.559627
0.559725
0.559775
0.553118
0.553818
0.55419
0.554774
0.555306
0.555879
0.556456
0.557034
0.557606
0.558163
0.558699
0.559205
0.559675
0.560102
0.56048
0.560803
0.561068
0.56127
0.561406
0.561475
0.551791
0.552646
0.553108
0.55384
0.554512
0.555244
0.555985
0.556734
0.55748
0.558212
0.558919
0.559591
0.560218
0.560791
0.5613
0.561737
0.562096
0.562371
0.562556
0.562649
0.550139
0.551424
0.552112
0.553189
0.554174
0.555238
0.55631
0.557388
0.558456
0.5595
0.560505
0.561458
0.562344
0.563151
0.563866
0.56448
0.564983
0.565367
0.565627
0.565757
0.547655
0.549255
0.550125
0.551492
0.552755
0.554128
0.555521
0.556933
0.558342
0.559729
0.561073
0.562356
0.563557
0.564657
0.565638
0.566483
0.567179
0.567711
0.568072
0.568254
0.544499
0.546861
0.548131
0.55012
0.551946
0.553924
0.555924
0.557944
0.559955
0.561929
0.563838
0.565655
0.567353
0.568907
0.57029
0.571482
0.572461
0.573212
0.573719
0.573976
0.539847
0.542817
0.544436
0.546968
0.549316
0.551871
0.554476
0.557125
0.559785
0.562419
0.564991
0.567462
0.569792
0.571943
0.573874
0.575549
0.576934
0.578
0.578725
0.579092
0.533843
0.538117
0.540427
0.544046
0.547388
0.551026
0.554732
0.558502
0.562284
0.566029
0.569685
0.573197
0.576511
0.579571
0.582322
0.584713
0.586693
0.58822
0.589259
0.589785
0.525177
0.530573
0.533495
0.538071
0.542322
0.54697
0.551743
0.556641
0.561611
0.566594
0.571526
0.576333
0.580939
0.585254
0.589191
0.592655
0.595561
0.597822
0.599376
0.600167
0.513855
0.521293
0.525338
0.531683
0.5376
0.544098
0.5508
0.557709
0.564748
0.571835
0.578878
0.585774
0.59241
0.598665
0.604403
0.609494
0.613789
0.61717
0.619496
0.620692
0.498055
0.507362
0.512356
0.520185
0.527465
0.535492
0.543845
0.552554
0.561567
0.570812
0.580201
0.589618
0.59892
0.607924
0.616423
0.62415
0.630871
0.636247
0.640075
0.642078
0.477144
0.489066
0.495575
0.505834
0.515534
0.526348
0.53774
0.54977
0.562371
0.575452
0.588896
0.602549
0.616207
0.629623
0.642474
0.654435
0.664985
0.673806
0.680074
0.683664
0.449825
0.464167
0.471715
0.483608
0.494738
0.507159
0.520297
0.534337
0.549324
0.565305
0.582283
0.600195
0.618923
0.638214
0.657715
0.676732
0.69479
0.710394
0.722646
0.730246
0.413494
0.429806
0.43843
0.452271
0.465352
0.480373
0.496684
0.514648
0.534346
0.555952
0.579534
0.605114
0.632561
0.661634
0.691882
0.722725
0.752591
0.782348
0.804148
0.825752
0.370322
0.388564
0.397165
0.411752
0.424412
0.439233
0.454646
0.471781
0.490729
0.512027
0.536126
0.563732
0.595514
0.632167
0.67372
0.720445
0.770416
0.824897
0.875053
0.923961
0.142921
0.147619
0.147451
0.146909
0.143756
0.138483
0.130626
0.12042
0.108248
0.0956655
0.0861711
0.082295
0.0824261
0.0801802
0.0729537
0.0663646
0.061156
0.0589492
0.0581037
0.060616
0.11996
0.122352
0.121197
0.119371
0.115301
0.109391
0.101241
0.0908829
0.0783828
0.0643476
0.0499733
0.0374148
0.0285826
0.0237538
0.0219781
0.0226292
0.024858
0.0294819
0.0333256
0.0380104
0.101788
0.103223
0.102113
0.100436
0.0971167
0.0925518
0.086564
0.0794193
0.071521
0.0638943
0.057883
0.0542385
0.0525866
0.0516742
0.0511659
0.0506508
0.0505071
0.0510554
0.051785
0.0526173
0.0876336
0.0883536
0.0871289
0.0852679
0.0819991
0.0775962
0.0719351
0.0652719
0.0579508
0.0506862
0.0443244
0.0394459
0.0360474
0.0341046
0.0331365
0.0332562
0.033849
0.0348651
0.0357759
0.0365084
0.0768263
0.0771191
0.0759807
0.0742794
0.0715707
0.0681306
0.0639507
0.0593868
0.0548638
0.0510562
0.0484201
0.0469606
0.0463186
0.0461611
0.0462998
0.0463072
0.046562
0.0469083
0.0472463
0.0474751
0.068809
0.0688592
0.0678675
0.0663829
0.06412
0.0612816
0.0578616
0.0541158
0.0503268
0.0468894
0.0440426
0.041852
0.0403314
0.0393966
0.0388959
0.0389197
0.0390671
0.0393315
0.0395668
0.0397208
0.0631504
0.0630879
0.0622827
0.0610902
0.0593369
0.0572048
0.0547409
0.0522267
0.0499355
0.0481482
0.0469214
0.0462006
0.0458761
0.045803
0.0458092
0.0458365
0.0459514
0.0460903
0.0462137
0.0462865
0.0593153
0.0591691
0.0585119
0.0575632
0.0562138
0.0545978
0.0527561
0.050861
0.049045
0.047422
0.0460308
0.0449268
0.0441203
0.0435599
0.0432953
0.0432095
0.0431984
0.0432332
0.0432736
0.0433004
0.0568038
0.0566202
0.056112
0.0554143
0.0544644
0.0533647
0.052156
0.0509682
0.0498944
0.0489998
0.0483078
0.0478341
0.0475375
0.0473934
0.0472234
0.0471285
0.0470744
0.0470462
0.047033
0.0470281
0.055159
0.0549665
0.0545932
0.0541217
0.0535105
0.0528177
0.0520554
0.0512689
0.0504656
0.0496595
0.0488955
0.0482368
0.0476912
0.0472495
0.0469859
0.0467652
0.0465948
0.0464661
0.046378
0.0463331
0.0540036
0.053805
0.0535623
0.0533156
0.0530316
0.0527324
0.0523993
0.0520289
0.051603
0.0511381
0.050689
0.0502911
0.0499435
0.0496224
0.0492907
0.0489925
0.0487283
0.0485105
0.0483547
0.0482732
0.0529705
0.0527427
0.0526193
0.0525882
0.052607
0.052661
0.0526818
0.0526104
0.0523956
0.0520449
0.0516126
0.0511426
0.0506541
0.0501822
0.0497279
0.0492866
0.0488819
0.0485431
0.0482984
0.04817
0.0516675
0.0513907
0.0513862
0.0515732
0.0518982
0.0523073
0.0526854
0.0529307
0.0529836
0.0528578
0.0525976
0.0522372
0.051797
0.0512718
0.0506971
0.0501154
0.0495697
0.049108
0.0487731
0.048597
0.0496792
0.0493281
0.049447
0.049854
0.0504885
0.0512488
0.051971
0.0525135
0.0528033
0.0528452
0.0526702
0.0523065
0.0517758
0.051142
0.0504218
0.0496783
0.0489756
0.0483794
0.0479465
0.047719
0.0465537
0.0461011
0.0463535
0.0469901
0.0479511
0.0490801
0.0501683
0.0510443
0.0516207
0.0518882
0.0518604
0.0515632
0.051034
0.0503054
0.0494583
0.048569
0.0477237
0.0470047
0.0464822
0.0462074
0.0418199
0.0412325
0.0416243
0.0424927
0.0437884
0.0452925
0.046754
0.0479735
0.0488432
0.0493316
0.0494401
0.0491925
0.0486369
0.0478426
0.0468921
0.0458849
0.0449232
0.0441037
0.0435077
0.0431943
0.034967
0.0342112
0.0347453
0.0358427
0.0374761
0.0393594
0.041206
0.0427899