/*--------------------------------*- C++ -*----------------------------------*\
  =========                 |
  \\      /  F ield         | OpenFOAM: The Open Source CFD Toolbox
   \\    /   O peration     | Website:  https://openfoam.org
    \\  /    A nd           | Version:  7
     \\/     M anipulation  |
\*---------------------------------------------------------------------------*/
FoamFile
{
    version     2.0;
    format      ascii;
    class       volScalarField;
    location    "20";
    object      p;
}
// * * * * * * * * * * * * * * * * * * * * * * * * * * * * * * * * * * * * * //

dimensions      [0 2 -2 0 0 0 0];

internalField   nonuniform List<scalar> 
50
(
-0.298377
-0.289368
-0.293921
-0.297244
-0.292389
-0.28288
-0.28711
-0.289971
-0.286086
-0.276107
-0.279908
-0.282109
-0.298804
-0.279548
-0.269135
-0.272472
-0.273717
-0.28944
-0.272763
-0.26193
-0.264769
-0.26484
-0.279616
-0.265771
-0.25457
-0.256903
-0.25558
-0.269122
-0.25858
-0.247119
-0.248945
-0.246127
-0.258607
-0.251146
-0.239584
-0.240891
-0.236508
-0.247733
-0.243278
-0.231699
-0.232497
-0.226711
-0.236387
-0.236104
-0.234789
-0.222949
-0.223416
-0.216713
-0.225294
-0.222328
)
;

boundaryField
{
    inlet
    {
        type            zeroGradient;
    }
    outlet
    {
        type            fixedValue;
        value           nonuniform 0();
    }
    polygon
    {
        type            zeroGradient;
    }
    top
    {
        type            symmetryPlane;
    }
    bottom
    {
        type            symmetryPlane;
    }
    outside
    {
        type            slip;
    }
    procBoundary2to1
    {
        type            processor;
        value           nonuniform List<scalar> 6(-0.225953 -0.213295 -0.214103 -0.206727 -0.215999 -0.212435);
    }
    procBoundary2to3
    {
        type            processor;
        value           nonuniform List<scalar> 4(-0.367985 -0.367809 -0.374168 -0.380574);
    }
    procBoundary2to6
    {
        type            processor;
        value           nonuniform List<scalar> 
12
(
-0.314867
-0.307006
-0.307006
-0.324988
-0.313499
-0.301416
-0.286969
-0.271691
-0.254236
-0.254236
-0.271068
-0.259374
)
;
    }
}


// ************************************************************************* //
