/*--------------------------------*- C++ -*----------------------------------*\
  =========                 |
  \\      /  F ield         | OpenFOAM: The Open Source CFD Toolbox
   \\    /   O peration     | Website:  https://openfoam.org
    \\  /    A nd           | Version:  10
     \\/     M anipulation  |
\*---------------------------------------------------------------------------*/
FoamFile
{
    format      ascii;
    class       volScalarField;
    location    "20";
    object      p;
}
// * * * * * * * * * * * * * * * * * * * * * * * * * * * * * * * * * * * * * //

dimensions      [0 2 -2 0 0 0 0];

internalField   nonuniform List<scalar> 
2000
(
-0.00186184
0.00253356
-0.0130658
-0.00447089
-0.0449959
-0.0304203
-0.115862
-0.103457
-0.230359
-0.182163
-0.0018589
0.00255516
-0.0130515
-0.00442061
-0.0449623
-0.0303114
-0.115754
-0.103299
-0.230168
-0.182215
-0.00185608
0.00257365
-0.0130379
-0.00437838
-0.0449306
-0.0302205
-0.115655
-0.103157
-0.229981
-0.182219
-0.00185365
0.00259046
-0.0130258
-0.00433818
-0.0449007
-0.0301298
-0.115559
-0.103008
-0.229799
-0.182238
-0.00185166
0.00260566
-0.0130153
-0.00429994
-0.0448728
-0.0300402
-0.115465
-0.102856
-0.229628
-0.182271
-0.0018501
0.00261909
-0.0130063
-0.00426428
-0.0448471
-0.0299536
-0.115374
-0.102703
-0.229468
-0.18231
-0.00184899
0.00263076
-0.0129989
-0.0042313
-0.0448235
-0.0298703
-0.115288
-0.102551
-0.229319
-0.182355
-0.00184836
0.00264079
-0.0129931
-0.00420049
-0.0448017
-0.0297896
-0.115206
-0.1024
-0.229184
-0.182405
-0.00184816
0.00264899
-0.012989
-0.00417189
-0.0447824
-0.0297094
-0.115125
-0.102249
-0.229063
-0.182465
-0.00184811
0.00265359
-0.0129872
-0.00415231
-0.0447717
-0.0296416
-0.115066
-0.102083
-0.228931
-0.182534
-0.00188732
0.00220715
-0.013261
-0.00537886
-0.0456113
-0.0327348
-0.118029
-0.107378
-0.234281
-0.18081
-0.00188481
0.00224753
-0.0132385
-0.00527569
-0.0455427
-0.0324825
-0.117797
-0.106967
-0.233657
-0.181069
-0.00188184
0.0022861
-0.013214
-0.00516681
-0.0454651
-0.0322067
-0.117541
-0.106528
-0.233354
-0.181057
-0.00187876
0.00232174
-0.0131913
-0.00506877
-0.0453963
-0.0319611
-0.117312
-0.106131
-0.232966
-0.181143
-0.00187587
0.00235603
-0.0131698
-0.00497439
-0.0453308
-0.0317224
-0.117087
-0.105731
-0.232563
-0.181271
-0.00187319
0.00238933
-0.0131493
-0.00488104
-0.0452659
-0.0314836
-0.116859
-0.105324
-0.232174
-0.1814
-0.00187072
0.00242157
-0.0131297
-0.00478884
-0.0452016
-0.0312462
-0.116631
-0.104914
-0.231804
-0.18153
-0.0018685
0.0024529
-0.0131108
-0.00469697
-0.045137
-0.0310076
-0.116397
-0.1045
-0.2314
-0.181663
-0.00186654
0.00248306
-0.0130934
-0.00460632
-0.0450745
-0.0307668
-0.11616
-0.104065
-0.230999
-0.181805
-0.00186453
0.00250954
-0.0130795
-0.00453066
-0.0450291
-0.0305641
-0.115976
-0.103666
-0.230634
-0.181987
-0.211294
-0.217062
-0.22518
-0.238761
-0.257289
-0.289902
-0.330417
-0.411128
-0.522911
-0.741882
-0.211479
-0.217297
-0.225294
-0.238784
-0.257075
-0.289248
-0.329826
-0.408712
-0.52636
-0.717055
-0.211652
-0.217524
-0.225448
-0.238909
-0.257132
-0.28908
-0.33023
-0.408178
-0.531401
-0.691836
-0.211802
-0.21771
-0.225557
-0.238959
-0.257082
-0.288746
-0.330286
-0.407338
-0.535139
-0.677541
-0.211924
-0.217849
-0.225597
-0.238891
-0.256825
-0.288078
-0.32968
-0.405734
-0.536824
-0.668881
-0.21202
-0.217945
-0.225577
-0.238723
-0.256401
-0.287147
-0.328572
-0.403697
-0.53721
-0.662782
-0.212094
-0.218
-0.225506
-0.238469
-0.25584
-0.286004
-0.327064
-0.401391
-0.536799
-0.658955
-0.212145
-0.218017
-0.225384
-0.238132
-0.255145
-0.284649
-0.325155
-0.39879
-0.535653
-0.657373
-0.212175
-0.217995
-0.225211
-0.237709
-0.254308
-0.283066
-0.322808
-0.39577
-0.533713
-0.658502
-0.212185
-0.217935
-0.224988
-0.237204
-0.25334
-0.281294
-0.320193
-0.392929
-0.532331
-0.659577
-0.206932
-0.211228
-0.220536
-0.233896
-0.254442
-0.288123
-0.329843
-0.421869
-0.499093
-0.91211
-0.20758
-0.21207
-0.221262
-0.234696
-0.255032
-0.288807
-0.329974
-0.422698
-0.498223
-0.882804
-0.208185
-0.212887
-0.222015
-0.235611
-0.255922
-0.290051
-0.331347
-0.424966
-0.502893
-0.841803
-0.208741
-0.213646
-0.222713
-0.236464
-0.256759
-0.291198
-0.332786
-0.426636
-0.508613
-0.811698
-0.209247
-0.214336
-0.223319
-0.237175
-0.257384
-0.291965
-0.333728
-0.427
-0.512888
-0.791263
-0.209704
-0.214956
-0.223835
-0.237748
-0.257806
-0.292374
-0.334181
-0.426281
-0.515751
-0.774921
-0.210115
-0.21551
-0.22427
-0.238201
-0.258059
-0.29249
-0.334257
-0.424758
-0.517785
-0.760833
-0.21048
-0.216002
-0.224628
-0.23854
-0.258155
-0.292336
-0.33399
-0.422516
-0.519183
-0.749097
-0.210802
-0.216431
-0.224909
-0.238764
-0.25809
-0.291903
-0.333357
-0.419565
-0.520143
-0.739586
-0.211082
-0.216798
-0.225113
-0.238871
-0.257856
-0.291179
-0.332297
-0.415657
-0.519542
-0.732053
-0.197455
-0.199115
-0.209141
-0.220608
-0.241519
-0.270953
-0.31347
-0.375863
-0.472785
-0.776186
-0.19865
-0.200613
-0.210563
-0.222248
-0.243181
-0.273119
-0.315798
-0.382589
-0.474794
-0.781313
-0.199794
-0.202075
-0.212013
-0.224006
-0.245118
-0.275835
-0.318974
-0.390796
-0.479657
-0.773064
-0.200882
-0.203475
-0.2134
-0.225697
-0.246974
-0.278474
-0.321991
-0.398559
-0.485382
-0.776066
-0.201913
-0.2048
-0.21469
-0.227249
-0.248607
-0.280776
-0.324436
-0.405142
-0.490576
-0.78767
-0.202887
-0.206051
-0.215885
-0.228666
-0.250034
-0.282758
-0.326357
-0.410626
-0.494876
-0.802472
-0.203805
-0.207231
-0.216995
-0.229966
-0.251289
-0.284468
-0.327889
-0.415132
-0.498305
-0.81901
-0.20467
-0.208341
-0.218021
-0.231153
-0.252383
-0.285915
-0.329098
-0.418607
-0.500868
-0.837893
-0.20548
-0.20938
-0.218963
-0.232224
-0.253311
-0.287073
-0.329973
-0.420998
-0.50248
-0.859904
-0.206236
-0.21035
-0.219819
-0.233175
-0.254065
-0.287912
-0.330469
-0.422386
-0.501706
-0.884117
-0.183135
-0.181458
-0.19163
-0.200561
-0.220148
-0.244545
-0.274273
-0.299194
-0.327663
-0.207165
-0.186423
-0.185351
-0.196121
-0.205784
-0.226277
-0.251839
-0.283501
-0.309884
-0.349417
-0.23665
-0.188188
-0.187451
-0.198197
-0.208021
-0.228473
-0.254331
-0.287687
-0.317626
-0.372843
-0.283067
-0.189297
-0.188852
-0.199437
-0.209407
-0.229835
-0.256114
-0.291421
-0.326078
-0.393802
-0.33237
-0.190423
-0.190297
-0.200793
-0.211015
-0.231611
-0.258516
-0.295764
-0.334929
-0.412132
-0.381919
-0.191652
-0.191857
-0.202311
-0.212816
-0.233617
-0.261144
-0.300054
-0.343341
-0.428627
-0.434614
-0.192887
-0.19341
-0.203818
-0.214578
-0.235524
-0.263577
-0.303826
-0.351129
-0.443339
-0.492197
-0.194074
-0.194899
-0.205239
-0.216219
-0.237245
-0.265742
-0.307051
-0.358372
-0.45572
-0.555125
-0.195211
-0.196323
-0.206581
-0.217756
-0.238812
-0.267702
-0.309793
-0.365069
-0.465203
-0.624125
-0.196307
-0.197693
-0.207856
-0.219203
-0.240243
-0.269465
-0.31201
-0.371007
-0.470739
-0.697961
-0.0138382
-0.0185648
-0.00897503
-0.0188343
0.00127425
-0.0137479
0.0358656
0.0124877
0.183025
0.13876
-0.0138439
-0.0185617
-0.00900087
-0.018801
0.00120854
-0.0136119
0.0356122
0.0129409
0.1812
0.128075
-0.0138503
-0.0185581
-0.00902939
-0.0187646
0.00113718
-0.0134616
0.035348
0.0134622
0.179242
0.118199
-0.0138565
-0.018556
-0.00905853
-0.0187316
0.00106213
-0.0133267
0.0350609
0.013878
0.177031
0.107803
-0.0138629
-0.018555
-0.00908859
-0.0187007
0.000982614
-0.0132028
0.0347475
0.0142128
0.17453
0.0966283
-0.0138693
-0.0185548
-0.00911983
-0.0186714
0.000898151
-0.0130882
0.0344075
0.014477
0.171729
0.0848177
-0.0138758
-0.0185556
-0.00915204
-0.0186442
0.000809159
-0.012985
0.03404
0.0146599
0.168615
0.0724333
-0.0138823
-0.0185578
-0.00918412
-0.0186195
0.000718507
-0.0128906
0.0336553
0.0147797
0.165307
0.0594726
-0.013889
-0.0185611
-0.00921698
-0.0185941
0.000625583
-0.012785
0.0332706
0.0149357
0.161944
0.0458807
-0.0138973
-0.0185606
-0.00926281
-0.0185638
0.000498876
-0.0127012
0.0327681
0.0148825
0.15708
0.0314799
-0.0138127
-0.0185596
-0.00883755
-0.0189512
0.00167364
-0.014232
0.0375375
0.0114796
0.193752
0.198851
-0.0138145
-0.0185553
-0.00884333
-0.0189332
0.00166661
-0.0141537
0.0375453
0.0118811
0.194059
0.197615
-0.0138165
-0.0185524
-0.00885085
-0.0189179
0.00165186
-0.0140867
0.0375069
0.0121846
0.193979
0.195421
-0.0138186
-0.0185506
-0.00886012
-0.0189042
0.00162908
-0.0140281
0.0374256
0.0124099
0.193578
0.192207
-0.0138208
-0.0185499
-0.00887128
-0.0188918
0.00159836
-0.0139759
0.0373025
0.0125684
0.192862
0.187938
-0.0138232
-0.0185503
-0.00888428
-0.0188807
0.00155982
-0.0139305
0.0371379
0.012658
0.191826
0.182609
-0.0138258
-0.0185518
-0.00889911
-0.018871
0.00151351
-0.013892
0.0369329
0.01268
0.190472
0.176224
-0.0138285
-0.0185544
-0.00891573
-0.018863
0.00145896
-0.0138622
0.0366851
0.0126271
0.188777
0.168826
-0.0138314
-0.0185584
-0.00893417
-0.0188574
0.0013958
-0.0138445
0.036386
0.0124773
0.186627
0.160443
-0.0138346
-0.0185627
-0.00895467
-0.0188502
0.00132893
-0.0138196
0.0360682
0.0123316
0.184272
0.150546
-0.0138346
-0.0185627
-0.00895466
-0.0188501
0.00132892
-0.0138196
0.0360682
0.0123316
0.184272
0.150546
-0.0138314
-0.0185584
-0.00893416
-0.0188574
0.00139579
-0.0138445
0.036386
0.0124773
0.186627
0.160443
-0.0138285
-0.0185544
-0.00891572
-0.018863
0.00145895
-0.0138622
0.0366851
0.0126271
0.188777
0.168826
-0.0138258
-0.0185518
-0.0088991
-0.018871
0.00151351
-0.013892
0.0369329
0.01268
0.190472
0.176224
-0.0138232
-0.0185503
-0.00888428
-0.0188807
0.00155982
-0.0139305
0.0371379
0.012658
0.191826
0.182609
-0.0138208
-0.0185499
-0.00887127
-0.0188918
0.00159836
-0.0139759
0.0373025
0.0125684
0.192862
0.187938
-0.0138186
-0.0185506
-0.00886012
-0.0189042
0.00162908
-0.0140281
0.0374256
0.0124099
0.193578
0.192207
-0.0138165
-0.0185524
-0.00885084
-0.0189179
0.00165186
-0.0140867
0.0375069
0.0121846
0.193979
0.195421
-0.0138145
-0.0185553
-0.00884333
-0.0189332
0.00166661
-0.0141537
0.0375453
0.0118811
0.194059
0.197615
-0.0138127
-0.0185596
-0.00883755
-0.0189512
0.00167364
-0.014232
0.0375375
0.0114796
0.193752
0.198851
-0.0138973
-0.0185606
-0.0092628
-0.0185638
0.000498866
-0.0127012
0.0327681
0.0148825
0.15708
0.0314799
-0.013889
-0.0185611
-0.00921697
-0.0185941
0.000625573
-0.012785
0.0332706
0.0149357
0.161944
0.0458807
-0.0138823
-0.0185578
-0.00918411
-0.0186195
0.000718496
-0.0128906
0.0336553
0.0147797
0.165307
0.0594726
-0.0138758
-0.0185556
-0.00915203
-0.0186442
0.000809147
-0.012985
0.03404
0.0146599
0.168615
0.0724333
-0.0138693
-0.0185548
-0.00911982
-0.0186714
0.000898139
-0.0130882
0.0344075
0.014477
0.171729
0.0848177
-0.0138629
-0.018555
-0.00908858
-0.0187006
0.000982602
-0.0132028
0.0347475
0.0142128
0.17453
0.0966283
-0.0138565
-0.018556
-0.00905852
-0.0187316
0.00106212
-0.0133267
0.0350609
0.013878
0.177031
0.107803
-0.0138503
-0.0185581
-0.00902938
-0.0187646
0.00113717
-0.0134616
0.035348
0.0134622
0.179242
0.118199
-0.0138439
-0.0185617
-0.00900086
-0.018801
0.00120853
-0.0136119
0.0356122
0.0129409
0.1812
0.128075
-0.0138382
-0.0185648
-0.00897502
-0.0188343
0.00127424
-0.0137479
0.0358656
0.0124877
0.183025
0.13876
-0.196307
-0.197693
-0.207856
-0.219203
-0.240243
-0.269465
-0.31201
-0.371007
-0.470739
-0.697961
-0.195211
-0.196323
-0.206581
-0.217756
-0.238812
-0.267702
-0.309793
-0.365068
-0.465203
-0.624125
-0.194074
-0.194899
-0.205239
-0.216219
-0.237245
-0.265742
-0.307051
-0.358372
-0.45572
-0.555125
-0.192887
-0.19341
-0.203818
-0.214578
-0.235524
-0.263577
-0.303826
-0.351129
-0.443339
-0.492197
-0.191652
-0.191857
-0.202311
-0.212816
-0.233617
-0.261144
-0.300054
-0.343341
-0.428627
-0.434614
-0.190423
-0.190297
-0.200793
-0.211015
-0.231611
-0.258516
-0.295764
-0.334929
-0.412132
-0.381919
-0.189297
-0.188852
-0.199437
-0.209407
-0.229835
-0.256114
-0.291421
-0.326078
-0.393802
-0.33237
-0.188188
-0.187451
-0.198197
-0.208021
-0.228473
-0.254331
-0.287687
-0.317626
-0.372843
-0.283067
-0.186423
-0.185351
-0.196121
-0.205784
-0.226277
-0.251839
-0.283501
-0.309884
-0.349417
-0.23665
-0.183135
-0.181458
-0.19163
-0.200561
-0.220148
-0.244545
-0.274273
-0.299194
-0.327663
-0.207165
-0.206236
-0.21035
-0.219819
-0.233175
-0.254065
-0.287912
-0.330469
-0.422386
-0.501706
-0.884117
-0.20548
-0.20938
-0.218963
-0.232224
-0.253311
-0.287073
-0.329973
-0.420998
-0.50248
-0.859904
-0.20467
-0.208341
-0.218021
-0.231153
-0.252383
-0.285915
-0.329098
-0.418607
-0.500868
-0.837893
-0.203805
-0.207231
-0.216995
-0.229966
-0.251289
-0.284468
-0.327889
-0.415132
-0.498305
-0.81901
-0.202887
-0.206051
-0.215885
-0.228666
-0.250034
-0.282758
-0.326357
-0.410626
-0.494876
-0.802472
-0.201913
-0.2048
-0.21469
-0.227249
-0.248607
-0.280776
-0.324436
-0.405142
-0.490576
-0.78767
-0.200882
-0.203475
-0.2134
-0.225697
-0.246974
-0.278474
-0.321991
-0.398559
-0.485382
-0.776066
-0.199794
-0.202075
-0.212013
-0.224006
-0.245118
-0.275835
-0.318974
-0.390796
-0.479657
-0.773064
-0.19865
-0.200613
-0.210563
-0.222248
-0.243181
-0.273119
-0.315798
-0.382589
-0.474794
-0.781313
-0.197455
-0.199115
-0.209141
-0.220608
-0.241519
-0.270953
-0.31347
-0.375863
-0.472785
-0.776186
-0.211082
-0.216798
-0.225113
-0.238871
-0.257856
-0.291179
-0.332297
-0.415657
-0.519542
-0.732053
-0.210802
-0.216431
-0.224909
-0.238764
-0.25809
-0.291903
-0.333357
-0.419565
-0.520143
-0.739586
-0.21048
-0.216002
-0.224628
-0.23854
-0.258155
-0.292336
-0.33399
-0.422516
-0.519183
-0.749097
-0.210115
-0.21551
-0.22427
-0.238201
-0.258059
-0.29249
-0.334257
-0.424758
-0.517785
-0.760833
-0.209704
-0.214956
-0.223835
-0.237748
-0.257806
-0.292374
-0.334181
-0.426281
-0.515751
-0.774921
-0.209247
-0.214336
-0.223319
-0.237175
-0.257384
-0.291965
-0.333728
-0.427
-0.512888
-0.791263
-0.208741
-0.213646
-0.222713
-0.236464
-0.256759
-0.291198
-0.332787
-0.426636
-0.508613
-0.811698
-0.208185
-0.212887
-0.222015
-0.235611
-0.255922
-0.290051
-0.331347
-0.424966
-0.502893
-0.841803
-0.20758
-0.21207
-0.221262
-0.234696
-0.255032
-0.288807
-0.329974
-0.422698
-0.498223
-0.882804
-0.206932
-0.211228
-0.220536
-0.233896
-0.254442
-0.288123
-0.329844
-0.421869
-0.499093
-0.91211
-0.212185
-0.217935
-0.224988
-0.237204
-0.25334
-0.281294
-0.320193
-0.392929
-0.532331
-0.659577
-0.212175
-0.217995
-0.225211
-0.237709
-0.254308
-0.283066
-0.322808
-0.39577
-0.533713
-0.658502
-0.212145
-0.218017
-0.225384
-0.238132
-0.255145
-0.284649
-0.325155
-0.39879
-0.535653
-0.657373
-0.212094
-0.218
-0.225506
-0.238469
-0.25584
-0.286004
-0.327064
-0.401391
-0.536799
-0.658955
-0.21202
-0.217945
-0.225577
-0.238723
-0.256401
-0.287147
-0.328572
-0.403697
-0.53721
-0.662782
-0.211924
-0.217849
-0.225597
-0.238891
-0.256825
-0.288078
-0.32968
-0.405734
-0.536824
-0.668881
-0.211802
-0.21771
-0.225557
-0.238959
-0.257082
-0.288746
-0.330286
-0.407338
-0.535139
-0.677541
-0.211652
-0.217524
-0.225448
-0.238909
-0.257132
-0.28908
-0.33023
-0.408178
-0.531401
-0.691836
-0.211479
-0.217297
-0.225294
-0.238784
-0.257075
-0.289248
-0.329826
-0.408712
-0.52636
-0.717055
-0.211294
-0.217061
-0.22518
-0.238761
-0.257289
-0.289902
-0.330417
-0.411128
-0.522911
-0.741882
-0.00186452
0.00250954
-0.0130795
-0.00453066
-0.0450291
-0.0305641
-0.115976
-0.103666
-0.230634
-0.181987
-0.00186654
0.00248305
-0.0130934
-0.00460632
-0.0450745
-0.0307668
-0.11616
-0.104065
-0.230999
-0.181805
-0.00186849
0.0024529
-0.0131108
-0.00469697
-0.045137
-0.0310076
-0.116397
-0.1045
-0.2314
-0.181663
-0.00187071
0.00242157
-0.0131297
-0.00478884
-0.0452016
-0.0312462
-0.116631
-0.104915
-0.231804
-0.18153
-0.00187318
0.00238933
-0.0131493
-0.00488104
-0.0452659
-0.0314836
-0.116859
-0.105324
-0.232174
-0.1814
-0.00187586
0.00235603
-0.0131698
-0.00497439
-0.0453308
-0.0317223
-0.117087
-0.105731
-0.232563
-0.181271
-0.00187876
0.00232174
-0.0131913
-0.00506877
-0.0453963
-0.0319611
-0.117312
-0.106131
-0.232966
-0.181143
-0.00188183
0.0022861
-0.013214
-0.00516681
-0.0454652
-0.0322067
-0.117541
-0.106528
-0.233354
-0.181057
-0.0018848
0.00224753
-0.0132385
-0.00527569
-0.0455427
-0.0324825
-0.117797
-0.106967
-0.233657
-0.181069
-0.00188731
0.00220715
-0.013261
-0.00537887
-0.0456113
-0.0327348
-0.118029
-0.107378
-0.234281
-0.18081
-0.00184811
0.00265359
-0.0129872
-0.00415231
-0.0447717
-0.0296416
-0.115066
-0.102083
-0.228931
-0.182534
-0.00184816
0.00264899
-0.012989
-0.00417189
-0.0447824
-0.0297094
-0.115125
-0.102249
-0.229063
-0.182465
-0.00184835
0.00264079
-0.0129931
-0.00420049
-0.0448017
-0.0297896
-0.115206
-0.1024
-0.229184
-0.182405
-0.00184899
0.00263076
-0.0129989
-0.0042313
-0.0448235
-0.0298703
-0.115288
-0.102551
-0.229319
-0.182355
-0.0018501
0.0026191
-0.0130063
-0.00426428
-0.0448471
-0.0299536
-0.115374
-0.102703
-0.229468
-0.18231
-0.00185165
0.00260566
-0.0130153
-0.00429994
-0.0448728
-0.0300402
-0.115465
-0.102856
-0.229628
-0.182271
-0.00185364
0.00259046
-0.0130258
-0.00433819
-0.0449007
-0.0301298
-0.115559
-0.103008
-0.229799
-0.182238
-0.00185607
0.00257365
-0.0130379
-0.00437838
-0.0449306
-0.0302205
-0.115655
-0.103157
-0.229981
-0.182219
-0.0018589
0.00255516
-0.0130515
-0.00442062
-0.0449623
-0.0303114
-0.115754
-0.103299
-0.230168
-0.182215
-0.00186183
0.00253356
-0.0130658
-0.0044709
-0.0449959
-0.0304203
-0.115862
-0.103457
-0.230359
-0.182163
-0.0164
-0.0190033
-0.0164315
-0.0216434
-0.0214367
-0.030375
-0.0410883
-0.0540442
-0.097775
-0.115
-0.015905
-0.0192045
-0.0153197
-0.0214826
-0.0187199
-0.028022
-0.0340789
-0.0467467
-0.0883976
-0.0995676
-0.0156437
-0.0192201
-0.0146647
-0.0212404
-0.0168693
-0.0267474
-0.0296803
-0.0427504
-0.0809043
-0.094018
-0.0152766
-0.0192431
-0.0137188
-0.0209351
-0.014252
-0.0248764
-0.0221604
-0.0368514
-0.068825
-0.0845625
-0.0149601
-0.0192088
-0.0128513
-0.0205671
-0.0116654
-0.0230517
-0.01474
-0.031223
-0.0541885
-0.0791095
-0.0146675
-0.0191349
-0.0120209
-0.0201713
-0.00899299
-0.0211251
-0.0058345
-0.0249149
-0.0336379
-0.0749971
-0.0143881
-0.0190661
-0.0111511
-0.0197875
-0.00633747
-0.019104
0.00315659
-0.0177659
-0.00858591
-0.069936
-0.0142028
-0.018891
-0.010577
-0.0192942
-0.0040942
-0.0170312
0.0123893
-0.0100008
0.0261878
-0.0780166
-0.0139902
-0.0188611
-0.0097977
-0.0190955
-0.00174855
-0.0152977
0.0214948
-0.000882141
0.0699711
-0.0447967
-0.0139618
-0.0185049
-0.00965357
-0.0184113
-0.000454154
-0.0130275
0.0287208
0.00981321
0.112757
-0.0476021
-0.0139618
-0.0185049
-0.00965358
-0.0184113
-0.000454147
-0.0130275
0.0287208
0.00981321
0.112757
-0.0476021
-0.0139901
-0.0188611
-0.00979771
-0.0190955
-0.00174854
-0.0152977
0.0214948
-0.000882144
0.0699711
-0.0447967
-0.0142028
-0.018891
-0.010577
-0.0192942
-0.0040942
-0.0170312
0.0123893
-0.0100008
0.0261878
-0.0780166
-0.0143881
-0.0190661
-0.0111511
-0.0197876
-0.00633747
-0.019104
0.00315659
-0.0177659
-0.00858591
-0.069936
-0.0146675
-0.0191349
-0.0120209
-0.0201713
-0.00899299
-0.0211251
-0.0058345
-0.0249149
-0.0336379
-0.0749971
-0.0149601
-0.0192088
-0.0128513
-0.0205671
-0.0116655
-0.0230517
-0.01474
-0.031223
-0.0541885
-0.0791095
-0.0152766
-0.0192431
-0.0137188
-0.0209351
-0.014252
-0.0248764
-0.0221604
-0.0368514
-0.068825
-0.0845625
-0.0156437
-0.0192201
-0.0146647
-0.0212404
-0.0168693
-0.0267474
-0.0296803
-0.0427504
-0.0809043
-0.0940181
-0.015905
-0.0192045
-0.0153197
-0.0214826
-0.0187199
-0.028022
-0.0340789
-0.0467467
-0.0883976
-0.0995676
-0.0163999
-0.0190033
-0.0164315
-0.0216434
-0.0214367
-0.030375
-0.0410883
-0.0540442
-0.097775
-0.115
-0.00189914
0.00199314
-0.0133439
-0.00574435
-0.0457711
-0.0333212
-0.118529
-0.107885
-0.242736
-0.174033
-0.00197798
0.00167753
-0.0136228
-0.00614789
-0.0459685
-0.033601
-0.117873
-0.10721
-0.229817
-0.184288
-0.00207529
0.00127001
-0.0139029
-0.00675619
-0.0460807
-0.0343611
-0.116839
-0.107835
-0.235044
-0.211355
-0.00217897
0.000865628
-0.0141687
-0.00729337
-0.0460228
-0.0348175
-0.114738
-0.106756
-0.220719
-0.21821
-0.00228528
0.000481138
-0.0144
-0.00776801
-0.045808
-0.0351912
-0.112231
-0.106559
-0.21908
-0.222948
-0.00238928
0.000137191
-0.0145765
-0.00813343
-0.0454176
-0.0352409
-0.109026
-0.104761
-0.20526
-0.22158
-0.0024894
-0.000157115
-0.014696
-0.00839174
-0.0449281
-0.0352131
-0.106298
-0.103891
-0.201691
-0.219357
-0.00258332
-0.000395948
-0.0147521
-0.00850602
-0.0441842
-0.0346746
-0.102044
-0.101433
-0.189083
-0.216471
-0.0026752
-0.000589249
-0.0147661
-0.0085627
-0.0436651
-0.0344421
-0.100165
-0.100582
-0.186036
-0.213948
-0.0027862
-0.000731021
-0.0146592
-0.00835759
-0.0422908
-0.0330778
-0.0941919
-0.0969977
-0.173011
-0.21164
-0.0027862
-0.000731022
-0.0146592
-0.00835759
-0.0422908
-0.0330778
-0.0941919
-0.0969977
-0.173011
-0.21164
-0.0026752
-0.00058925
-0.0147661
-0.0085627
-0.0436651
-0.0344421
-0.100165
-0.100582
-0.186036
-0.213948
-0.00258333
-0.000395949
-0.0147521
-0.00850602
-0.0441842
-0.0346746
-0.102044
-0.101433
-0.189083
-0.216471
-0.0024894
-0.000157115
-0.014696
-0.00839174
-0.0449281
-0.0352131
-0.106298
-0.103891
-0.201691
-0.219357
-0.00238928
0.00013719
-0.0145765
-0.00813343
-0.0454176
-0.0352409
-0.109026
-0.104761
-0.20526
-0.22158
-0.00228528
0.000481137
-0.0144
-0.00776802
-0.045808
-0.0351912
-0.112231
-0.106559
-0.21908
-0.222948
-0.00217898
0.000865627
-0.0141687
-0.00729337
-0.0460228
-0.0348175
-0.114738
-0.106756
-0.220719
-0.21821
-0.00207529
0.00127001
-0.0139029
-0.00675619
-0.0460807
-0.0343611
-0.116839
-0.107835
-0.235044
-0.211355
-0.00197798
0.00167753
-0.0136228
-0.00614789
-0.0459685
-0.033601
-0.117873
-0.10721
-0.229817
-0.184288
-0.00189914
0.00199314
-0.0133439
-0.00574435
-0.0457711
-0.0333212
-0.118529
-0.107885
-0.242736
-0.174033
)
;

boundaryField
{
    inlet
    {
        type            zeroGradient;
    }
    outlet
    {
        type            fixedValue;
        value           uniform 0;
    }
    polygon
    {
        type            zeroGradient;
    }
    top
    {
        type            symmetryPlane;
    }
    bottom
    {
        type            symmetryPlane;
    }
    outside
    {
        type            slip;
    }
}


// ************************************************************************* //
