/*--------------------------------*- C++ -*----------------------------------*\
  =========                 |
  \\      /  F ield         | OpenFOAM: The Open Source CFD Toolbox
   \\    /   O peration     | Website:  https://openfoam.org
    \\  /    A nd           | Version:  10
     \\/     M anipulation  |
\*---------------------------------------------------------------------------*/
FoamFile
{
    format      ascii;
    class       surfaceScalarField;
    location    "20";
    object      phi;
}
// * * * * * * * * * * * * * * * * * * * * * * * * * * * * * * * * * * * * * //

dimensions      [0 3 -1 0 0 0 0];

internalField   nonuniform List<scalar> 
3800
(
-0.00131196
0.000985512
-0.00108994
-0.00120229
0.00103831
-0.00114798
-0.00106447
0.00130438
-0.0014422
-0.000924876
0.00132758
-0.00146717
-0.000746626
0.00169017
-0.00186842
-0.000582707
0.00157144
-0.00173536
-0.000352295
0.00216788
-0.0023983
-0.00024489
0.00102078
-0.00112818
-0.00020183
-0.000215679
0.000172619
0.00164804
-0.00184987
-0.00130409
0.00087967
-0.00119281
0.000927035
-0.00105302
0.00116458
-0.000911168
0.00118572
-0.000730264
0.00150927
-0.00056328
0.00140446
-0.00032989
0.00193449
-0.000220605
0.000911491
-0.000196151
-0.000240133
0.00145189
-0.001297
0.000772547
-0.00118428
0.000814322
-0.00104269
0.00102299
-0.000898845
0.00104188
-0.000715511
0.00132594
-0.000545836
0.00123479
-0.000309769
0.00169843
-0.000198971
0.000800693
-0.000191284
-0.000247819
0.0012606
-0.00129071
0.000664293
-0.00117673
0.000700341
-0.00103354
0.000879801
-0.000887945
0.000896282
-0.000702472
0.00114046
-0.000530429
0.00106274
-0.000292041
0.00146004
-0.000179997
0.000688649
-0.000187173
-0.000240644
0.00107343
-0.00128527
0.000555061
-0.00117019
0.000585268
-0.00102563
0.000735243
-0.000878525
0.000749173
-0.000691213
0.00095315
-0.000517135
0.000888664
-0.000276774
0.00121968
-0.000163705
0.00057558
-0.000183764
-0.000220585
0.000889666
-0.00128069
0.000445012
-0.00116471
0.000469283
-0.001019
0.000589539
-0.000870634
0.000600804
-0.000681792
0.000764308
-0.000506021
0.000712893
-0.000264028
0.000977685
-0.000150112
0.000461663
-0.000181014
-0.000189682
0.000708652
-0.00127701
0.000334311
-0.0011603
0.000352572
-0.00101368
0.000442922
-0.000864315
0.000451436
-0.000674257
0.00057425
-0.000497144
0.00053578
-0.000253853
0.000734395
-0.000139231
0.000347042
-0.000178887
-0.000150027
0.000529765
-0.00127424
0.000223127
-0.00115699
0.000235325
-0.0010097
0.000295631
-0.0008596
0.000301333
-0.000668646
0.000383296
-0.000490549
0.000357683
-0.000246289
0.000490135
-0.000131078
0.00023183
-0.000177356
-0.000103749
0.00035241
-0.0012724
0.000111632
-0.00115481
0.000117736
-0.00100709
0.000147908
-0.000856518
0.000150763
-0.000664992
0.000191771
-0.000486274
0.000178964
-0.00024137
0.000245231
-0.00012566
0.00011612
-0.000176401
-5.30076e-05
0.000176008
-0.00127149
3.16641e-11
-0.00115376
6.34053e-11
-0.00100585
4.77342e-11
-0.000855088
-3.24747e-11
-0.000663316
-8.2347e-11
-0.000484352
-4.99948e-11
-0.000239121
1.25701e-11
-0.000123001
1.44801e-12
-0.000176008
4.53716e-11
2.67304e-11
-0.00118961
0.00183613
-0.00191164
-0.00111119
0.00192695
-0.00200537
-0.00101347
0.0024214
-0.00251912
-0.000916237
0.0024483
-0.00254553
-0.000793848
0.00312151
-0.0032439
-0.000685499
0.00286499
-0.00297334
-0.0005339
0.00398929
-0.00414089
-0.000486848
0.00174729
-0.00179434
-0.000243183
0.0010426
-0.00128627
0.00363293
-0.00387611
-0.00118049
0.00175896
-0.00110048
0.00184694
-0.0010001
0.00232102
-0.000900726
0.00234893
-0.000774055
0.00299484
-0.000662746
0.00275368
-0.000504416
0.00383096
-0.000453395
0.00169627
-0.000231732
0.000820939
0.00340119
-0.00117166
0.00168024
-0.00108989
0.00176516
-0.000987241
0.00221837
-0.000885266
0.00224696
-0.000755184
0.00286475
-0.000640008
0.00263851
-0.000476442
0.00366739
-0.000420099
0.00163993
-0.000221579
0.000622419
0.00317962
-0.00116308
0.00160001
-0.00107958
0.00168167
-0.00097473
0.00211352
-0.000870221
0.00214245
-0.000736826
0.00273136
-0.000617903
0.00251958
-0.00044936
0.00349885
-0.000388073
0.00157864
-0.000212208
0.000446554
0.00296741
-0.00115476
0.00151832
-0.0010696
0.00159651
-0.000962606
0.00200652
-0.00085564
0.00203548
-0.000719044
0.00259476
-0.000596504
0.00239704
-0.000423252
0.0033256
-0.00035742
0.00151281
-0.000203603
0.000292738
0.00276381
-0.00114674
0.00143522
-0.00105998
0.00150975
-0.000950909
0.00189745
-0.000841575
0.00192615
-0.000701901
0.00245509
-0.000575886
0.00227103
-0.000398198
0.00314791
-0.000328198
0.00144281
-0.000195745
0.000160285
0.00256806
-0.00113905
0.00135076
-0.00105074
0.00142144
-0.00093968
0.00178639
-0.000828075
0.00181454
-0.000685454
0.00231247
-0.000556116
0.00214169
-0.000374267
0.00296606
-0.000300466
0.00136901
-0.000188603
4.84217e-05
0.00237946
-0.00113171
0.00126502
-0.00104192
0.00133166
-0.00092896
0.00167342
-0.000815189
0.00170077
-0.000669761
0.00216704
-0.000537259
0.00200919
-0.000351519
0.00278032
-0.00027427
0.00129176
-0.000182136
-4.37122e-05
0.00219732
-0.00112474
0.00117805
-0.00103356
0.00124048
-0.000918788
0.00155865
-0.000802964
0.00158495
-0.000654881
0.00201896
-0.000519386
0.00187369
-0.000330025
0.00259096
-0.000249654
0.00121139
-0.000176316
-0.000117051
0.002021
-0.00111817
-0.00102567
-0.000909216
-0.000791438
-0.000640902
-0.000502572
-0.000309909
-0.000226705
-0.000171137
-0.000287662
0.0181499
-0.018019
-0.000419618
0.0182755
-0.0181436
-0.000552285
0.0183602
-0.0182276
-0.000686296
0.0185463
-0.0184122
-0.000821352
0.0187686
-0.0186336
-0.000956605
0.0191274
-0.0189922
-0.00109332
0.0195933
-0.0194566
-0.00116777
0.0201625
-0.020088
-0.00101786
0.0197746
-0.0199245
0.0125136
-0.0135315
-0.00028704
0.0182805
-0.000418441
0.0184069
-0.000550387
0.0184922
-0.000683133
0.018679
-0.000816192
0.0189017
-0.00094789
0.0192591
-0.00107653
0.0197219
-0.00113346
0.0202194
-0.000959713
0.0196009
0.0115539
-0.000286403
0.0184107
-0.00041727
0.0185378
-0.000548502
0.0186234
-0.000680047
0.0188105
-0.000811157
0.0190328
-0.000939473
0.0193875
-0.00106005
0.0198425
-0.00110033
0.0202597
-0.000897974
0.0193985
0.010656
-0.000285761
0.0185407
-0.000416094
0.0186681
-0.000546609
0.0187539
-0.00067695
0.0189409
-0.00080609
0.0191619
-0.000930937
0.0195123
-0.00104326
0.0199548
-0.00106798
0.0202844
-0.000839339
0.0191699
0.00981662
-0.000285114
0.0186703
-0.00041491
0.0187979
-0.000544692
0.0188837
-0.000673792
0.01907
-0.000800861
0.019289
-0.000921995
0.0196334
-0.00102555
0.0200584
-0.00103497
0.0202938
-0.000783686
0.0189186
0.00903293
-0.000284464
0.0187996
-0.00041372
0.0189272
-0.000542755
0.0190127
-0.000670577
0.0191978
-0.000795472
0.0194139
-0.000912637
0.0197506
-0.00100696
0.0201527
-0.00100103
0.0202879
-0.000729358
0.0186469
0.00830357
-0.000283813
0.0189286
-0.000412529
0.0190559
-0.000540805
0.019141
-0.00066732
0.0193243
-0.000789955
0.0195365
-0.000902923
0.0198636
-0.00098766
0.0202374
-0.000966366
0.0202666
-0.000676118
0.0183567
0.00762745
-0.000283163
0.0190573
-0.000411338
0.0191841
-0.00053885
0.0192685
-0.000664031
0.0194495
-0.000784329
0.0196568
-0.000892878
0.0199721
-0.000967689
0.0203122
-0.00093103
0.0202299
-0.000624098
0.0180497
0.00700336
-0.000282518
0.0191857
-0.000410153
0.0193117
-0.000536893
0.0193953
-0.000660718
0.0195733
-0.000778607
0.0197747
-0.000882535
0.020076
-0.000947167
0.0203769
-0.000895001
0.0201778
-0.000573583
0.0177283
0.00642977
-0.000281926
0.0193137
-0.000409027
0.0194388
-0.000534978
0.0195212
-0.000657383
0.0196957
-0.000772656
0.01989
-0.000871342
0.0201747
-0.000924671
0.0204302
-0.000857108
0.0201102
-0.000529216
0.0174004
0.00590056
-0.000242222
0.0175567
-0.0175024
-0.000299131
0.017668
-0.0176111
-0.000356897
0.0177521
-0.0176943
-0.000418214
0.0179267
-0.0178654
-0.000481943
0.018153
-0.0180893
-0.000553058
0.0185093
-0.0184381
-0.000634123
0.0189531
-0.018872
-0.000728873
0.0198526
-0.0197578
-0.000744198
0.0204272
-0.0204119
0.0183108
-0.019055
-0.000241467
0.0176103
-0.000297554
0.0177241
-0.000354343
0.0178089
-0.000414229
0.0179866
-0.000475946
0.0182147
-0.000543747
0.0185771
-0.000620131
0.0190295
-0.000698376
0.0199308
-0.00069498
0.0204238
0.0176159
-0.000240683
0.0176634
-0.000295952
0.0177794
-0.000351764
0.0178647
-0.00041021
0.018045
-0.000469929
0.0182744
-0.000534351
0.0186415
-0.000606079
0.0191012
-0.00066907
0.0199938
-0.000648517
0.0204033
0.0169673
-0.000239871
0.0177159
-0.000294323
0.0178338
-0.000349153
0.0179195
-0.00040614
0.018102
-0.000463844
0.0183321
-0.000524809
0.0187025
-0.000591737
0.0191681
-0.00064099
0.020043
-0.000605501
0.0203678
0.0163618
-0.000239032
0.0177678
-0.00029267
0.0178874
-0.000346508
0.0179734
-0.000402012
0.0181575
-0.00045765
0.0183878
-0.00051507
0.0187599
-0.00057694
0.01923
-0.000613473
0.0200796
-0.000564907
0.0203192
0.0157969
-0.000238171
0.0178191
-0.000290998
0.0179403
-0.000343837
0.0180262
-0.000397835
0.0182115
-0.000451357
0.0184413
-0.000505161
0.0188137
-0.000561725
0.0192866
-0.000586155
0.020104
-0.000525955
0.020259
0.015271
-0.000237291
0.0178699
-0.000289311
0.0179923
-0.000341148
0.018078
-0.000393623
0.018264
-0.000444989
0.0184926
-0.000495131
0.0188638
-0.00054619
0.0193376
-0.000558945
0.0201168
-0.000488313
0.0201884
0.0147827
-0.000236395
0.0179201
-0.000287614
0.0180435
-0.000338448
0.0181289
-0.000389393
0.0183149
-0.000438571
0.0185418
-0.000485026
0.0189103
-0.00053043
0.019383
-0.000531842
0.0201182
-0.000451813
0.0201083
0.0143308
-0.000235486
0.0179698
-0.000285912
0.0180939
-0.000335746
0.0181787
-0.000385154
0.0183643
-0.000432116
0.0185888
-0.000474858
0.018953
-0.000514406
0.0194226
-0.000504488
0.0201083
-0.000416167
0.02002
0.0139147
-0.000234564
-0.00028421
-0.000333055
-0.000380953
-0.000425732
-0.000464904
-0.000498903
-0.000478675
-0.000383185
-0.000160276
0.0177827
-0.01781
-0.000137242
0.017865
-0.0178881
-0.000114828
0.0179473
-0.0179697
-9.765e-05
0.0180907
-0.0181078
-8.45229e-05
0.0183044
-0.0183176
-8.36473e-05
0.018593
-0.0185938
-9.49354e-05
0.0189755
-0.0189642
-0.000179578
0.0195597
-0.0194751
-0.000241368
0.0202531
-0.0201913
0.0196192
-0.0198606
-0.00015974
0.0177546
-0.000135627
0.0178409
-0.000112141
0.0179238
-9.34703e-05
0.018072
-7.83205e-05
0.0182893
-7.47654e-05
0.0185894
-8.16626e-05
0.0189824
-0.000153304
0.0196314
-0.0002046
0.0203044
0.0194146
-0.000159138
0.0177257
-0.000133987
0.0178158
-0.000109363
0.0178992
-8.9159e-05
0.0180518
-7.18847e-05
0.018272
-6.53381e-05
0.0185829
-6.76362e-05
0.0189847
-0.000126833
0.0196906
-0.000171856
0.0203494
0.0192427
-0.000158496
0.0176961
-0.000132307
0.0177896
-0.000106528
0.0178734
-8.47475e-05
0.01803
-6.52885e-05
0.0182525
-5.5513e-05
0.0185731
-5.30309e-05
0.0189822
-0.000100384
0.0197379
-0.000138345
0.0203874
0.0191044
-0.000157815
0.0176656
-0.000130595
0.0177624
-0.000103655
0.0178464
-8.02744e-05
0.0180066
-5.86049e-05
0.0182309
-4.54285e-05
0.0185599
-3.81383e-05
0.0189749
-7.36322e-05
0.0197734
-0.000103476
0.0204172
0.0190009
-0.000157101
0.0176345
-0.000128857
0.0177341
-0.000100753
0.0178183
-7.57597e-05
0.0179816
-5.18705e-05
0.018207
-3.51421e-05
0.0185432
-2.3343e-05
0.0189631
-4.62742e-05
0.0197964
-6.77304e-05
0.0204387
0.0189332
-0.000156354
0.0176025
-0.000127095
0.0177048
-9.7829e-05
0.0177891
-7.1213e-05
0.017955
-4.51012e-05
0.0181809
-2.46724e-05
0.0185227
-8.6343e-06
0.0189471
-1.78851e-05
0.0198056
-3.14542e-05
0.0204523
0.0189017
-0.000155577
0.0175699
-0.000125314
0.0176746
-9.48886e-05
0.0177586
-6.6643e-05
0.0179268
-3.83115e-05
0.0181525
-1.40287e-05
0.0184985
6.29235e-06
0.0189268
1.04064e-05
0.0198015
5.52908e-06
0.0204571
0.0189073
-0.000154772
0.0175365
-0.000123518
0.0176433
-9.19394e-05
0.0177271
-6.20637e-05
0.0178969
-3.15217e-05
0.018122
-3.14729e-06
0.0184701
2.17364e-05
0.0189019
3.71307e-05
0.0197861
5.05925e-05
0.0204437
0.0189579
-0.000153939
-0.0001217
-8.89705e-05
-5.74591e-05
-2.47121e-05
7.228e-06
3.70805e-05
6.5381e-05
9.7175e-05
-5.28097e-05
0.0187825
-0.0188857
4.53229e-05
0.0188202
-0.0189183
0.000142568
0.0189068
-0.0190041
0.00023393
0.0190085
-0.0190999
0.000320294
0.0191947
-0.019281
0.000395331
0.0193909
-0.019466
0.000440499
0.0195923
-0.0196374
0.000420893
0.0195181
-0.0194985
0.000291346
0.0195896
-0.01946
0.0157963
-0.015505
-5.17152e-05
0.0186773
4.76355e-05
0.0187208
0.00014734
0.0188071
0.000241455
0.0189144
0.000331169
0.019105
0.000409669
0.0193124
0.000458556
0.0195434
0.00043927
0.0195374
0.000313136
0.0197157
0.0161095
-5.12493e-05
0.0185714
4.93169e-05
0.0186202
0.000150206
0.0187062
0.000245991
0.0188186
0.000337648
0.0190133
0.00041845
0.0192316
0.000471011
0.0194908
0.000455747
0.0195526
0.000339694
0.0198317
0.0164492
-5.08402e-05
0.0184647
5.07587e-05
0.0185186
0.000152716
0.0186043
0.00024989
0.0187214
0.00034329
0.0189199
0.000426346
0.0191486
0.000483799
0.0194334
0.000473776
0.0195627
0.000369656
0.0199359
0.0168188
-5.04249e-05
0.0183574
5.21693e-05
0.0184161
0.000155193
0.0185012
0.000253767
0.0186229
0.000349046
0.0188246
0.000434623
0.019063
0.000497631
0.0193703
0.000493147
0.0195671
0.000401929
0.0200271
0.0172208
-4.99776e-05
0.0182493
5.36226e-05
0.0183125
0.000157742
0.0183971
0.000257787
0.0185228
0.000355074
0.0187273
0.000443348
0.0189747
0.000512153
0.0193015
0.000513846
0.0195654
0.00043762
0.0201033
0.0176584
-4.95024e-05
0.0181405
5.51084e-05
0.0182078
0.000160331
0.0182919
0.000261867
0.0184213
0.000361207
0.018628
0.000452231
0.0188837
0.000527041
0.0192267
0.000535929
0.0195566
0.000477641
0.0201616
0.018136
-4.90063e-05
0.018031
5.6605e-05
0.0181022
0.000162925
0.0181856
0.000265938
0.0183183
0.000367338
0.0185266
0.000461133
0.0187899
0.00054217
0.0191457
0.000559375
0.0195394
0.000522488
0.0201985
0.0186585
-4.84928e-05
0.0179209
5.81055e-05
0.0179956
0.000165512
0.0180782
0.000269987
0.0182138
0.000373445
0.0184231
0.000470027
0.0186933
0.000557423
0.0190583
0.000583918
0.0195129
0.000572108
0.0202103
0.0192306
-4.79645e-05
5.96087e-05
0.000168102
0.000274052
0.000379631
0.000479129
0.000573224
0.000610974
0.000629956
0.00162243
-1.06963e-05
1.03829e-05
0.00162125
2.45385e-05
-2.33578e-05
0.00161742
3.35489e-05
-2.97164e-05
0.00161242
8.23938e-05
-7.73964e-05
0.00160547
4.58642e-05
-3.89107e-05
0.00157688
0.000395297
-0.000366713
0.00154265
0.000262373
-0.000228139
0.00138977
0.00200201
-0.00184912
0.00114964
0.0020925
-0.00185237
0.0158285
-0.0146788
0.00162231
-1.08925e-05
0.00162131
2.55441e-05
0.00161723
3.76292e-05
0.00161257
8.70528e-05
0.00160499
5.34394e-05
0.00157707
0.000423217
0.00154064
0.000298806
0.00139042
0.00215223
0.00114503
0.00233789
0.0169735
0.0016222
-1.09757e-05
0.00162136
2.63872e-05
0.00161705
4.19329e-05
0.00161271
9.13985e-05
0.00160456
6.15911e-05
0.00157727
0.000450506
0.00153877
0.000337302
0.00139143
0.00229957
0.00114167
0.00258766
0.0181152
0.00162209
-1.0944e-05
0.00162141
2.70622e-05
0.00161688
4.64636e-05
0.00161286
9.54215e-05
0.00160413
7.03215e-05
0.00157748
0.000477147
0.00153696
0.000377823
0.00139278
0.00244375
0.00113909
0.00284134
0.0192543
0.00162197
-1.0797e-05
0.00162147
2.75646e-05
0.00161671
5.12226e-05
0.00161301
9.91148e-05
0.00160371
7.96286e-05
0.00157772
0.000503133
0.00153523
0.000420312
0.00139444
0.00258454
0.00113704
0.00309874
0.0203913
0.00162186
-1.05357e-05
0.00162153
2.78913e-05
0.00161654
5.62089e-05
0.00161318
0.000102474
0.00160331
8.95032e-05
0.00157799
0.000528457
0.00153362
0.000464673
0.00139644
0.00272173
0.00113554
0.00335964
0.0215268
0.00162174
-1.01623e-05
0.00162159
2.80405e-05
0.00161638
6.14189e-05
0.00161336
0.000105495
0.00160294
9.99301e-05
0.00157828
0.000553117
0.00153218
0.000510768
0.00139878
0.00285513
0.00113469
0.00362373
0.0226615
0.00162164
-9.68092e-06
0.00162166
2.80122e-05
0.00161624
6.68465e-05
0.00161355
0.00010818
0.00160259
0.00011089
0.00157859
0.000577118
0.00153092
0.000558434
0.00140141
0.00298464
0.00113468
0.00389045
0.0237962
0.00162153
-9.09704e-06
0.00162174
2.7807e-05
0.0016161
7.24834e-05
0.00161375
0.000110529
0.00160228
0.000122359
0.00157894
0.000600458
0.00152992
0.00060746
0.00140442
0.00311014
0.00113633
0.00415854
0.0249325
0.00162155
-8.53155e-06
0.00162162
2.7738e-05
0.00161628
7.78246e-05
0.00161361
0.000113199
0.00160264
0.000133328
0.00157876
0.000624341
0.00153085
0.000655363
0.00140768
0.00323331
0.00114464
0.00442159
0.0260772
0.00191474
-1.31957e-06
3.11666e-12
0.00191201
2.72477e-06
-3.69986e-12
0.00190958
2.43362e-06
6.38371e-12
0.00190108
8.49888e-06
-3.96137e-12
0.00189851
2.57325e-06
-5.38923e-13
0.00186017
3.8334e-05
-7.28145e-12
0.00184165
1.85259e-05
1.27739e-11
0.00165019
0.000191456
-8.81891e-12
0.00147223
0.000177959
-2.03447e-12
0.00147223
-1.45313e-11
0.00191472
-2.62022e-06
0.00191202
5.42615e-06
0.00190954
4.90896e-06
0.00190109
1.69521e-05
0.00189839
5.27441e-06
0.00186012
7.66032e-05
0.00184101
3.76287e-05
0.00164957
0.000382896
0.00146844
0.000359097
0.00294067
0.00191468
-3.88446e-06
0.00191203
8.07921e-06
0.00190948
7.45752e-06
0.00190112
2.53097e-05
0.00189822
8.17173e-06
0.00186015
0.000114682
0.00184031
5.74691e-05
0.00164949
0.00057371
0.00146579
0.000542801
0.00440646
0.00191463
-5.09527e-06
0.00191205
1.06596e-05
0.0019094
1.01094e-05
0.00190118
3.35247e-05
0.00189802
1.13289e-05
0.00186025
0.000152455
0.00183953
7.81901e-05
0.00164986
0.000763377
0.00146424
0.000728424
0.0058707
0.00191456
-6.23632e-06
0.00191207
1.31438e-05
0.00190929
1.28935e-05
0.00190126
4.15512e-05
0.00189779
1.48067e-05
0.00186043
0.00018981
0.0018387
9.99236e-05
0.0016507
0.00095138
0.00146376
0.000915363
0.00733445
0.00191447
-7.29216e-06
0.00191211
1.55094e-05
0.00190916
1.5837e-05
0.00190137
4.93456e-05
0.00189751
1.86621e-05
0.00186069
0.000226636
0.00183782
0.000122794
0.00165198
0.00113721
0.00146429
0.00110306
0.00879874
0.00191437
-8.24837e-06
0.00191215
1.77351e-05
0.00190902
1.8965e-05
0.0019015
5.68675e-05
0.00189721
2.29477e-05
0.00186102
0.000262832
0.00183689
0.00014692
0.00165372
0.00132039
0.00146578
0.00129099
0.0102645
0.00191426
-9.09173e-06
0.00191219
1.98015e-05
0.00190886
2.23003e-05
0.00190165
6.40801e-05
0.00189688
2.77108e-05
0.00186141
0.000298307
0.00183591
0.000172416
0.00165588
0.00150041
0.00146814
0.00147873
0.0117327
0.00191414
-9.81037e-06
0.00191225
2.16909e-05
0.00190868
2.5863e-05
0.00190181
7.09514e-05
0.00189653
3.29932e-05
0.00186185
0.000332984
0.00183487
0.000199399
0.00165845
0.00167683
0.00147124
0.00166595
0.0132039
0.00191399
0.00191232
0.00190847
0.00190202
0.00189611
0.00186238
0.00183364
0.00166135
0.00147492
0.00191399
9.81036e-06
-1.03829e-05
0.00191232
-2.16909e-05
2.33578e-05
0.00190847
-2.58631e-05
2.97164e-05
0.00190202
-7.09514e-05
7.73964e-05
0.00189611
-3.29932e-05
3.89107e-05
0.00186238
-0.000332984
0.000366713
0.00183364
-0.000199399
0.000228139
0.00166135
-0.00167683
0.00184912
0.00147492
-0.00166595
0.00185237
-0.0132039
0.0146788
0.00191414
9.09172e-06
0.00191225
-1.98015e-05
0.00190868
-2.23003e-05
0.00190181
-6.40801e-05
0.00189653
-2.77108e-05
0.00186185
-0.000298307
0.00183487
-0.000172416
0.00165845
-0.00150041
0.00147124
-0.00147873
-0.0117327
0.00191426
8.24836e-06
0.00191219
-1.77351e-05
0.00190886
-1.8965e-05
0.00190165
-5.68675e-05
0.00189688
-2.29477e-05
0.00186141
-0.000262832
0.00183591
-0.00014692
0.00165588
-0.00132039
0.00146814
-0.00129099
-0.0102645
0.00191437
7.29216e-06
0.00191215
-1.55094e-05
0.00190902
-1.5837e-05
0.0019015
-4.93456e-05
0.00189721
-1.86621e-05
0.00186102
-0.000226636
0.00183689
-0.000122794
0.00165372
-0.00113721
0.00146578
-0.00110306
-0.00879874
0.00191447
6.23631e-06
0.00191211
-1.31438e-05
0.00190916
-1.28936e-05
0.00190137
-4.15512e-05
0.00189751
-1.48067e-05
0.00186069
-0.00018981
0.00183782
-9.99236e-05
0.00165198
-0.00095138
0.00146429
-0.000915363
-0.00733445
0.00191456
5.09526e-06
0.00191207
-1.06596e-05
0.00190929
-1.01094e-05
0.00190126
-3.35247e-05
0.00189779
-1.13289e-05
0.00186043
-0.000152455
0.0018387
-7.81902e-05
0.0016507
-0.000763377
0.00146376
-0.000728424
-0.0058707
0.00191463
3.88445e-06
0.00191205
-8.0792e-06
0.0019094
-7.45753e-06
0.00190118
-2.53097e-05
0.00189802
-8.17173e-06
0.00186025
-0.000114682
0.00183953
-5.74691e-05
0.00164986
-0.00057371
0.00146424
-0.000542801
-0.00440646
0.00191468
2.62022e-06
0.00191203
-5.42614e-06
0.00190948
-4.90898e-06
0.00190112
-1.6952e-05
0.00189822
-5.27441e-06
0.00186015
-7.66032e-05
0.00184031
-3.76287e-05
0.00164949
-0.000382896
0.00146579
-0.000359097
-0.00294067
0.00191472
1.31956e-06
0.00191202
-2.72476e-06
0.00190954
-2.43363e-06
0.00190109
-8.49888e-06
0.00189839
-2.57324e-06
0.00186012
-3.8334e-05
0.00184101
-1.85259e-05
0.00164957
-0.000191456
0.00146844
-0.000177959
-0.00147223
0.00191474
0.00191201
0.00190958
0.00190108
0.00189851
0.00186017
0.00184165
0.00165019
0.00147223
0.00162155
9.09703e-06
-8.53155e-06
0.00162162
-2.7807e-05
2.7738e-05
0.00161628
-7.24835e-05
7.78247e-05
0.00161361
-0.000110529
0.000113199
0.00160264
-0.000122359
0.000133328
0.00157876
-0.000600458
0.000624341
0.00153085
-0.00060746
0.000655363
0.00140768
-0.00311014
0.00323331
0.00114464
-0.00415854
0.00442159
-0.0249325
0.0260772
0.00162153
9.68091e-06
0.00162174
-2.80122e-05
0.0016161
-6.68465e-05
0.00161375
-0.00010818
0.00160228
-0.00011089
0.00157894
-0.000577118
0.00152992
-0.000558434
0.00140442
-0.00298464
0.00113633
-0.00389045
-0.0237962
0.00162164
1.01623e-05
0.00162166
-2.80405e-05
0.00161624
-6.14189e-05
0.00161355
-0.000105495
0.00160259
-9.99301e-05
0.00157859
-0.000553117
0.00153092
-0.000510768
0.00140141
-0.00285513
0.00113468
-0.00362373
-0.0226615
0.00162174
1.05356e-05
0.00162159
-2.78912e-05
0.00161638
-5.62089e-05
0.00161336
-0.000102474
0.00160294
-8.95032e-05
0.00157828
-0.000528457
0.00153218
-0.000464673
0.00139878
-0.00272173
0.00113469
-0.00335964
-0.0215268
0.00162186
1.0797e-05
0.00162153
-2.75646e-05
0.00161654
-5.12226e-05
0.00161318
-9.91148e-05
0.00160331
-7.96286e-05
0.00157799
-0.000503133
0.00153362
-0.000420312
0.00139644
-0.00258454
0.00113554
-0.00309874
-0.0203913
0.00162197
1.0944e-05
0.00162147
-2.70622e-05
0.00161671
-4.64636e-05
0.00161301
-9.54215e-05
0.00160371
-7.03215e-05
0.00157772
-0.000477147
0.00153523
-0.000377823
0.00139444
-0.00244375
0.00113704
-0.00284134
-0.0192543
0.00162209
1.09757e-05
0.00162141
-2.63872e-05
0.00161688
-4.19329e-05
0.00161286
-9.13985e-05
0.00160413
-6.15911e-05
0.00157748
-0.000450506
0.00153696
-0.000337302
0.00139278
-0.00229957
0.00113909
-0.00258766
-0.0181152
0.0016222
1.08925e-05
0.00162136
-2.55441e-05
0.00161705
-3.76292e-05
0.00161271
-8.70528e-05
0.00160456
-5.34394e-05
0.00157727
-0.000423217
0.00153877
-0.000298806
0.00139143
-0.00215223
0.00114167
-0.00233789
-0.0169735
0.00162231
1.06963e-05
0.00162131
-2.45385e-05
0.00161723
-3.35489e-05
0.00161257
-8.23938e-05
0.00160499
-4.58642e-05
0.00157707
-0.000395297
0.00154064
-0.000262373
0.00139042
-0.00200201
0.00114503
-0.0020925
-0.0158285
0.00162243
0.00162125
0.00161742
0.00161242
0.00160547
0.00157688
0.00154265
0.00138977
0.00114964
-4.79646e-05
-0.0179209
0.01781
5.96088e-05
-0.0179956
0.0178881
0.000168102
-0.0180782
0.0179697
0.000274052
-0.0182138
0.0181078
0.000379631
-0.0184231
0.0183176
0.000479129
-0.0186933
0.0185938
0.000573224
-0.0190583
0.0189642
0.000610974
-0.0195129
0.0194751
0.000629956
-0.0202103
0.0201913
-0.0192306
0.0198606
-4.84928e-05
-0.018031
5.81054e-05
-0.0181022
0.000165512
-0.0181856
0.000269987
-0.0183183
0.000373445
-0.0185266
0.000470027
-0.0187899
0.000557423
-0.0191457
0.000583918
-0.0195394
0.000572108
-0.0201985
-0.0186585
-4.90064e-05
-0.0181405
5.66051e-05
-0.0182078
0.000162925
-0.0182919
0.000265938
-0.0184213
0.000367338
-0.018628
0.000461133
-0.0188837
0.00054217
-0.0192267
0.000559375
-0.0195566
0.000522488
-0.0201616
-0.018136
-4.95023e-05
-0.0182493
5.51083e-05
-0.0183125
0.000160331
-0.0183971
0.000261867
-0.0185228
0.000361207
-0.0187273
0.000452231
-0.0189747
0.000527041
-0.0193015
0.000535929
-0.0195654
0.000477641
-0.0201033
-0.0176584
-4.99776e-05
-0.0183574
5.36227e-05
-0.0184161
0.000157742
-0.0185012
0.000257787
-0.0186229
0.000355074
-0.0188246
0.000443348
-0.019063
0.000512153
-0.0193703
0.000513846
-0.0195671
0.00043762
-0.0200271
-0.0172208
-5.04249e-05
-0.0184647
5.21693e-05
-0.0185186
0.000155192
-0.0186043
0.000253767
-0.0187214
0.000349046
-0.0189199
0.000434623
-0.0191486
0.000497631
-0.0194334
0.000493147
-0.0195627
0.000401929
-0.0199359
-0.0168188
-5.08403e-05
-0.0185714
5.07587e-05
-0.0186202
0.000152716
-0.0187062
0.00024989
-0.0188186
0.00034329
-0.0190133
0.000426346
-0.0192316
0.000483799
-0.0194908
0.000473776
-0.0195526
0.000369656
-0.0198317
-0.0164492
-5.12492e-05
-0.0186773
4.93168e-05
-0.0187208
0.000150206
-0.0188071
0.000245991
-0.0189144
0.000337648
-0.019105
0.00041845
-0.0193124
0.000471011
-0.0195434
0.000455747
-0.0195374
0.000339694
-0.0197157
-0.0161095
-5.17152e-05
-0.0187825
4.76356e-05
-0.0188202
0.00014734
-0.0189068
0.000241455
-0.0190085
0.000331169
-0.0191947
0.000409669
-0.0193909
0.000458556
-0.0195923
0.00043927
-0.0195181
0.000313136
-0.0195896
-0.0157963
-5.28097e-05
-0.0188857
4.53229e-05
-0.0189183
0.000142568
-0.0190041
0.00023393
-0.0190999
0.000320294
-0.019281
0.000395331
-0.019466
0.000440499
-0.0196374
0.000420893
-0.0194985
0.000291346
-0.01946
-0.015505
-0.000153939
-0.0175365
0.0175024
-0.0001217
-0.0176433
0.0176111
-8.89705e-05
-0.0177271
0.0176943
-5.74591e-05
-0.0178969
0.0178654
-2.47121e-05
-0.018122
0.0180893
7.228e-06
-0.0184701
0.0184381
3.70805e-05
-0.0189019
0.018872
6.5381e-05
-0.0197861
0.0197578
9.7175e-05
-0.0204437
0.0204119
-0.0189579
0.019055
-0.000154772
-0.0175699
-0.000123517
-0.0176746
-9.19394e-05
-0.0177586
-6.20638e-05
-0.0179268
-3.15216e-05
-0.0181525
-3.14729e-06
-0.0184985
2.17364e-05
-0.0189268
3.71307e-05
-0.0198015
5.05925e-05
-0.0204571
-0.0189073
-0.000155577
-0.0176025
-0.000125314
-0.0177048
-9.48886e-05
-0.0177891
-6.6643e-05
-0.017955
-3.83116e-05
-0.0181809
-1.40287e-05
-0.0185227
6.29235e-06
-0.0189471
1.04064e-05
-0.0198056
5.52908e-06
-0.0204523
-0.0189017
-0.000156354
-0.0176345
-0.000127095
-0.0177341
-9.7829e-05
-0.0178183
-7.12129e-05
-0.0179816
-4.51012e-05
-0.018207
-2.46724e-05
-0.0185432
-8.6343e-06
-0.0189631
-1.78851e-05
-0.0197964
-3.14542e-05
-0.0204387
-0.0189332
-0.000157101
-0.0176656
-0.000128857
-0.0177624
-0.000100753
-0.0178464
-7.57598e-05
-0.0180066
-5.18704e-05
-0.0182309
-3.51421e-05
-0.0185599
-2.3343e-05
-0.0189749
-4.62742e-05
-0.0197734
-6.77304e-05
-0.0204172
-0.0190009
-0.000157815
-0.0176961
-0.000130595
-0.0177896
-0.000103655
-0.0178734
-8.02744e-05
-0.01803
-5.8605e-05
-0.0182525
-4.54285e-05
-0.0185731
-3.81383e-05
-0.0189822
-7.36322e-05
-0.0197379
-0.000103476
-0.0203874
-0.0191044
-0.000158495
-0.0177257
-0.000132307
-0.0178158
-0.000106528
-0.0178992
-8.47475e-05
-0.0180518
-6.52885e-05
-0.018272
-5.5513e-05
-0.0185829
-5.30309e-05
-0.0189847
-0.000100384
-0.0196906
-0.000138345
-0.0203494
-0.0192427
-0.000159138
-0.0177546
-0.000133987
-0.0178409
-0.000109363
-0.0179238
-8.91591e-05
-0.018072
-7.18846e-05
-0.0182893
-6.53381e-05
-0.0185894
-6.76362e-05
-0.0189824
-0.000126833
-0.0196314
-0.000171856
-0.0203044
-0.0194146
-0.00015974
-0.0177827
-0.000135627
-0.017865
-0.000112141
-0.0179473
-9.34703e-05
-0.0180907
-7.83205e-05
-0.0183044
-7.47654e-05
-0.018593
-8.16626e-05
-0.0189755
-0.000153304
-0.0195597
-0.0002046
-0.0202531
-0.0196192
-0.000160276
-0.000137242
-0.000114828
-9.765e-05
-8.45229e-05
-8.36473e-05
-9.49354e-05
-0.000179578
-0.000241368
-0.000234564
-0.0179698
0.018019
-0.00028421
-0.0180939
0.0181436
-0.000333055
-0.0181787
0.0182276
-0.000380953
-0.0183643
0.0184122
-0.000425732
-0.0185888
0.0186336
-0.000464904
-0.018953
0.0189922
-0.000498903
-0.0194226
0.0194566
-0.000478675
-0.0201083
0.020088
-0.000383185
-0.02002
0.0199245
-0.0139147
0.0135315
-0.000235486
-0.0179201
-0.000285912
-0.0180435
-0.000335746
-0.0181289
-0.000385154
-0.0183149
-0.000432116
-0.0185418
-0.000474858
-0.0189103
-0.000514406
-0.019383
-0.000504488
-0.0201182
-0.000416167
-0.0201083
-0.0143308
-0.000236395
-0.0178699
-0.000287614
-0.0179923
-0.000338448
-0.018078
-0.000389392
-0.018264
-0.000438571
-0.0184926
-0.000485026
-0.0188638
-0.00053043
-0.0193376
-0.000531842
-0.0201168
-0.000451813
-0.0201884
-0.0147827
-0.000237291
-0.0178191
-0.000289311
-0.0179403
-0.000341148
-0.0180262
-0.000393623
-0.0182115
-0.000444989
-0.0184413
-0.000495131
-0.0188137
-0.00054619
-0.0192866
-0.000558945
-0.020104
-0.000488313
-0.020259
-0.015271
-0.000238171
-0.0177678
-0.000290998
-0.0178874
-0.000343837
-0.0179734
-0.000397835
-0.0181575
-0.000451357
-0.0183878
-0.000505161
-0.0187599
-0.000561725
-0.01923
-0.000586155
-0.0200796
-0.000525955
-0.0203192
-0.0157969
-0.000239032
-0.0177159
-0.00029267
-0.0178338
-0.000346508
-0.0179195
-0.000402012
-0.018102
-0.00045765
-0.0183321
-0.00051507
-0.0187025
-0.00057694
-0.0191681
-0.000613473
-0.020043
-0.000564907
-0.0203678
-0.0163618
-0.000239871
-0.0176634
-0.000294323
-0.0177794
-0.000349153
-0.0178647
-0.000406141
-0.018045
-0.000463844
-0.0182744
-0.000524809
-0.0186415
-0.000591737
-0.0191012
-0.00064099
-0.0199938
-0.000605501
-0.0204033
-0.0169673
-0.000240683
-0.0176103
-0.000295952
-0.0177241
-0.000351764
-0.0178089
-0.00041021
-0.0179866
-0.000469929
-0.0182147
-0.000534351
-0.0185771
-0.000606079
-0.0190295
-0.00066907
-0.0199308
-0.000648517
-0.0204238
-0.0176159
-0.000241467
-0.0175567
-0.000297554
-0.017668
-0.000354343
-0.0177521
-0.000414229
-0.0179267
-0.000475946
-0.018153
-0.000543747
-0.0185093
-0.000620131
-0.0189531
-0.000698376
-0.0198526
-0.00069498
-0.0204272
-0.0183108
-0.000242222
-0.000299131
-0.000356897
-0.000418214
-0.000481942
-0.000553058
-0.000634123
-0.000728873
-0.000744198
-0.000281926
-0.0191857
0.0193137
-0.000409027
-0.0193117
0.0194388
-0.000534978
-0.0193953
0.0195212
-0.000657383
-0.0195733
0.0196957
-0.000772656
-0.0197747
0.01989
-0.000871342
-0.020076
0.0201747
-0.000924671
-0.0203769
0.0204302
-0.000857108
-0.0201778
0.0201102
-0.000529216
-0.0177283
0.0174004
-0.00642977
0.00590056
-0.000282518
-0.0190573
-0.000410153
-0.0191841
-0.000536893
-0.0192685