/*--------------------------------*- C++ -*----------------------------------*\
  =========                 |
  \\      /  F ield         | OpenFOAM: The Open Source CFD Toolbox
   \\    /   O peration     | Website:  https://openfoam.org
    \\  /    A nd           | Version:  10
     \\/     M anipulation  |
\*---------------------------------------------------------------------------*/
FoamFile
{
    format      ascii;
    class       volVectorField;
    location    "20";
    object      U;
}
// * * * * * * * * * * * * * * * * * * * * * * * * * * * * * * * * * * * * * //

dimensions      [0 1 -1 0 0 0 0];

internalField   nonuniform List<vector> 
2000
(
(0.740241 -0.00899803 1.8526e-20)
(0.631244 -0.00948352 -8.16909e-20)
(0.626634 -0.0119093 1.46982e-18)
(0.486901 -0.0121371 6.26228e-19)
(0.482789 -0.0154424 5.61776e-18)
(0.29948 -0.0143929 -3.97736e-20)
(0.315097 -0.0198554 -2.29429e-17)
(0.0556471 -0.00941247 -8.06025e-18)
(0.203513 0.00169802 -3.72842e-18)
(0.0084458 -0.0151018 -3.15042e-17)
(0.736869 -0.0080892 -1.03355e-19)
(0.626349 -0.0085279 -6.83864e-20)
(0.621547 -0.0107098 1.72113e-18)
(0.479856 -0.0109188 6.07067e-19)
(0.475311 -0.0138904 8.14572e-18)
(0.289524 -0.0129607 -9.95317e-20)
(0.304365 -0.0178488 -2.27185e-17)
(0.0425268 -0.00847479 -6.70036e-18)
(0.191034 0.00196791 9.34723e-19)
(0.0146344 -0.0133927 -3.9598e-17)
(0.733829 -0.00716784 -1.35101e-19)
(0.621933 -0.00755937 -8.03723e-20)
(0.616958 -0.00949229 2.21545e-18)
(0.473498 -0.00968475 6.67259e-19)
(0.468565 -0.0123147 9.25026e-18)
(0.280546 -0.0115093 -2.63303e-20)
(0.29469 -0.0158194 -1.89766e-17)
(0.030767 -0.00752673 -6.39059e-18)
(0.179969 0.00210062 -6.83711e-18)
(0.020294 -0.0116988 -4.30765e-17)
(0.731136 -0.00623543 -1.8851e-19)
(0.618018 -0.0065781 -1.30528e-19)
(0.61289 -0.00825934 2.29694e-18)
(0.467858 -0.00843194 5.39137e-19)
(0.462585 -0.010718 9.20869e-18)
(0.272591 -0.0100295 2.01203e-19)
(0.286117 -0.0137649 -1.11964e-17)
(0.020401 -0.00655841 -7.30251e-18)
(0.17031 0.0021004 -2.20293e-18)
(0.0253672 -0.0100607 -3.11308e-17)
(0.728801 -0.00529328 -1.73566e-19)
(0.614623 -0.00558577 -6.75037e-20)
(0.609364 -0.0070128 1.93584e-18)
(0.462967 -0.00716349 4.45642e-19)
(0.457401 -0.00910283 7.9538e-18)
(0.265696 -0.00852808 6.58612e-19)
(0.278687 -0.0116897 -1.13331e-17)
(0.0114586 -0.00557867 -9.42586e-18)
(0.162048 0.00197931 1.54785e-17)
(0.0298047 -0.00845897 -2.34252e-17)
(0.726838 -0.00434271 -1.82038e-19)
(0.611767 -0.00458405 -3.17349e-20)
(0.606397 -0.00575448 1.10469e-18)
(0.45885 -0.00588211 3.73816e-19)
(0.45304 -0.00747193 5.18237e-18)
(0.259896 -0.00700946 1.24277e-18)
(0.272437 -0.00959718 -1.34185e-17)
(0.00396535 -0.00458998 -1.31138e-17)
(0.155175 0.0017558 3.51428e-17)
(0.0335643 -0.0068819 -1.94739e-17)
(0.725255 -0.00338511 -2.24128e-19)
(0.609462 -0.00357455 -5.46585e-21)
(0.604004 -0.00448637 4.63989e-19)
(0.455528 -0.0045899 3.29914e-19)
(0.449523 -0.00582795 3.23936e-18)
(0.25522 -0.00547589 2.14123e-18)
(0.267399 -0.00748977 -1.11409e-17)
(-0.00205684 -0.00359284 -1.27128e-17)
(0.149683 0.00144785 4.69423e-17)
(0.0366115 -0.00532511 -8.26987e-18)
(0.72406 -0.0024219 -1.9867e-19)
(0.607723 -0.00255906 9.54513e-21)
(0.602198 -0.0032106 -1.05104e-19)
(0.45302 -0.00328946 3.42636e-19)
(0.446868 -0.00417415 1.62134e-18)
(0.251691 -0.00393023 1.63225e-18)
(0.263596 -0.00537085 -1.0338e-17)
(-0.00659014 -0.00258658 -8.28885e-18)
(0.145567 0.00107465 5.25797e-17)
(0.0389192 -0.00378487 2.02509e-18)
(0.72326 -0.00145456 -2.08286e-19)
(0.606558 -0.00153934 2.60814e-20)
(0.600989 -0.0019292 2.72322e-20)
(0.45134 -0.00198389 3.9176e-19)
(0.44509 -0.00251363 2.94452e-19)
(0.249328 -0.00237813 1.51297e-18)
(0.26105 -0.00324591 -4.53825e-18)
(-0.00962065 -0.00157198 -5.24205e-18)
(0.142823 0.000657964 5.26733e-17)
(0.0404674 -0.00225437 1.30389e-17)
(0.722858 -0.000484887 -1.52809e-19)
(0.605974 -0.00051531 1.93878e-19)
(0.600382 -0.000643532 -5.50004e-19)
(0.450497 -0.000669764 5.28828e-19)
(0.444199 -0.000842856 -8.32984e-19)
(0.248143 -0.000815772 3.31587e-18)
(0.259774 -0.00110371 -5.89216e-18)
(-0.0111385 -0.00056541 -2.93714e-18)
(0.14145 0.000195444 4.65075e-17)
(0.0412438 -0.000722071 1.57999e-17)
(0.77992 -0.0160989 -1.75857e-19)
(0.688777 -0.0169085 8.62725e-20)
(0.686784 -0.0212321 1.18948e-19)
(0.57069 -0.0215278 -9.75125e-20)
(0.573076 -0.0274085 -2.71357e-18)
(0.421876 -0.0252974 4.74527e-18)
(0.449518 -0.0351631 1.33304e-17)
(0.230247 -0.015561 3.83184e-18)
(0.387189 -0.00998196 1.96098e-17)
(-0.0639157 -0.0322524 -1.81234e-18)
(0.775322 -0.015458 -1.39602e-19)
(0.682136 -0.0162391 7.14754e-20)
(0.679851 -0.0203974 1.0941e-19)
(0.561062 -0.0206845 -6.36349e-20)
(0.562686 -0.0263438 -1.2242e-18)
(0.407758 -0.0243252 4.25105e-18)
(0.433979 -0.033796 9.8537e-18)
(0.209441 -0.0150761 4.87487e-18)
(0.364156 -0.00798947 1.05904e-17)
(-0.05685 -0.0301733 -1.73831e-18)
(0.770835 -0.0148015 -1.18539e-19)
(0.675649 -0.0155567 5.92761e-20)
(0.673075 -0.0195411 1.296e-19)
(0.551644 -0.0198282 -2.17565e-20)
(0.552525 -0.0252543 -3.82879e-21)
(0.393957 -0.023347 2.46318e-18)
(0.418798 -0.0324142 7.42874e-18)
(0.189257 -0.0145968 7.53476e-19)
(0.342059 -0.00628922 3.42926e-18)
(-0.0495319 -0.0281242 -1.38181e-18)
(0.766473 -0.0141305 -1.94757e-20)
(0.669335 -0.0148596 5.29895e-20)
(0.666476 -0.0186653 2.08773e-19)
(0.542465 -0.0189577 1.12866e-20)
(0.542624 -0.0241428 1.37592e-18)
(0.380515 -0.0223622 2.56766e-18)
(0.404021 -0.0310158 5.72246e-18)
(0.16975 -0.0141076 -3.8237e-18)
(0.320947 -0.00467193 -4.67972e-18)
(-0.0420504 -0.0262859 -1.42814e-18)
(0.762248 -0.0134455 7.84549e-20)
(0.663214 -0.0141464 -6.38255e-20)
(0.660077 -0.0177693 2.76961e-19)
(0.533554 -0.0180645 2.90094e-19)
(0.533014 -0.0230018 2.94946e-18)
(0.367475 -0.0213435 2.82937e-18)
(0.38969 -0.0295726 4.91879e-18)
(0.150968 -0.0135713 -3.14379e-18)
(0.300864 -0.00323884 -1.30853e-17)
(-0.0344883 -0.0245364 -1.90636e-18)
(0.758175 -0.0127468 9.61152e-20)
(0.657307 -0.0134176 -7.23054e-20)
(0.653898 -0.0168533 3.77752e-19)
(0.524943 -0.0171476 3.65751e-19)
(0.523728 -0.0218306 2.523e-18)
(0.354877 -0.0202892 1.95423e-18)
(0.375849 -0.0280837 4.27826e-18)
(0.132957 -0.0129936 -2.52723e-18)
(0.281847 -0.00199619 -2.22496e-17)
(-0.0269236 -0.0228419 8.48982e-18)
(0.754266 -0.0120349 1.28267e-19)
(0.651632 -0.0126738 -8.93313e-20)
(0.64796 -0.0159181 5.43516e-19)
(0.516659 -0.0162086 4.72097e-19)
(0.514797 -0.0206309 2.46543e-18)
(0.342764 -0.0192027 1.2939e-18)
(0.362541 -0.0265538 4.73908e-18)
(0.115761 -0.0123794 -2.29126e-18)
(0.263926 -0.000916626 -2.12063e-17)
(-0.0194298 -0.0212066 9.43125e-18)
(0.750533 -0.0113102 8.7674e-20)
(0.646209 -0.0119158 -1.1659e-19)
(0.642283 -0.0149644 7.89021e-19)
(0.508733 -0.0152499 6.3439e-19)
(0.506253 -0.0194056 2.6885e-18)
(0.331175 -0.0180883 8.09986e-19)
(0.349807 -0.0249903 -6.56961e-19)
(0.0994214 -0.011732 -7.98267e-18)
(0.247123 -1.43387e-05 -2.26775e-17)
(-0.0120761 -0.0196315 9.08039e-19)
(0.74699 -0.0105732 5.7951e-20)
(0.641057 -0.0111443 -1.66239e-19)
(0.636888 -0.0139931 1.10313e-18)
(0.501193 -0.0142738 6.29765e-19)
(0.498124 -0.0181566 3.22521e-18)
(0.320152 -0.0169542 4.04171e-19)
(0.337691 -0.023403 -6.56699e-18)
(0.0839766 -0.0110714 -8.84027e-18)
(0.231456 0.000680721 -1.51376e-17)
(-0.00492648 -0.0181102 -8.32767e-18)
(0.743649 -0.0098246 3.63034e-20)
(0.636194 -0.0103581 -1.16968e-19)
(0.631794 -0.0130024 1.52384e-18)
(0.494067 -0.0132704 7.04786e-19)
(0.49044 -0.0168711 4.15634e-18)
(0.309733 -0.015774 1.61251e-19)
(0.326231 -0.0217512 -1.35113e-17)
(0.0694628 -0.0103796 -1.07518e-17)
(0.216938 0.00120344 -8.70814e-18)
(0.0019599 -0.0165994 -1.86779e-17)
(1.17166 0.0964046 -1.84145e-18)
(1.17973 0.101328 -8.13605e-19)
(1.1851 0.0998955 1.09279e-17)
(1.19696 0.103533 1.41713e-19)
(1.21101 0.0983894 -1.28495e-17)
(1.2338 0.0970942 -2.76685e-17)
(1.2629 0.0784093 -1.05459e-17)
(1.30013 0.0677488 1.59377e-17)
(1.2795 -0.0141673 -7.30754e-18)
(0.84274 0.0020288 -4.71755e-17)
(1.17189 0.0962214 -1.47807e-18)
(1.17996 0.100708 4.23e-18)
(1.18532 0.0990107 9.78676e-18)
(1.19713 0.102034 -3.38222e-19)
(1.21106 0.0960649 -1.29587e-17)
(1.23355 0.0933351 -3.18146e-17)
(1.26223 0.072557 -9.18766e-18)
(1.29448 0.0566204 1.47672e-17)
(1.25974 -0.0283608 -9.14039e-18)
(0.769556 -0.00980994 -4.4131e-17)
(1.17211 0.0960312 -1.60035e-18)
(1.18017 0.100088 4.54962e-18)
(1.18553 0.0981219 9.06036e-18)
(1.19732 0.100525 -5.51593e-19)
(1.21118 0.0937189 -1.34218e-17)
(1.23341 0.0895033 -2.95514e-17)
(1.26168 0.0665515 -7.5683e-18)
(1.28886 0.0452359 1.33996e-17)
(1.23977 -0.0415435 -1.05315e-17)
(0.701835 -0.0202233 -3.44377e-17)
(1.17231 0.0958349 -1.12134e-18)
(1.18035 0.0994689 8.45623e-18)
(1.18569 0.0972309 3.97316e-18)
(1.19741 0.099008 5.02137e-18)
(1.21115 0.0913544 -7.9984e-18)
(1.23303 0.0856072 -2.74889e-17)
(1.26053 0.0604 -6.38912e-18)
(1.28218 0.0336532 1.32285e-17)
(1.21808 -0.0541897 -9.73561e-18)
(0.643063 -0.0298982 -1.01964e-17)
(1.17248 0.0956335 -1.40754e-18)
(1.18048 0.0988523 8.05012e-18)
(1.1858 0.0963406 4.15461e-18)
(1.19741 0.0974895 4.49367e-18)
(1.21096 0.0889802 -7.4771e-18)
(1.23236 0.0816649 -2.60296e-17)
(1.25872 0.0541248 -4.8703e-18)
(1.2744 0.0219418 4.28338e-18)
(1.19464 -0.0665832 -9.33169e-18)
(0.588881 -0.0392932 -4.61333e-18)
(1.17263 0.0954281 -1.69193e-18)
(1.18058 0.0982398 7.57981e-18)
(1.18585 0.0954536 4.46916e-18)
(1.19733 0.0959738 8.78612e-18)
(1.21063 0.0866028 -1.31346e-17)
(1.23144 0.0776892 -2.45273e-17)
(1.25634 0.0477379 -3.9901e-18)
(1.26575 0.0101413 3.95754e-18)
(1.17004 -0.0788671 -1.00689e-17)
(0.538067 -0.0486498 1.09328e-17)
(1.17276 0.0952197 -1.23576e-18)
(1.18064 0.0976325 7.30902e-18)
(1.18586 0.0945717 4.12397e-18)
(1.19717 0.0944644 7.96457e-18)
(1.21017 0.0842272 -1.31624e-17)
(1.2303 0.0736899 -2.31338e-17)
(1.25343 0.0412467 -3.30878e-18)
(1.25632 -0.00173075 3.1993e-18)
(1.1446 -0.0911714 -9.53057e-18)
(0.491097 -0.0580861 -1.05828e-17)
(1.17286 0.095009 -5.04331e-18)
(1.18067 0.0970316 7.31711e-18)
(1.18582 0.093697 8.72808e-18)
(1.19693 0.092965 1.18969e-17)
(1.20958 0.0818585 -1.79484e-17)
(1.22891 0.0696764 -1.51478e-17)
(1.24996 0.0346583 -3.4511e-18)
(1.24605 -0.0136663 -4.73008e-18)
(1.11839 -0.103626 -8.36546e-18)
(0.44815 -0.0674482 -8.54745e-18)
(1.17295 0.0947978 -4.60695e-18)
(1.18067 0.096439 6.80656e-18)
(1.18574 0.0928319 1.31078e-17)
(1.19661 0.0914793 1.08203e-17)
(1.20886 0.079503 -1.75778e-17)
(1.22729 0.065664 -1.41787e-17)
(1.246 0.0280044 -2.48961e-18)
(1.23528 -0.0256209 3.66937e-18)
(1.09199 -0.11638 -7.84644e-18)
(0.407527 -0.0759426 -7.5251e-18)
(1.17302 0.0946179 -4.48114e-18)
(1.18063 0.0958873 1.06148e-17)
(1.18563 0.0920084 7.8317e-18)
(1.19626 0.090029 1.46136e-17)
(1.20808 0.0771489 -1.67074e-17)
(1.22552 0.0615353 -7.30573e-18)
(1.24138 0.0209113 -2.41823e-18)
(1.22237 -0.0382714 3.83037e-18)
(1.061 -0.128935 -2.06446e-17)
(0.368054 -0.0814129 -6.75291e-18)
(1.16716 0.0979848 -5.59784e-18)
(1.17448 0.108605 5.837e-18)
(1.18003 0.110504 4.928e-18)
(1.19151 0.120916 -3.32833e-18)
(1.20642 0.12516 -1.79637e-17)
(1.22981 0.13663 -7.317e-18)
(1.2588 0.142182 -6.32846e-18)
(1.31812 0.164975 -1.6162e-17)
(1.35761 0.157709 8.32796e-18)
(1.24898 0.175358 -1.95103e-17)
(1.16779 0.0979004 -5.29426e-18)
(1.17524 0.107902 5.23188e-18)
(1.1808 0.109469 9.62105e-18)
(1.19241 0.119216 -3.94561e-18)
(1.20731 0.122544 -2.30063e-17)
(1.23093 0.132899 2.81321e-19)
(1.26006 0.135944 1.5627e-18)
(1.3194 0.156615 -1.694e-17)
(1.35171 0.136071 6.09205e-18)
(1.19645 0.152691 -4.0042e-17)
(1.16838 0.097796 -4.73643e-18)
(1.17597 0.107187 5.22334e-18)
(1.18156 0.108419 1.41419e-17)
(1.19334 0.117495 -4.45126e-18)
(1.20832 0.11989 -2.17032e-17)
(1.23227 0.129093 3.93836e-19)
(1.26186 0.129595 9.83684e-19)
(1.32093 0.14786 -5.54324e-18)
(1.34791 0.116375 6.40061e-18)
(1.14195 0.132015 -3.71792e-17)
(1.16893 0.0976722 -4.64978e-18)
(1.17664 0.106462 5.25708e-18)
(1.18226 0.107354 1.25411e-17)
(1.19418 0.115752 -4.49291e-18)
(1.20922 0.117199 -1.96263e-17)
(1.23341 0.125206 6.12011e-19)
(1.26345 0.123153 5.74627e-19)
(1.32158 0.138705 -5.26877e-18)
(1.34361 0.098109 -6.78584e-18)
(1.09585 0.112941 -5.60203e-17)
(1.16944 0.0975304 -4.01382e-18)
(1.17726 0.105728 -2.14491e-19)
(1.18288 0.106279 1.1543e-17)
(1.1949 0.113992 -4.78953e-18)
(1.20993 0.114483 -1.8362e-17)
(1.23425 0.121254 8.22206e-19)
(1.26459 0.116661 4.90306e-19)
(1.3211 0.129231 -6.41398e-18)
(1.33788 0.080743 -7.18204e-18)
(1.05557 0.0949382 -5.36583e-17)
(1.16991 0.097372 -3.45431e-18)
(1.17781 0.104989 4.80597e-18)
(1.18342 0.105197 1.04285e-17)
(1.19551 0.112223 -5.03033e-18)
(1.21049 0.111753 -1.7022e-17)
(1.2348 0.117254 7.47553e-19)
(1.26531 0.110155 2.94787e-19)
(1.31972 0.119508 2.70797e-18)
(1.33101 0.0640357 -7.53704e-18)
(1.01796 0.0777719 -4.88423e-17)
(1.17034 0.0971982 -3.75904e-18)
(1.17831 0.104245 9.80637e-18)
(1.1839 0.104111 9.61765e-18)
(1.19601 0.11045 7.43086e-19)
(1.2109 0.109019 -1.57423e-17)
(1.23512 0.113218 8.25791e-19)
(1.26568 0.103656 6.30543e-19)
(1.31757 0.109581 1.62021e-18)
(1.32339 0.0478553 -6.99065e-18)
(0.982445 0.0613318 -4.25893e-17)
(1.17072 0.0970103 -2.82799e-18)
(1.17875 0.103499 9.14169e-18)
(1.18431 0.103023 1.4313e-17)
(1.19642 0.108676 -5.26441e-18)
(1.21118 0.106288 -1.46039e-17)
(1.2352 0.109159 -4.70314e-18)
(1.26569 0.097189 1.23896e-18)
(1.31474 0.0994864 1.0657e-17)
(1.31534 0.0320759 -1.7731e-17)
(0.949252 0.0454985 -4.13801e-17)
(1.17108 0.0968096 -7.77914e-18)
(1.17914 0.102752 3.99799e-18)
(1.18465 0.101938 7.38271e-18)
(1.19672 0.106906 -5.0072e-18)
(1.21131 0.103567 -1.39525e-17)
(1.23505 0.105082 -1.73475e-17)
(1.26533 0.0907544 -5.2404e-18)
(1.31105 0.0891723 9.20099e-18)
(1.30598 0.0164941 -1.90955e-17)
(0.918829 0.0301767 -5.58815e-17)
(1.17139 0.0965964 -2.75734e-18)
(1.17946 0.102006 -1.26509e-18)
(1.1849 0.100857 1.19106e-17)
(1.19687 0.105153 8.13369e-19)
(1.2112 0.100887 -1.2776e-17)
(1.23448 0.101075 -2.25914e-17)
(1.26436 0.0845371 -1.29048e-17)
(1.30694 0.0792312 1.79722e-17)
(1.30018 0.00161707 -6.03e-18)
(0.897719 0.0155532 -5.11949e-17)
(1.15851 0.0979575 -1.15825e-17)
(1.16377 0.115389 -5.26408e-18)
(1.16915 0.121124 2.04494e-17)
(1.17842 0.138475 -1.61855e-17)
(1.19238 0.152057 -3.50885e-17)
(1.21103 0.17484 -3.87766e-17)
(1.23601 0.203973 3.21743e-18)
(1.27259 0.243231 -1.08047e-17)
(1.32165 0.351751 -6.65954e-18)
(1.29971 0.378966 -4.64384e-17)
(1.15958 0.0980607 -1.059e-17)
(1.1651 0.114782 6.12959e-20)
(1.17051 0.120136 2.46546e-17)
(1.18008 0.136821 -1.03774e-17)
(1.19424 0.149553 -3.24142e-17)
(1.21359 0.17126 -3.03819e-17)
(1.23918 0.198693 2.30549e-18)
(1.27988 0.23634 -8.79451e-18)
(1.32682 0.33293 -6.8208e-18)
(1.28435 0.359089 -4.14751e-17)
(1.16061 0.0981392 -1.0431e-17)
(1.1664 0.114154 7.08712e-20)
(1.17187 0.119124 1.7693e-17)
(1.18177 0.13513 -9.15469e-18)
(1.1962 0.146985 -3.03709e-17)
(1.21636 0.167593 -2.143e-17)
(1.24272 0.193113 2.18717e-18)
(1.28757 0.229218 -1.61395e-17)
(1.33313 0.314924 -6.4988e-18)
(1.26723 0.339938 -5.65996e-17)
(1.16158 0.0981931 -9.13383e-18)
(1.16763 0.113506 4.82318e-18)
(1.17315 0.118088 1.67037e-17)
(1.18338 0.133404 -1.44933e-17)
(1.19805 0.144355 -2.91408e-17)
(1.21897 0.163842 -2.64487e-17)
(1.24601 0.18725 8.8188e-19)
(1.29458 0.221829 -2.47633e-17)
(1.33943 0.297184 -1.80607e-17)
(1.25833 0.321034 -5.46624e-17)
(1.16252 0.0982235 -8.95717e-18)
(1.1688 0.11284 4.13031e-18)
(1.17436 0.117032 1.49323e-17)
(1.18486 0.13165 -1.32235e-17)
(1.19971 0.141671 -2.15575e-17)
(1.2213 0.160023 -2.4682e-17)
(1.24888 0.181147 8.37293e-19)
(1.30062 0.214179 -2.46873e-17)
(1.34519 0.279227 -1.58633e-17)
(1.25452 0.301938 -4.89932e-17)
(1.1634 0.0982311 -8.30473e-18)
(1.1699 0.112159 8.88058e-18)
(1.17549 0.115958 1.37692e-17)
(1.18624 0.129872 -1.76462e-17)
(1.20121 0.138944 -2.01571e-17)
(1.22337 0.156152 -2.30031e-17)
(1.25139 0.174845 7.21988e-19)
(1.30578 0.206295 -1.33911e-17)
(1.35035 0.260851 -2.60964e-17)
(1.25287 0.282475 -6.19101e-17)
(1.16424 0.0982169 -2.86884e-18)
(1.17094 0.111463 8.41703e-18)
(1.17655 0.114869 1.32055e-17)
(1.18752 0.128076 -1.6581e-17)
(1.20258 0.136183 -1.86816e-17)
(1.22521 0.152242 -1.52766e-17)
(1.25362 0.168382 1.64589e-18)
(1.31013 0.198207 -1.23265e-17)
(1.35496 0.241943 -2.65029e-17)
(1.25295 0.26256 -7.71384e-17)
(1.16504 0.0981816 -1.83232e-18)
(1.17192 0.110754 1.30369e-17)
(1.17754 0.113768 6.22529e-18)
(1.18869 0.126265 -1.56975e-17)
(1.20381 0.133395 -2.32173e-17)
(1.22682 0.148301 -7.53388e-18)
(1.25558 0.161795 -6.16697e-18)
(1.3136 0.189949 -2.0201e-17)
(1.35915 0.222364 -1.35035e-17)
(1.2554 0.24208 -7.17335e-17)
(1.16579 0.0981263 -6.43652e-18)
(1.17284 0.110035 7.29522e-18)
(1.17846 0.112657 5.81508e-18)
(1.18977 0.124445 -9.70426e-18)
(1.2049 0.130592 -2.13965e-17)
(1.22817 0.144339 -6.9108e-18)
(1.25726 0.155135 -5.78507e-18)
(1.31626 0.181563 -2.01285e-17)
(1.36222 0.201941 -1.371e-17)
(1.25976 0.220903 -4.75793e-17)
(1.16649 0.09805 -6.08155e-18)
(1.17369 0.109303 6.26068e-18)
(1.17928 0.111532 5.89812e-18)
(1.19069 0.122609 -3.30924e-18)
(1.20575 0.12776 -2.00587e-17)
(1.22912 0.140331 -6.90622e-18)
(1.25833 0.148345 -5.98218e-18)
(1.31775 0.173059 -1.7814e-17)
(1.36531 0.18036 -3.03256e-18)
(1.26987 0.198676 -2.1468e-17)
(1.14691 0.0965347 -2.00761e-17)
(1.14907 0.120573 -1.33816e-17)
(1.15431 0.130454 3.89343e-17)
(1.16058 0.154198 -1.0967e-17)
(1.1722 0.175923 -4.4171e-17)
(1.18442 0.208889 -5.56678e-17)
(1.19656 0.248243 2.59326e-17)
(1.19217 0.312677 -3.91461e-18)
(1.1877 0.430268 4.22765e-18)
(0.954986 0.479544 4.98772e-18)
(1.14908 0.0967457 -2.2945e-17)
(1.1517 0.12011 -1.61678e-17)
(1.15722 0.129557 3.67734e-17)
(1.164 0.152686 -1.42138e-17)
(1.17615 0.173639 -4.1748e-17)
(1.18922 0.205859 -5.82623e-17)
(1.20305 0.244851 1.78544e-17)
(1.20129 0.308221 -9.86206e-18)
(1.20487 0.431222 3.51964e-18)
(0.976739 0.475923 4.52268e-18)
(1.15033 0.0969397 -2.19953e-17)
(1.15328 0.119631 -1.54558e-17)
(1.15877 0.128651 3.45836e-17)
(1.16579 0.151164 -1.74387e-17)
(1.17808 0.171337 -3.93539e-17)
(1.19167 0.202734 -6.08621e-17)
(1.2072 0.241225 1.60281e-17)
(1.20965 0.302905 -8.89446e-18)
(1.22245 0.430452 1.16685e-17)
(1.00743 0.4713 4.92018e-18)
(1.15132 0.0971184 -2.51139e-17)
(1.15458 0.119144 -1.42061e-17)
(1.16001 0.12774 2.81786e-17)
(1.16732 0.149632 -2.03727e-17)
(1.17982 0.169014 -3.73704e-17)
(1.19409 0.199501 -5.74338e-17)
(1.21146 0.237312 1.38441e-17)
(1.21867 0.296818 -8.0738e-18)
(1.23868 0.427888 2.9963e-18)
(1.03875 0.465482 4.33681e-18)
(1.15235 0.0972805 -2.35409e-17)
(1.15594 0.118645 -1.3686e-17)
(1.16136 0.126819 2.60695e-17)
(1.16901 0.148077 -1.88976e-17)
(1.18183 0.166653 -3.0171e-17)
(1.19689 0.196152 -6.04992e-17)
(1.21601 0.23312 1.83232e-17)
(1.2278 0.2901 -7.39581e-18)
(1.25385 0.423577 2.5593e-18)
(1.0707 0.458416 -5.60423e-18)
(1.15344 0.0974253 -2.22961e-17)
(1.15734 0.11813 -1.25548e-17)
(1.16279 0.125883 2.42788e-17)
(1.17077 0.146497 -1.68605e-17)
(1.1839 0.164252 -2.85434e-17)
(1.1997 0.192699 -5.73135e-17)
(1.22037 0.22868 1.65327e-17)
(1.23658 0.282833 -7.03798e-18)
(1.26842 0.417411 3.67961e-18)
(1.10525 0.449967 -5.5259e-18)
(1.15451 0.097553 -2.07045e-17)
(1.15872 0.1176 -1.18252e-17)
(1.16417 0.124934 2.72669e-17)
(1.17246 0.144895 -1.58806e-17)
(1.18585 0.161819 -3.18342e-17)
(1.20233 0.189161 -5.43377e-17)
(1.22431 0.224015 1.44732e-17)
(1.24493 0.275078 -1.44125e-17)
(1.28236 0.4092 3.22486e-18)
(1.14313 0.439946 -4.90414e-18)
(1.15554 0.0976642 -2.01391e-17)
(1.16003 0.117057 -1.12201e-17)
(1.16548 0.123973 2.54499e-17)
(1.17405 0.143276 -1.47593e-17)
(1.18766 0.159359 -2.99761e-17)
(1.20477 0.185555 -5.15795e-17)
(1.22786 0.219137 1.2686e-17)
(1.25285 0.266919 -1.32581e-17)
(1.29538 0.398736 2.15841e-18)
(1.18457 0.428145 -3.90168e-18)
(1.15653 0.0977593 -1.92138e-17)
(1.16129 0.116502 -6.39646e-18)
(1.16673 0.123004 2.39027e-17)
(1.17556 0.141643 -1.29665e-17)
(1.18934 0.156877 -2.80416e-17)
(1.20703 0.181896 -4.89369e-17)
(1.23104 0.214072 1.15039e-17)
(1.26022 0.258498 -3.80644e-18)
(1.3069 0.385882 2.67406e-18)
(1.22897 0.414432 -1.22592e-18)
(1.15749 0.0978401 -1.77202e-17)
(1.1625 0.115937 -5.72864e-18)
(1.16791 0.122025 2.20508e-17)
(1.17697 0.13999 -1.66902e-17)
(1.19087 0.154349 -3.16878e-17)
(1.20908 0.178129 -4.07348e-17)
(1.23371 0.208678 3.10708e-18)
(1.26677 0.249559 -3.06176e-18)
(1.31742 0.369438 3.45178e-18)
(1.27657 0.397549 -3.0509e-17)
(1.03564 -0.000193609 1.88087e-19)
(0.964528 0.000441255 -2.82246e-19)
(1.03495 0.000562507 7.83882e-19)
(0.959045 0.00147196 -1.0939e-18)
(1.03041 0.000764883 -1.74435e-19)
(0.950328 0.00700356 -1.42876e-18)
(1.00025 0.00448631 2.83688e-18)
(0.916545 0.0354197 -5.26314e-18)
(0.839872 0.0361036 1.76406e-17)
(0.755855 0.275739 -5.93994e-18)
(1.03579 -0.000197719 7.04776e-19)
(0.964246 0.000459796 -1.99065e-19)
(1.0353 0.000633015 6.05956e-19)
(0.958521 0.00155527 -1.06043e-18)
(1.03114 0.000896823 -2.31987e-19)
(0.949277 0.00749911 -7.12829e-19)
(1.00194 0.00513382 2.4112e-18)
(0.914104 0.0381014 -4.94859e-18)
(0.846869 0.0405476 1.82935e-17)
(0.758323 0.296604 8.05341e-19)
(1.03594 -0.000199651 5.92923e-19)
(0.963962 0.000475089 -1.38189e-19)
(1.03565 0.000707649 5.03371e-19)
(0.957986 0.00163178 -1.20921e-18)
(1.0319 0.00103786 -2.14325e-19)
(0.948201 0.00797463 -7.42855e-19)
(1.00368 0.00580132 2.14986e-18)
(0.911624 0.0406688 -4.88558e-18)
(0.854254 0.0449013 2.14888e-17)
(0.761124 0.316296 1.82863e-18)
(1.03608 -0.000199724 5.76601e-19)
(0.963678 0.000487839 -8.87361e-20)
(1.03601 0.000785492 4.57365e-19)
(0.957447 0.00170395 -5.09635e-19)
(1.03267 0.0011878 -1.79499e-19)
(0.947115 0.0084441 -7.52769e-20)
(1.00547 0.00650247 4.04576e-20)
(0.909151 0.0432115 -4.96642e-18)
(0.861994 0.0493058 1.73663e-17)
(0.764251 0.336017 3.73483e-18)
(1.03622 -0.000197742 6.3977e-19)
(0.963401 0.000497495 -7.09087e-20)
(1.03637 0.000867056 4.43051e-19)
(0.956912 0.00177001 1.05034e-18)
(1.03346 0.0013475 -1.27809e-19)
(0.946033 0.00890045 5.97531e-19)
(1.00728 0.00723783 -2.69008e-19)
(0.906735 0.0456872 -4.43943e-18)
(0.870057 0.0537692 1.51596e-17)
(0.76772 0.355775 7.6287e-18)
(1.03635 -0.000193696 9.85843e-20)
(0.963133 0.000503967 -6.24279e-20)
(1.03672 0.000952342 7.6597e-20)
(0.956386 0.00182976 1.77031e-18)
(1.03424 0.00151665 -2.73962e-20)
(0.94497 0.00934259 6.51676e-19)
(1.00912 0.00800429 -6.04412e-19)
(0.904432 0.0480861 -4.0634e-18)
(0.878403 0.05827 1.49641e-17)
(0.771581 0.375422 8.02778e-18)
(1.03647 -0.000187646 -4.1467e-19)
(0.962879 0.000507288 -1.27281e-20)
(1.03706 0.00104125 -2.44861e-19)
(0.95588 0.00188315 2.70863e-18)
(1.03502 0.00169476 5.99129e-20)
(0.943942 0.00976945 7.59406e-19)
(1.01096 0.00879706 -1.16995e-18)
(0.902301 0.0503991 -3.81373e-18)
(0.886982 0.062773 1.74337e-17)
(0.775975 0.394948 9.9852e-18)
(1.03657 -0.000179559 -2.77299e-19)
(0.962644 0.000507167 2.94046e-20)
(1.0374 0.00113473 -5.46365e-19)
(0.955398 0.00192963 3.03159e-18)
(1.03579 0.00188396 1.15534e-19)
(0.942963 0.010181 9.70334e-19)
(1.01279 0.0096188 -1.99492e-18)
(0.900409 0.0526257 -3.52663e-18)
(0.89574 0.0673534 1.29099e-17)
(0.781273 0.414406 9.07067e-18)
(1.03666 -0.000169432 -2.05512e-19)
(0.962433 0.000503254 1.46477e-20)
(1.03771 0.00123381 -8.51178e-19)
(0.95495 0.00197095 2.77526e-18)
(1.03654 0.00208817 1.41787e-19)
(0.942049 0.0105973 1.21814e-18)
(1.01461 0.010496 -1.3498e-18)
(0.89883 0.0548787 -3.32295e-18)
(0.904614 0.0723686 9.02182e-18)
(0.788443 0.433817 8.73449e-18)
(1.03672 -0.000158677 -1.55252e-19)
(0.962249 0.000499377 6.58568e-21)
(1.038 0.00132871 -7.16023e-19)
(0.954543 0.00201524 2.92184e-18)
(1.03727 0.00228422 1.52021e-19)
(0.941215 0.0110281 9.59841e-19)
(1.01642 0.0113665 -9.60637e-19)
(0.897654 0.0571514 -3.20477e-18)
(0.913544 0.0769433 6.5028e-18)
(0.800066 0.452853 9.67677e-18)
(1.03452 -1.2857e-05 -6.31169e-19)
(0.966548 2.71063e-05 1.28002e-18)
(1.03254 2.02238e-05 -4.08046e-19)
(0.962646 8.51214e-05 1.58583e-18)
(1.02554 2.36089e-05 6.73795e-19)
(0.957259 0.00038267 -2.49794e-18)
(0.989442 0.00018457 7.82823e-18)
(0.93147 0.00192029 8.23816e-19)
(0.799665 0.00180985 8.74881e-18)
(0.739097 0.0132947 1.261e-17)
(1.03455 -3.67779e-05 -8.00897e-19)
(0.966505 7.64973e-05 8.40891e-19)
(1.03259 6.46019e-05 -5.34718e-19)
(0.96257 0.000239222 2.0977e-18)
(1.02564 7.14239e-05 6.74122e-19)
(0.957112 0.00107927 -3.35142e-18)
(0.989653 0.000525502 9.78611e-18)
(0.931145 0.00540289 2.37761e-19)
(0.800468 0.00505769 1.75372e-17)
(0.739486 0.0401453 6.81762e-18)
(1.0346 -6.01911e-05 -1.07416e-18)
(0.966419 0.000125498 5.695e-19)
(1.03269 0.000109769 -1.69546e-19)
(0.962419 0.000393142 1.8109e-18)
(1.02584 0.000121958 7.18018e-19)
(0.956822 0.00177753 -3.59657e-18)
(0.990081 0.000881717 1.09975e-17)
(0.930517 0.00890222 -1.61366e-19)
(0.802056 0.00841082 1.70541e-17)
(0.740242 0.0667548 1.02961e-18)
(1.03467 -8.27598e-05 -7.65759e-19)
(0.966293 0.000173276 4.46545e-19)
(1.03284 0.0001565 1.86153e-19)
(0.962195 0.00054442 1.87761e-18)
(1.02614 0.000176623 7.0237e-19)
(0.956394 0.00246938 -3.27973e-18)
(0.990728 0.00125151 1.14664e-17)
(0.929603 0.0123748 -6.08313e-19)
(0.804415 0.0117858 1.8043e-17)
(0.74135 0.0932717 -6.04956e-18)
(1.03476 -0.000104144 -6.04836e-19)
(0.966127 0.000219342 4.32796e-19)
(1.03303 0.000205388 9.07473e-20)
(0.961902 0.000692096 1.10204e-18)
(1.02653 0.000236487 7.39912e-19)
(0.955833 0.00315201 -3.15655e-18)
(0.991588 0.00163704 9.22634e-18)
(0.928419 0.0158078 -1.75243e-18)
(0.807526 0.0151728 2.25152e-17)
(0.742796 0.119744 -1.58879e-17)
(1.03488 -0.000124075 -5.16389e-19)
(0.965924 0.000263348 -5.99151e-19)
(1.03327 0.000256892 2.56862e-20)
(0.961545 0.000835594 5.67066e-19)
(1.02701 0.000302639 6.49847e-19)
(0.955149 0.00382437 -3.29805e-18)
(0.992652 0.00204114 6.10318e-18)
(0.926981 0.0191972 -2.87051e-18)
(0.811366 0.0185674 1.8591e-17)
(0.744557 0.146177 -1.93886e-17)
(1.03501 -0.000142297 -6.04858e-19)
(0.965689 0.000304943 -6.15981e-19)
(1.03355 0.000311466 5.61179e-19)
(0.961128 0.000974295 1.64031e-19)
(1.02757 0.00037614 4.33522e-19)
(0.954351 0.00448526 -2.97009e-18)
(0.993904 0.00246701 3.89869e-18)
(0.925303 0.0225379 -4.18887e-18)
(0.815905 0.02197 1.73358e-17)
(0.746604 0.172578 -1.56463e-17)
(1.03516 -0.000158544 2.84809e-20)
(0.965425 0.000343713 4.51076e-19)
(1.03387 0.00036956 1.2347e-18)
(0.960658 0.00110733 -2.1842e-19)
(1.02821 0.000457427 1.99062e-19)
(0.95345 0.00513211 -2.19106e-18)
(0.995326 0.00291576 2.04719e-18)
(0.923399 0.025818 -5.00818e-18)
(0.821105 0.0253707 1.91261e-17)
(0.748885 0.19901 -1.41758e-17)
(1.03532 -0.000172537 -1.45518e-19)
(0.965136 0.000379028 5.0395e-19)
(1.03421 0.000431557 1.57547e-18)
(0.960143 0.00123302 -6.757e-19)
(1.02891 0.000545888 4.21137e-20)
(0.952459 0.0057578 -1.72311e-18)
(0.996893 0.00337676 2.72554e-18)
(0.921281 0.0289951 -5.35134e-18)
(0.826917 0.0286328 2.28577e-17)
(0.751315 0.225666 -1.60734e-17)
(1.03548 -0.000184289 -3.18929e-19)
(0.964827 0.000411166 -4.29681e-19)
(1.03459 0.000497483 1.08236e-18)
(0.959589 0.00135298 -1.30815e-18)
(1.02967 0.000644855 -1.07344e-19)
(0.951392 0.00637076 -2.24371e-18)
(0.998577 0.00386031 3.65059e-18)
(0.918957 0.0320986 -5.15178e-18)
(0.83328 0.0317648 1.8886e-17)
(0.753747 0.252253 -1.1091e-17)
(1.03548 0.000184288 3.59529e-20)
(0.964827 -0.000411166 6.0138e-19)
(1.03459 -0.000497484 4.16525e-20)
(0.959589 -0.00135298 2.88963e-18)
(1.02967 -0.000644855 2.38097e-19)
(0.951392 -0.00637076 1.33536e-18)
(0.998577 -0.00386031 -2.89404e-18)
(0.918957 -0.0320986 6.40991e-19)
(0.83328 -0.0317648 3.04184e-18)
(0.753747 -0.252253 -3.33901e-18)
(1.03532 0.000172537 -1.91382e-19)
(0.965136 -0.000379028 1.7863e-19)
(1.03421 -0.000431557 -2.63384e-19)
(0.960143 -0.00123302 3.88984e-18)
(1.02891 -0.000545888 3.01142e-19)
(0.952459 -0.0057578 1.1177e-18)
(0.996893 -0.00337676 -3.76854e-18)
(0.921281 -0.0289951 1.03212e-18)
(0.826917 -0.0286328 3.6738e-18)
(0.751315 -0.225666 3.36749e-18)
(1.03516 0.000158544 4.2013e-19)
(0.965425 -0.000343713 9.01227e-19)
(1.03387 -0.00036956 -4.66887e-19)
(0.960658 -0.00110733 4.40443e-18)
(1.02821 -0.000457427 3.30879e-19)
(0.95345 -0.00513211 9.28763e-19)
(0.995326 -0.00291576 -2.98839e-18)
(0.923399 -0.025818 1.01684e-18)
(0.821105 -0.0253707 5.38656e-18)
(0.748885 -0.19901 -2.08613e-19)
(1.03501 0.000142297 3.48261e-19)
(0.965689 -0.000304943 5.57057e-19)
(1.03355 -0.000311467 -1.28133e-19)
(0.961128 -0.000974295 3.42771e-18)
(1.02757 -0.00037614 4.01913e-19)
(0.954351 -0.00448526 -1.79116e-20)
(0.993904 -0.00246701 -2.66407e-18)
(0.925303 -0.0225379 1.39779e-18)
(0.815905 -0.02197 -4.34453e-18)
(0.746604 -0.172578 5.9049e-18)
(1.03488 0.000124075 3.20264e-19)
(0.965924 -0.000263348 3.35442e-19)
(1.03327 -0.000256892 -2.65533e-19)
(0.961545 -0.000835594 1.97242e-18)
(1.02701 -0.000302639 3.43619e-19)
(0.955149 -0.00382437 -1.03493e-18)
(0.992652 -0.00204115 -2.62969e-18)
(0.926981 -0.0191972 1.95598e-18)
(0.811366 -0.0185674 -2.41631e-18)
(0.744557 -0.146177 1.11031e-17)
(1.03476 0.000104144 4.28412e-19)
(0.966127 -0.000219342 1.11394e-19)
(1.03303 -0.000205388 -3.74591e-19)
(0.961902 -0.000692096 8.42204e-19)
(1.02653 -0.000236487 3.48828e-19)
(0.955833 -0.003152 -1.50552e-18)
(0.991588 -0.00163704 -2.81001e-18)
(0.928419 -0.0158078 1.24379e-18)
(0.807526 -0.0151728 -1.23295e-17)
(0.742796 -0.119744 6.58501e-18)
(1.03467 8.27597e-05 6.06375e-19)
(0.966293 -0.000173275 -8.75949e-20)
(1.03284 -0.0001565 -1.35906e-20)
(0.962195 -0.00054442 -1.75647e-19)
(1.02614 -0.000176623 3.48649e-19)
(0.956394 -0.00246938 -1.47074e-18)
(0.990728 -0.00125151 -1.04433e-18)
(0.929603 -0.0123748 1.23808e-18)
(0.804415 -0.0117858 -1.21322e-17)
(0.74135 -0.0932717 5.24102e-18)
(1.0346 6.01909e-05 8.40482e-19)
(0.966419 -0.000125498 7.65124e-19)
(1.03269 -0.000109769 3.46229e-19)
(0.962419 -0.000393142 -6.80005e-20)
(1.02584 -0.000121958 4.7046e-19)
(0.956822 -0.00177753 -8.72584e-19)
(0.990081 -0.000881718 6.76575e-19)
(0.930517 -0.00890222 1.13073e-18)
(0.802056 -0.00841082 -1.33702e-17)
(0.740242 -0.0667548 5.454e-18)
(1.03455 3.67778e-05 4.83399e-19)
(0.966505 -7.64971e-05 1.75914e-18)
(1.03259 -6.46021e-05 7.67101e-19)