/*--------------------------------*- C++ -*----------------------------------*\
  =========                 |
  \\      /  F ield         | OpenFOAM: The Open Source CFD Toolbox
   \\    /   O peration     | Website:  https://openfoam.org
    \\  /    A nd           | Version:  7
     \\/     M anipulation  |
\*---------------------------------------------------------------------------*/
FoamFile
{
    version     2.0;
    format      ascii;
    class       volVectorField;
    location    "15";
    object      U;
}
// * * * * * * * * * * * * * * * * * * * * * * * * * * * * * * * * * * * * * //

dimensions      [0 1 -1 0 0 0 0];

internalField   nonuniform List<vector> 
125
(
(1.23906 0.199809 6.52761e-18)
(1.27745 0.239708 -6.27512e-18)
(1.32742 0.34941 -9.04562e-18)
(1.30885 0.379124 -4.51426e-17)
(1.24221 0.194349 5.88209e-18)
(1.28482 0.232642 -4.19509e-18)
(1.33273 0.330327 -8.13377e-18)
(1.2938 0.359068 -3.90991e-17)
(1.24575 0.188582 5.5789e-18)
(1.29261 0.225338 -1.20658e-17)
(1.33922 0.312053 -6.88963e-18)
(1.27701 0.339732 -5.36346e-17)
(1.24904 0.182524 4.36421e-18)
(1.2997 0.217759 -1.93424e-17)
(1.34572 0.294032 -1.74487e-17)
(1.2685 0.320633 -4.89786e-17)
(1.2519 0.17622 3.87852e-18)
(1.30581 0.209912 -1.89546e-17)
(1.35167 0.275775 -1.50136e-17)
(1.26515 0.301326 -4.49087e-17)
(1.25441 0.169711 3.42918e-18)
(1.31103 0.201824 -9.03769e-18)
(1.35702 0.257076 -2.38892e-17)
(1.264 0.281634 -5.67075e-17)
(1.25664 0.163037 3.75517e-18)
(1.31537 0.193525 -7.27612e-18)
(1.36185 0.23782 -2.30505e-17)
(1.26461 0.261471 -7.00911e-17)
(1.2586 0.156238 -3.46582e-18)
(1.31886 0.185048 -1.57673e-17)
(1.3662 0.21786 -1.17229e-17)
(1.26768 0.240726 -6.62832e-17)
(1.26026 0.149358 -3.12768e-18)
(1.3216 0.176448 -1.43046e-17)
(1.36932 0.19702 -1.18413e-17)
(1.27272 0.219249 -4.45216e-17)
(1.26126 0.142339 -3.04977e-18)
(1.32315 0.167732 -1.31843e-17)
(1.37241 0.174966 -2.87174e-18)
(1.28356 0.196672 -2.20872e-17)
(1.18678 0.205916 -3.79805e-17)
(1.19981 0.245445 2.74791e-17)
(1.19643 0.310696 2.58681e-18)
(1.19229 0.429503 2.59906e-18)
(0.959825 0.480613 2.29866e-18)
(1.19156 0.202784 -4.08875e-17)
(1.20629 0.24194 1.99336e-17)
(1.20558 0.306121 -2.66645e-18)
(1.20956 0.430393 1.92494e-18)
(0.981827 0.476967 1.71401e-18)
(1.19397 0.199556 -4.25302e-17)
(1.21042 0.238197 1.81594e-17)
(1.21399 0.300677 -1.51567e-18)
(1.22728 0.429539 9.35762e-18)
(1.01286 0.472307 2.1261e-18)
(1.19636 0.196217 -3.98042e-17)
(1.21467 0.23416 1.63041e-17)
(1.22309 0.294451 -1.68364e-18)
(1.24366 0.426875 6.02199e-19)
(1.04456 0.466439 1.84677e-18)
(1.19914 0.192761 -4.22977e-17)
(1.21922 0.22984 2.02034e-17)
(1.2323 0.287586 -1.76476e-18)
(1.25897 0.422446 7.87366e-19)
(1.07689 0.45931 -5.98389e-18)
(1.22356 0.225267 1.83057e-17)
(1.24115 0.280164 -8.51062e-19)
(1.27368 0.41614 2.5359e-19)
(1.11186 0.450783 -6.33535e-18)
(1.2275 0.220462 1.6588e-17)
(1.24957 0.272247 -7.09271e-18)
(1.28774 0.407768 3.12311e-20)
(1.1502 0.440669 -5.63605e-18)
(1.23103 0.215442 1.52845e-17)
(1.25755 0.263919 -7.37846e-18)
(1.30088 0.397115 8.21577e-20)
(1.19215 0.428755 -4.89424e-18)
(1.23417 0.210228 1.46644e-17)
(1.26498 0.255325 3.89029e-19)
(1.31251 0.384045 -1.85916e-19)
(1.23707 0.414912 -2.74192e-18)
(1.2368 0.204677 7.2699e-18)
(1.27158 0.246196 9.70602e-19)
(1.32312 0.36733 8.27747e-19)
(1.28523 0.397859 -3.13661e-17)
(0.840858 0.0356256 2.16332e-17)
(0.758968 0.276407 -8.04967e-18)
(0.847935 0.0400362 2.29943e-17)
(0.761462 0.297333 1.51873e-18)
(0.8554 0.044357 2.70819e-17)
(0.76429 0.317085 3.07161e-18)
(0.86322 0.0487285 2.18288e-17)
(0.767446 0.336867 5.60611e-18)
(0.871363 0.053159 1.89815e-17)
(0.770943 0.356687 1.11664e-17)
(0.879787 0.0576272 1.87423e-17)
(0.774832 0.376398 1.18442e-17)
(0.888442 0.0620976 2.19377e-17)
(0.779252 0.395988 1.49498e-17)
(0.897272 0.0666456 1.54423e-17)
(0.784573 0.415511 1.36619e-17)
(0.906211 0.0716314 1.09715e-17)
(0.791759 0.43499 1.29989e-17)
(0.915199 0.0761776 7.83137e-18)
(0.803392 0.454088 1.41782e-17)
(0.742067 0.0133224 1.66902e-17)
(0.742459 0.0402342 8.66646e-18)
(0.74322 0.0669062 1.17187e-18)
(0.744337 0.0934854 -7.48384e-18)
(0.745794 0.12002 -2.01174e-17)
(0.747569 0.146517 -2.49621e-17)
(0.749631 0.172982 -2.04475e-17)
(0.75193 0.199481 -1.86475e-17)
(0.754381 0.226205 -2.13951e-17)
(0.756836 0.25286 -1.47944e-17)
(0.958496 0.0764591 -3.28709e-18)
(0.90124 0.535265 6.5326e-18)
(0.970007 0.0721026 -8.73885e-19)
(0.963248 0.399472 2.46163e-18)
(0.988868 0.0592882 4.2009e-18)
(1.00965 0.377996 -6.13795e-18)
(0.994317 0.055514 6.82399e-18)
(1.03584 0.30249 -2.20797e-17)
(1.00743 0.0464248 2.45107e-18)
(1.05244 0.257551 3.8011e-18)
)
;

boundaryField
{
    inlet
    {
        type            uniformFixedValue;
        uniformValue    constant (1 0 0);
        value           nonuniform 0();
    }
    outlet
    {
        type            pressureInletOutletVelocity;
        value           nonuniform 0();
    }
    polygon
    {
        type            fixedValue;
        value           uniform (0 0 0);
    }
    top
    {
        type            symmetryPlane;
    }
    bottom
    {
        type            symmetryPlane;
    }
    outside
    {
        type            zeroGradient;
    }
    procBoundary9to5
    {
        type            processor;
        value           uniform (0.742067 -0.0133224 1.21656e-17);
    }
    procBoundary9to8
    {
        type            processor;
        value           nonuniform List<vector> 
15
(
(0.916899 0.035094 -1.43946e-17)
(0.834188 0.0313267 2.29834e-17)
(0.914445 0.0377454 -1.28161e-17)
(0.91195 0.0402832 -1.22537e-17)
(0.909463 0.0427957 -1.27974e-17)
(0.800188 0.00178636 1.14696e-17)
(0.801 0.00498759 2.18898e-17)
(0.802607 0.00829546 2.08264e-17)
(0.804993 0.0116248 2.30826e-17)
(0.808139 0.0149664 2.9578e-17)
(0.812022 0.0183154 2.44633e-17)
(0.816613 0.0216724 2.22454e-17)
(0.821871 0.0250275 2.31453e-17)
(0.82775 0.0282431 2.82387e-17)
(0.834188 0.0313267 2.29834e-17)
)
;
    }
    procBoundary9to10
    {
        type            processor;
        value           nonuniform List<vector> 4((1.26166 0.135948 -3.69169e-18) (1.32357 0.159455 -1.23257e-17) (1.36472 0.151897 6.07041e-18) (1.2632 0.173052 -1.95478e-17));
    }
    procBoundary9to12
    {
        type            processor;
        value           nonuniform List<vector> 
11
(
(0.907034 0.0452406 -1.07386e-17)
(0.904719 0.0476082 -9.58041e-18)
(0.90258 0.0498896 -8.87399e-18)
(0.900681 0.0520839 -8.47351e-18)
(0.899099 0.0543042 -8.62441e-18)
(0.897923 0.0565441 -9.53624e-18)
(0.894422 0.0635285 -1.896e-17)
(0.919483 0.0765943 -1.801e-18)
(0.949091 0.0871371 1.52671e-17)
(0.981688 0.0900899 1.46353e-17)
(1.00489 0.0929895 1.25565e-17)
)
;
    }
    procBoundary9to13
    {
        type            processor;
        value           nonuniform List<vector> 
23
(
(1.2131 0.170757 -2.62827e-17)
(1.21564 0.167039 -1.96816e-17)
(1.2184 0.163232 -1.23357e-17)
(1.22099 0.159339 -1.66838e-17)
(1.2233 0.155376 -1.5564e-17)
(1.22534 0.151359 -1.49532e-17)
(1.22715 0.1473 -8.78827e-18)
(1.2287 0.143204 -2.60235e-18)
(1.23002 0.139087 -2.16595e-18)
(1.23093 0.134922 -2.22002e-18)
(1.17325 0.172794 -2.75411e-17)
(1.17716 0.170415 -2.56392e-17)
(1.17904 0.168018 -2.41868e-17)
(1.18074 0.165598 -2.28409e-17)
(1.18271 0.163138 -1.72865e-17)
(1.20193 0.189198 -4.01547e-17)
(1.20193 0.189198 -4.01547e-17)
(1.20453 0.185549 -3.81891e-17)
(1.20694 0.181829 -3.65592e-17)
(1.20917 0.178057 -3.47608e-17)
(1.21118 0.174173 -2.79992e-17)
(1.02375 0.0430836 1.30919e-18)
(1.06192 0.21269 5.80295e-18)
)
;
    }
}


// ************************************************************************* //
