/*--------------------------------*- C++ -*----------------------------------*\
  =========                 |
  \\      /  F ield         | OpenFOAM: The Open Source CFD Toolbox
   \\    /   O peration     | Website:  https://openfoam.org
    \\  /    A nd           | Version:  7
     \\/     M anipulation  |
\*---------------------------------------------------------------------------*/
FoamFile
{
    version     2.0;
    format      ascii;
    class       surfaceScalarField;
    location    "20";
    object      phi;
}
// * * * * * * * * * * * * * * * * * * * * * * * * * * * * * * * * * * * * * //

dimensions      [0 3 -1 0 0 0 0];

internalField   nonuniform List<scalar> 
84
(
-0.005978
0.0186515
-0.00681368
0.0192332
-0.0066436
0.0173753
0.0117447
-0.00515487
0.0194706
-0.00598579
0.0194825
-0.0063935
0.0196409
-0.00515945
0.0161412
0.00658527
-0.00519318
0.0202538
-0.00590027
0.0201896
-0.00593275
0.0196734
-0.00381808
0.0140266
0.00276719
-0.00519373
0.0210058
-0.00573103
0.0207269
-0.00532209
0.0192644
-0.00259396
0.0112984
0.000173237
-0.00515935
0.0216986
-0.00549155
0.021059
-0.00463104
0.0184039
-0.00164023
0.00830764
-0.001467
-0.00506101
0.0222992
-0.00517606
0.0211741
-0.00385517
0.0170831
-0.00100754
0.00546001
-0.00247454
-0.00495092
0.0227919
-0.00481519
0.0210384
-0.003075
0.0153429
-0.000600409
0.00298542
-0.00307495
-0.00474862
0.0231381
-0.00436545
0.0206552
-0.0024176
0.013395
-0.000378008
0.000945823
-0.00345295
-0.00460702
0.0233688
-0.00396389
0.0200121
-0.0019625
0.0113936
-0.000284354
-0.000732324
-0.00373731
-0.00425446
-0.00427609
-0.00337393
-0.00150623
-0.000232953
)
;

boundaryField
{
    inlet
    {
        type            calculated;
        value           nonuniform 0();
    }
    outlet
    {
        type            calculated;
        value           nonuniform 0();
    }
    polygon
    {
        type            calculated;
        value           uniform 0;
    }
    top
    {
        type            symmetryPlane;
        value           uniform 0;
    }
    bottom
    {
        type            symmetryPlane;
        value           uniform 0;
    }
    outside
    {
        type            calculated;
        value           nonuniform 0();
    }
    procBoundary10to9
    {
        type            processor;
        value           nonuniform List<scalar> 4(-0.0177754 -0.0183975 -0.0175454 -0.0183883);
    }
    procBoundary10to11
    {
        type            processor;
        value           nonuniform List<scalar> 5(0.0233904 0.0191099 0.00952593 -0.00200561 -0.00397026);
    }
    procBoundary10to14
    {
        type            processor;
        value           nonuniform List<scalar> 
12
(
0.00510183
-0.0186784
0.00436258
0.00441007
0.00444165
0.00446654
0.00446045
0.00445826
0.0044024
0.00437632
-0.0243339
0.00374675
)
;
    }
    procBoundary10to15
    {
        type            processor;
        value           uniform 0.0248416;
    }
}


// ************************************************************************* //
