/*--------------------------------*- C++ -*----------------------------------*\
  =========                 |
  \\      /  F ield         | OpenFOAM: The Open Source CFD Toolbox
   \\    /   O peration     | Website:  https://openfoam.org
    \\  /    A nd           | Version:  7
     \\/     M anipulation  |
\*---------------------------------------------------------------------------*/
FoamFile
{
    version     2.0;
    format      ascii;
    class       volVectorField;
    location    "118";
    object      U;
}
// * * * * * * * * * * * * * * * * * * * * * * * * * * * * * * * * * * * * * //

dimensions      [0 1 -1 0 0 0 0];

internalField   nonuniform List<vector> 
250
(
(0.591847 0.25386 -2.52624e-19)
(0.564489 0.244267 1.48785e-18)
(0.531648 0.23123 2.05038e-19)
(0.49348 0.214389 3.37763e-18)
(0.450451 0.193451 7.21564e-19)
(0.403374 0.168163 -5.19483e-18)
(0.353864 0.138301 5.52274e-18)
(0.305538 0.103731 1.94253e-18)
(0.26523 0.064637 8.87675e-18)
(0.241813 0.0220084 2.95541e-19)
(0.564618 0.259189 -1.04099e-18)
(0.525323 0.248207 -3.25901e-18)
(0.478929 0.23327 -9.84626e-19)
(0.425846 0.214211 -2.96491e-18)
(0.366724 0.191006 -8.447e-19)
(0.302502 0.163735 1.78546e-18)
(0.235027 0.132578 -1.15668e-18)
(0.168744 0.0978803 -2.39703e-19)
(0.112714 0.0601835 -7.05363e-19)
(0.0796926 0.0203362 -6.8736e-20)
(0.549346 0.242431 2.84914e-19)
(0.506738 0.227968 7.45884e-19)
(0.45786 0.209929 3.53487e-19)
(0.403497 0.188485 2.68583e-18)
(0.344627 0.16395 6.55351e-19)
(0.28252 0.136766 -4.19481e-18)
(0.219308 0.107523 4.75307e-18)
(0.159284 0.0769998 1.84361e-18)
(0.110095 0.0460507 7.4628e-18)
(0.0817292 0.0152904 1.69056e-19)
(0.522605 0.256772 7.41773e-19)
(0.470117 0.243655 -1.0414e-20)
(0.410666 0.226735 -1.54456e-19)
(0.345235 0.206111 -4.39633e-19)
(0.27497 0.181961 -2.16148e-19)
(0.201321 0.154505 1.59432e-19)
(0.126753 0.123989 -8.08293e-20)
(0.0562668 0.0907517 -7.29786e-22)
(-0.0012973 0.0552884 1.4791e-19)
(-0.0344305 0.0185403 -2.30303e-20)
(0.500551 0.2387 -1.73555e-19)
(0.443123 0.222145 -6.77697e-19)
(0.37974 0.202313 -4.94896e-19)
(0.311605 0.179642 -4.74308e-19)
(0.239941 0.154629 -2.64829e-19)
(0.166184 0.127839 -4.06535e-20)
(0.0927235 0.0998573 -2.46621e-20)
(0.0244271 0.0714194 -8.20314e-21)
(-0.0304928 0.0429148 8.36553e-21)
(-0.061831 0.0143179 2.07401e-20)
(0.4706 0.246782 -7.08863e-19)
(0.405106 0.231146 -3.02595e-18)
(0.333927 0.212196 -1.74589e-18)
(0.258397 0.190248 -2.42612e-18)
(0.179871 0.165611 -1.14673e-18)
(0.0999666 0.138619 3.89345e-19)
(0.0213065 0.109493 -2.33061e-19)
(-0.0511977 0.0787713 -8.27628e-20)
(-0.108851 0.0474047 3.9003e-20)
(-0.141408 0.0158274 -2.20757e-19)
(0.443926 0.230552 -3.95518e-18)
(0.373265 0.213007 -1.46508e-17)
(0.297897 0.192834 -4.55792e-18)
(0.219111 0.170521 -1.38728e-17)
(0.138132 0.146522 -4.62255e-18)
(0.0564786 0.121227 9.72788e-18)
(-0.0231258 0.0951511 -7.8835e-18)
(-0.0958179 0.0683723 -2.72156e-18)
(-0.153316 0.0410757 -8.97912e-18)
(-0.185632 0.0137014 6.36069e-19)
(0.411789 0.227373 1.58044e-18)
(0.335227 0.209995 1.07375e-18)
(0.254777 0.190154 2.61411e-19)
(0.171685 0.168249 -3.95039e-19)
(0.0871339 0.144634 -1.68035e-17)
(0.00260094 0.119561 1.2472e-17)
(-0.0792565 0.0934451 2.5193e-18)
(-0.153272 0.0668284 -5.58777e-20)
(-0.211382 0.0400533 -3.42435e-18)
(-0.243885 0.0133367 -1.68389e-17)
(0.381307 0.210929 -1.5971e-18)
(0.300446 0.193196 -5.6433e-18)
(0.216559 0.173678 -2.91103e-18)
(0.130712 0.152758 -3.52523e-18)
(0.0439601 0.130736 -1.38979e-18)
(-0.0421844 0.10785 6.2458e-19)
(-0.125022 0.0842579 7.80617e-19)
(-0.199432 0.0602207 5.5223e-19)
(-0.257423 0.036071 1.00919e-18)
(-0.289697 0.0120038 -3.69633e-18)
(0.349068 0.198211 -8.63839e-18)
(0.264593 0.180687 -3.19302e-17)
(0.177918 0.16171 -1.02246e-17)
(0.0898967 0.141626 -3.18827e-17)
(0.00141104 0.120676 -6.60112e-18)
(-0.0860912 0.099055 2.41734e-17)
(-0.16982 0.0770088 -2.2135e-17)
(-0.244606 0.0548187 -7.38833e-18)
(-0.30254 0.0327359 -2.66613e-17)
(-0.334631 0.0108747 -1.37316e-18)
(0.317535 0.179963 3.89263e-18)
(0.230337 0.163128 2.90727e-18)
(0.141606 0.145325 1.03377e-18)
(0.0520028 0.126788 -3.1986e-19)
(-0.03767 0.107651 1.05442e-20)
(-0.125945 0.0880773 1.45742e-18)
(-0.209971 0.0682726 -2.4864e-18)
(-0.284572 0.0484644 -2.17964e-18)
(-0.342028 0.0288779 -4.70504e-18)
(-0.37372 0.00958085 -9.28188e-19)
(0.287013 0.162134 3.21723e-18)
(0.198065 0.146073 8.144e-19)
(0.108105 0.129404 4.11359e-19)
(0.0175677 0.112334 9.48096e-20)
(-0.0728176 0.0949473 1.18327e-19)
(-0.161582 0.0773254 2.29774e-19)
(-0.245722 0.0596594 -2.26946e-19)
(-0.319998 0.0421634 -4.52262e-19)
(-0.376861 0.0250323 -1.21263e-18)
(-0.408083 0.00828725 -9.87817e-19)
(0.257762 0.142813 6.97535e-19)
(0.167685 0.127929 -6.43839e-20)
(0.0769961 0.112744 8.42284e-21)
(-0.0140353 0.0973376 3.26925e-19)
(-0.104715 0.0818038 -2.19523e-19)
(-0.193503 0.066261 -9.22289e-20)
(-0.27731 0.0508386 -2.55737e-19)
(-0.350889 0.0357408 -3.23435e-19)
(-0.4069 0.0211284 -3.68266e-19)
(-0.437523 0.00697746 -1.62424e-18)
(0.230788 0.123899 2.73062e-18)
(0.14026 0.110214 9.11063e-19)
(0.0493525 0.0964858 2.83546e-19)
(-0.0417758 0.0827729 6.40733e-20)
(-0.132465 0.0691112 2.3048e-19)
(-0.221047 0.0555832 2.18727e-19)
(-0.304312 0.0423331 -9.54148e-20)
(-0.377008 0.0295512 -5.32072e-20)
(-0.432028 0.017368 -2.57843e-20)
(-0.461977 0.0057166 -7.08206e-19)
(0.205724 0.105392 -2.27973e-18)
(0.115187 0.0930326 -1.07732e-18)
(0.024432 0.0808 -5.14177e-19)
(-0.0664611 0.0687285 -1.35811e-19)
(-0.156789 0.0568646 1.06994e-20)
(-0.244794 0.0452884 2.7906e-19)
(-0.327174 0.0341415 -5.50775e-19)
(-0.398706 0.0235985 -1.16224e-18)
(-0.452543 0.0137567 -2.36766e-18)
(-0.481726 0.00450709 -5.47221e-18)
(0.1832 0.0879308 -6.00549e-18)
(0.0930191 0.0768497 -6.26752e-18)
(0.00269057 0.066056 -2.06296e-18)
(-0.0877361 0.0555597 -1.92119e-18)
(-0.177487 0.0453936 -7.69673e-19)
(-0.264687 0.0356483 -2.3656e-18)
(-0.345952 0.0264726 4.99893e-18)
(-0.416123 0.0180273 4.31715e-18)
(-0.468641 0.0103783 1.07752e-17)
(-0.496991 0.00337617 9.60349e-18)
(0.162797 0.071628 -2.32298e-17)
(0.073273 0.0617799 -6.80232e-17)
(-0.0163671 0.0523319 -2.08874e-17)
(-0.106065 0.0432949 -6.47453e-17)
(-0.194962 0.034712 -4.77081e-18)
(-0.281076 0.026679 5.09788e-17)
(-0.360965 0.019346 -5.18059e-17)
(-0.429566 0.0128577 -1.66346e-17)
(-0.48063 0.00724764 -5.97719e-17)
(-0.508084 0.00232911 -9.52754e-18)
(0.144657 0.0566695 -3.68551e-18)
(0.0559947 0.0479542 -6.2965e-18)
(-0.0327728 0.0397439 -3.59293e-18)
(-0.121549 0.0320459 -5.77607e-18)
(-0.209376 0.0249102 -1.04283e-18)
(-0.294173 0.0184482 3.28212e-18)
(-0.372467 0.012809 -1.8871e-18)
(-0.439325 0.00811933 -6.78649e-19)
(-0.488825 0.00438063 -1.36702e-18)
(-0.515335 0.0013709 7.54024e-18)
(0.128436 0.0430329 -2.16786e-17)
(0.0408368 0.0353433 -6.7552e-17)
(-0.0468635 0.0282472 -2.12705e-17)
(-0.134504 0.021762 -6.97689e-17)
(-0.221031 0.0159495 -4.51358e-18)
(-0.304275 0.010929 5.22522e-17)
(-0.380763 0.00684481 -6.47353e-17)
(-0.445717 0.00380273 -2.30342e-17)
(-0.493558 0.00177215 -7.54611e-17)
(-0.519083 0.000499701 -9.66981e-18)
(0.114032 0.0307049 1.25217e-17)
(0.0276496 0.0239266 6.84959e-17)
(-0.0588167 0.0178269 1.89933e-17)
(-0.145134 0.0124332 6.31634e-17)
(-0.23015 0.00781834 1.23662e-17)
(-0.311628 0.00410911 1.86926e-17)
(-0.386125 0.00143918 5.51755e-17)
(-0.449043 -0.000105594 9.57938e-18)
(-0.49515 -0.00058514 4.60742e-17)
(-0.519661 -0.000286394 4.96098e-18)
(0.101165 0.0195812 2.44274e-19)
(0.0161615 0.0136055 2.61022e-18)
(-0.0688922 0.00839086 2.92335e-18)
(-0.153686 0.00397842 7.27683e-18)
(-0.23698 0.000447754 3.76583e-18)
(-0.316493 -0.00206478 4.78967e-18)
(-0.388828 -0.00343886 1.20182e-17)
(-0.449594 -0.00362279 5.22654e-18)
(-0.493905 -0.00270482 1.17548e-17)
(-0.517381 -0.0009938 2.81675e-18)
(0.0896866 0.00957329 4.18201e-19)
(0.00620874 0.00429954 5.06752e-19)
(-0.0772685 -0.000130847 6.54255e-19)
(-0.160353 -0.00365724 1.11102e-18)
(-0.241729 -0.00619697 4.5874e-19)
(-0.319093 -0.00762475 1.38246e-18)
(-0.389118 -0.00783087 2.57388e-18)
(-0.447633 -0.00678492 1.67329e-18)
(-0.490102 -0.00460793 2.98833e-18)
(-0.512527 -0.00162822 3.91889e-19)
(0.0793849 0.000560378 4.13109e-19)
(-0.00241812 -0.00408591 -1.49769e-19)
(-0.0841427 -0.00780867 3.3023e-19)
(-0.165326 -0.0105418 -4.4299e-19)
(-0.244593 -0.0121871 2.9582e-19)
(-0.319632 -0.0126282 -3.28801e-19)
(-0.387219 -0.0117734 1.03209e-18)
(-0.443407 -0.00961761 3.81078e-19)
(-0.484002 -0.00630977 -2.15776e-19)
(-0.505372 -0.00219514 -1.58748e-18)
(0.0701332 -0.00753582 -3.87301e-19)
(-0.00985417 -0.0116265 -5.71337e-20)
(-0.0896562 -0.0147221 3.72241e-19)
(-0.168757 -0.0167344 3.58238e-19)
(-0.245738 -0.0175665 -2.46862e-19)
(-0.318302 -0.017111 -5.88875e-19)
(-0.383343 -0.0152959 8.59333e-21)
(-0.437147 -0.0121421 -7.6431e-21)
(-0.475852 -0.00782346 -1.3372e-19)
(-0.496166 -0.0026991 -6.52196e-19)
(0.0618059 -0.0148098 -2.32915e-18)
(-0.0162229 -0.0184004 3.98627e-19)
(-0.0939413 -0.0209247 1.56746e-19)
(-0.170788 -0.0222813 9.93474e-20)
(-0.245321 -0.0223723 1.17399e-19)
(-0.315281 -0.0211031 1.09728e-19)
(-0.377688 -0.0184222 -3.065e-19)
(-0.429068 -0.0143757 -2.7609e-19)
(-0.465878 -0.00915956 -8.63946e-19)
(-0.485143 -0.00314365 -6.01815e-18)
)
;

boundaryField
{
    inlet
    {
        type            uniformFixedValue;
        uniformValue    constant (1 0 0);
        value           nonuniform 0();
    }
    outlet
    {
        type            pressureInletOutletVelocity;
        value           nonuniform List<vector> 10((0.591847 0.25386 -2.52624e-19) (0.564489 0.244267 1.48785e-18) (0.531648 0.23123 2.05038e-19) (0.49348 0.214389 3.37763e-18) (0.450451 0.193451 7.21564e-19) (0.403374 0.168163 -5.19483e-18) (0.353864 0.138301 5.52274e-18) (0.305538 0.103731 1.94253e-18) (0.26523 0.064637 8.87675e-18) (0.241813 0.0220084 2.95541e-19));
    }
    polygon
    {
        type            fixedValue;
        value           nonuniform 0();
    }
    top
    {
        type            symmetryPlane;
    }
    bottom
    {
        type            symmetryPlane;
    }
    outside
    {
        type            zeroGradient;
    }
    procBoundary7to3
    {
        type            processor;
        value           nonuniform List<vector> 
25
(
(0.613903 0.260445 7.44904e-20)
(0.596745 0.26655 -3.6713e-18)
(0.585189 0.25332 -2.102e-19)
(0.567388 0.266122 2.35232e-18)
(0.550903 0.251663 2.64579e-19)
(0.529096 0.25883 2.90512e-19)
(0.508453 0.244972 -1.39692e-17)
(0.483018 0.241828 4.3642e-18)
(0.457838 0.226375 5.3439e-19)
(0.430239 0.213823 -2.89098e-17)
(0.402355 0.195462 9.35095e-18)
(0.374415 0.177276 1.11165e-17)
(0.34696 0.157178 2.13078e-18)
(0.320929 0.137384 1.12546e-17)
(0.29624 0.117798 -5.77195e-18)
(0.273577 0.0992544 -1.51746e-17)
(0.252657 0.0818619 -7.83492e-17)
(0.233722 0.0658874 -6.92533e-18)
(0.216468 0.051318 -7.65634e-17)
(0.200859 0.038162 1.7708e-17)
(0.186624 0.026311 -2.0095e-18)
(0.173642 0.0156736 -3.18045e-19)
(0.161706 0.0061208 -5.63214e-19)
(0.15071 -0.00244159 -1.23173e-18)
(0.140534 -0.0101197 -7.50113e-18)
)
;
    }
    procBoundary7to6
    {
        type            processor;
        value           nonuniform List<vector> 10((0.0543289 -0.0213162 -9.44513e-18) (-0.0216193 -0.024449 -1.45105e-18) (-0.0971044 -0.0264501 -8.13447e-19) (-0.171542 -0.0272079 2.8395e-20) (-0.243486 -0.0266251 -6.57988e-19) (-0.310731 -0.024621 -4.14493e-19) (-0.370441 -0.0211653 -4.33028e-19) (-0.419376 -0.016328 1.29801e-19) (-0.454298 -0.010324 9.13415e-19) (-0.472527 -0.00353076 8.38094e-18));
    }
    procBoundary7to11
    {
        type            processor;
        value           nonuniform List<vector> 
25
(
(0.241812 -0.0220006 -9.0533e-18)
(0.0796908 -0.0203248 3.74608e-19)
(0.0817273 -0.0152782 -7.64185e-18)
(-0.0344325 -0.0185277 -3.4728e-19)
(-0.0618328 -0.0143067 9.20322e-20)
(-0.14141 -0.0158177 -1.28703e-18)
(-0.185634 -0.0136941 9.1567e-18)
(-0.243887 -0.0133322 -1.54026e-17)
(-0.289698 -0.012002 -8.67339e-18)
(-0.334632 -0.0108754 2.41823e-17)
(-0.373721 -0.0095833 -4.86577e-20)
(-0.408084 -0.00829059 -5.19654e-18)
(-0.437524 -0.00698065 -7.97859e-18)
(-0.461978 -0.00571868 -6.86782e-18)
(-0.481727 -0.00450718 -2.13591e-17)
(-0.496992 -0.00337367 5.3034e-17)
(-0.508085 -0.00232368 -8.22986e-18)
(-0.515336 -0.00136246 5.97954e-17)
(-0.519084 -0.000488455 3.82402e-18)
(-0.519663 0.000300001 2.59894e-18)
(-0.517382 0.00100911 -6.14448e-18)
(-0.512528 0.00164446 -9.60858e-18)
(-0.505373 0.00221148 -1.25082e-17)
(-0.496167 0.00271472 -9.29438e-18)
(-0.485144 0.00315776 -2.78395e-17)
)
;
    }
}


// ************************************************************************* //
