/*--------------------------------*- C++ -*----------------------------------*\
  =========                 |
  \\      /  F ield         | OpenFOAM: The Open Source CFD Toolbox
   \\    /   O peration     | Website:  https://openfoam.org
    \\  /    A nd           | Version:  7
     \\/     M anipulation  |
\*---------------------------------------------------------------------------*/
FoamFile
{
    version     2.0;
    format      ascii;
    class       volScalarField;
    location    "10";
    object      p;
}
// * * * * * * * * * * * * * * * * * * * * * * * * * * * * * * * * * * * * * //

dimensions      [0 2 -2 0 0 0 0];

internalField   nonuniform List<scalar> 
125
(
-0.143838
-0.153439
-0.162393
-0.180191
-0.200116
-0.239732
-0.143797
-0.15346
-0.162294
-0.180018
-0.199723
-0.238958
-0.143756
-0.153478
-0.162266
-0.179973
-0.199673
-0.238739
-0.143694
-0.153454
-0.162193
-0.179851
-0.19952
-0.238347
-0.143604
-0.153379
-0.162045
-0.179598
-0.199144
-0.237596
-0.143488
-0.153258
-0.161832
-0.179237
-0.19859
-0.143351
-0.153095
-0.161565
-0.178785
-0.197897
-0.143193
-0.152891
-0.161246
-0.178243
-0.197065
-0.143015
-0.152647
-0.160874
-0.17761
-0.196087
-0.142816
-0.152361
-0.160448
-0.176887
-0.194976
-0.142233
-0.149994
-0.160246
-0.17738
-0.199477
-0.239007
-0.1426
-0.150597
-0.160716
-0.177968
-0.199825
-0.239588
-0.142929
-0.151184
-0.161234
-0.178706
-0.20052
-0.240787
-0.143211
-0.151713
-0.161699
-0.179383
-0.201173
-0.241893
-0.143441
-0.152168
-0.162065
-0.179906
-0.201603
-0.242597
-0.143621
-0.15255
-0.162334
-0.180282
-0.201816
-0.24292
-0.143753
-0.152864
-0.162519
-0.180529
-0.201853
-0.242933
-0.143841
-0.153112
-0.162623
-0.180657
-0.201726
-0.242661
-0.143885
-0.153296
-0.162646
-0.180661
-0.201429
-0.242093
-0.143887
-0.153415
-0.162588
-0.180541
-0.200955
-0.241216
-0.0760852
-0.132536
-0.0909614
-0.137268
-0.0947078
-0.140736
-0.107097
-0.145369
-0.112895
-0.148861
)
;

boundaryField
{
    inlet
    {
        type            zeroGradient;
    }
    outlet
    {
        type            fixedValue;
        value           nonuniform 0();
    }
    polygon
    {
        type            zeroGradient;
    }
    top
    {
        type            symmetryPlane;
    }
    bottom
    {
        type            symmetryPlane;
    }
    outside
    {
        type            slip;
    }
    procBoundary14to10
    {
        type            processor;
        value           nonuniform List<scalar> 
23
(
-0.281626
-0.280958
-0.281478
-0.281652
-0.281121
-0.236566
-0.236566
-0.235312
-0.233836
-0.232117
-0.230207
-0.282415
-0.282297
-0.283602
-0.285007
-0.285882
-0.286239
-0.286202
-0.285808
-0.285029
-0.283802
-0.124643
-0.152209
)
;
    }
    procBoundary14to13
    {
        type            processor;
        value           nonuniform List<scalar> 6(-0.141824 -0.149365 -0.159799 -0.176907 -0.199358 -0.238939);
    }
    procBoundary14to15
    {
        type            processor;
        value           nonuniform List<scalar> 5(-0.012875 -0.0154613 -0.0155046 -0.0167792 -0.0163043);
    }
}


// ************************************************************************* //
