/*--------------------------------*- C++ -*----------------------------------*\
  =========                 |
  \\      /  F ield         | OpenFOAM: The Open Source CFD Toolbox
   \\    /   O peration     | Website:  https://openfoam.org
    \\  /    A nd           | Version:  7
     \\/     M anipulation  |
\*---------------------------------------------------------------------------*/
FoamFile
{
    version     2.0;
    format      ascii;
    class       surfaceScalarField;
    location    "10";
    object      phi;
}
// * * * * * * * * * * * * * * * * * * * * * * * * * * * * * * * * * * * * * //

dimensions      [0 3 -1 0 0 0 0];

internalField   nonuniform List<scalar> 
222
(
-0.000258163
0.0179336
-0.0178071
-0.000386128
0.0181077
-0.0179798
-0.000515545
0.0182253
-0.0180959
-0.000646875
0.0184649
-0.0183336
-0.000780286
0.0187236
-0.0185901
0.0191582
-0.0190234
-0.000257147
0.0180598
-0.000384445
0.018235
-0.000513076
0.0183539
-0.000642975
0.0185948
-0.000774299
0.0188549
0.0192892
-0.000256102
0.0181856
-0.000382788
0.0183617
-0.000510616
0.0184817
-0.000639184
0.0187234
-0.000768448
0.0189841
0.0194167
-0.000255055
0.018311
-0.000381125
0.0184878
-0.00050815
0.0186088
-0.000635383
0.0188506
-0.000762575
0.0191113
0.0195407
-0.000254004
0.0184361
-0.000379454
0.0186132
-0.000505656
0.018735
-0.000631516
0.0189765
-0.000756533
0.0192364
-0.000252953
0.0185608
-0.000377779
0.018738
-0.00050314
0.0188603
-0.000627584
0.0191009
0.0193591
-0.000251903
0.0186852
-0.000376101
0.0188622
-0.00050061
0.0189848
-0.000623605
0.0192239
0.0194795
-0.000250857
0.0188092
-0.000374426
0.0189858
-0.000498071
0.0191085
-0.00061959
0.0193454
0.0195974
-0.000249818
0.0189329
-0.000372756
0.0191088
-0.000495531
0.0192313
-0.000615547
0.0194655
0.0197128
-0.000248829
0.0190562
-0.000371152
0.0192311
-0.00049303
0.0193531
-0.000611471
0.0195839
0.0198254
-0.00021371
0.017381
-0.000267332
0.0175368
-0.000322196
0.0176506
-0.000381334
0.0178733
-0.000443221
0.0181323
0.018553
-0.000212436
0.0174308
-0.000265168
0.0175896
-0.000318961
0.0177044
-0.000376553
0.0179309
-0.000436296
0.0181921
0.0186204
-0.00021113
0.01748
-0.000262976
0.0176414
-0.000315702
0.0177572
-0.000371735
0.017987
-0.00042935
0.0182497
0.0186841
-0.000209794
0.0175285
-0.000260755
0.0176924
-0.000312408
0.0178088
-0.00036686
0.0180414
-0.000422326
0.0183052
0.0187442
-0.000208429
0.0175764
-0.000258507
0.0177425
-0.000309079
0.0178594
-0.000361918
0.0180942
-0.000415182
0.0183584
0.0188005
-0.000207041
0.0176238
-0.000256237
0.0177917
-0.00030572
0.0179089
-0.000356921
0.0181454
-0.000407927
0.0184094
0.0188529
-0.000205633
0.0176705
-0.000253952
0.01784
-0.000302342
0.0179572
-0.000351884
0.018195
-0.000400588
0.0184581
0.0189014
-0.000204207
0.0177166
-0.000251656
0.0178874
-0.000298952
0.0180045
-0.000346824
0.0182429
-0.000393192
0.0185045
0.018946
-0.000202768
0.0177621
-0.000249354
0.017934
-0.000295557
0.0180507
-0.000341751
0.0182891
-0.000385751
0.0185485
0.0189866
-0.000201316
-0.000247057
-0.000292179
-0.000336725
-0.000378381
-0.0184968
0.00103003
-0.0108806
-0.0186523
0.0021416
-0.0103019
-0.0187367
0.0032855
-0.00968542
-0.0188369
0.00450465
-0.00893837
-0.0188514
)
;

boundaryField
{
    inlet
    {
        type            calculated;
        value           nonuniform 0();
    }
    outlet
    {
        type            calculated;
        value           nonuniform 0();
    }
    polygon
    {
        type            calculated;
        value           nonuniform 0();
    }
    top
    {
        type            symmetryPlane;
        value           uniform 0;
    }
    bottom
    {
        type            symmetryPlane;
        value           uniform 0;
    }
    outside
    {
        type            calculated;
        value           nonuniform List<scalar> 
22
(
0.000131682
0.000130978
0.000130304
0.000129621
0.000128932
0.000128238
0.000127541
0.000126843
0.000126147
0.000125516
0.000163244
0.000162621
0.000161958
0.000161255
0.000160513
0.000159734
0.000158923
0.000158081
0.000157211
0.000156318
-3.83549e-05
0.01144
)
;
    }
    procBoundary14to10
    {
        type            processor;
        value           nonuniform List<scalar> 
23
(
-0.000915053
-0.000905317
-0.000895962
-0.000886502
-0.000876629
0.0196608
-0.000750319
-0.00074397
-0.000737509
-0.000730951
-0.000724135
-0.000514113
-0.000503662
-0.000493114
-0.000482401
-0.000471472
-0.000460357
-0.000449108
-0.000437773
-0.000426366
-0.000415188
0.00575848
-0.00796437
)
;
    }
    procBoundary14to13
    {
        type            processor;
        value           nonuniform List<scalar> 6(-0.0173305 -0.0174832 -0.0175958 -0.0178142 -0.0180704 -0.0184821);
    }
    procBoundary14to15
    {
        type            processor;
        value           nonuniform List<scalar> 5(0.0175051 0.0175408 0.0175928 0.0176177 0.0175976);
    }
}


// ************************************************************************* //
