/*--------------------------------*- C++ -*----------------------------------*\
  =========                 |
  \\      /  F ield         | OpenFOAM: The Open Source CFD Toolbox
   \\    /   O peration     | Website:  https://openfoam.org
    \\  /    A nd           | Version:  7
     \\/     M anipulation  |
\*---------------------------------------------------------------------------*/
FoamFile
{
    version     2.0;
    format      ascii;
    class       volScalarField;
    location    "112";
    object      p;
}
// * * * * * * * * * * * * * * * * * * * * * * * * * * * * * * * * * * * * * //

dimensions      [0 2 -2 0 0 0 0];

internalField   nonuniform List<scalar> 
8000
(
-0.000629216
-0.00215093
-0.00366228
-0.00530222
-0.00697001
-0.00863152
-0.0102606
-0.0118344
-0.0133367
-0.014756
-0.0160865
-0.0173124
-0.0184437
-0.0194755
-0.0204084
-0.0212448
-0.0219881
-0.0226424
-0.0232127
-0.0237045
-0.0241237
-0.0244766
-0.02477
-0.0250107
-0.0252058
-0.0253625
-0.0254879
-0.0255892
-0.0256734
-0.0257472
-0.0258168
-0.0258884
-0.0259674
-0.0260588
-0.026167
-0.0262962
-0.0264495
-0.0266301
-0.0268403
-0.0270822
-0.0273572
-0.0276667
-0.0280115
-0.0283921
-0.0288088
-0.0292616
-0.0297503
-0.0302748
-0.0308343
-0.0314286
-0.0320566
-0.0327177
-0.0334112
-0.0341361
-0.0348917
-0.0356772
-0.0364921
-0.0373353
-0.0382063
-0.0391046
-0.0400302
-0.0409828
-0.0419623
-0.0429686
-0.044002
-0.0450626
-0.0461508
-0.047267
-0.0484116
-0.049585
-0.0507876
-0.0520195
-0.0532807
-0.0545709
-0.0558893
-0.0572349
-0.0586058
-0.0599996
-0.0614131
-0.0628422
-0.0642816
-0.065725
-0.0671646
-0.0685909
-0.0699928
-0.0713572
-0.0726684
-0.0739085
-0.0750569
-0.076088
-0.0769809
-0.0776947
-0.07824
-0.0784925
-0.0787514
-0.0782476
-0.0794476
-0.077373
-0.0848939
-0.0812785
-0.000661684
-0.00217221
-0.00368382
-0.00530749
-0.00695652
-0.00860106
-0.0102152
-0.0117764
-0.0132682
-0.0146784
-0.015996
-0.0172258
-0.0183552
-0.0193858
-0.0203185
-0.0211555
-0.0219002
-0.0225567
-0.0231298
-0.0236251
-0.0240484
-0.024406
-0.0247045
-0.0249508
-0.0251519
-0.0253148
-0.0254467
-0.0255546
-0.0256453
-0.0257255
-0.0258013
-0.0258788
-0.0259632
-0.0260594
-0.0261719
-0.0263047
-0.0264609
-0.0266436
-0.0268551
-0.0270975
-0.0273723
-0.0276807
-0.0280237
-0.0284018
-0.0288152
-0.0292642
-0.0297485
-0.030268
-0.0308223
-0.0314108
-0.032033
-0.032688
-0.0333753
-0.0340942
-0.0348438
-0.0356236
-0.0364331
-0.0372714
-0.0381378
-0.0390319
-0.0399538
-0.0409034
-0.0418803
-0.0428845
-0.043916
-0.0449751
-0.046062
-0.0471771
-0.0483207
-0.0494931
-0.0506945
-0.0519251
-0.0531848
-0.0544732
-0.0557896
-0.0571327
-0.0585008
-0.0598914
-0.0613014
-0.0627266
-0.064162
-0.0656011
-0.0670362
-0.0684579
-0.0698551
-0.0712145
-0.0725202
-0.0737538
-0.0748943
-0.075914
-0.0767919
-0.0774794
-0.0779914
-0.0781846
-0.0783821
-0.0777573
-0.0786864
-0.0764744
-0.082222
-0.0796833
-0.000686406
-0.00218855
-0.00370251
-0.005311
-0.00694344
-0.00857242
-0.0101727
-0.0117222
-0.0132047
-0.0146082
-0.0159243
-0.0171462
-0.018272
-0.0193007
-0.0202327
-0.02107
-0.0218158
-0.0224742
-0.02305
-0.0235485
-0.0239757
-0.0243377
-0.0246412
-0.0248928
-0.0250996
-0.0252685
-0.0254066
-0.0255206
-0.0256175
-0.0257037
-0.0257852
-0.025868
-0.0259573
-0.0260579
-0.0261742
-0.02631
-0.0264687
-0.0266531
-0.0268657
-0.0271084
-0.0273829
-0.0276903
-0.0280315
-0.0284073
-0.028818
-0.0292637
-0.0297443
-0.0302597
-0.0308096
-0.0313936
-0.032011
-0.0326613
-0.0333439
-0.0340581
-0.0348031
-0.0355787
-0.0363842
-0.0372185
-0.0380815
-0.0389722
-0.0398909
-0.0408375
-0.0418118
-0.0428137
-0.0438433
-0.0449007
-0.045986
-0.0470997
-0.0482418
-0.0494127
-0.0506126
-0.0518413
-0.0530988
-0.0543846
-0.0556977
-0.057037
-0.0584007
-0.0597862
-0.0611904
-0.0626092
-0.0640376
-0.0654692
-0.0668965
-0.06831
-0.0696987
-0.0710493
-0.0723462
-0.0735703
-0.0747008
-0.0757086
-0.0765731
-0.0772399
-0.0777284
-0.0778707
-0.0780047
-0.0772679
-0.0779245
-0.0756284
-0.0798755
-0.0779693
-0.000704729
-0.0022032
-0.00371895
-0.00531456
-0.00693235
-0.00854711
-0.0101345
-0.011673
-0.0131466
-0.0145428
-0.0158526
-0.0170715
-0.0181948
-0.0192218
-0.0201531
-0.0209906
-0.0217374
-0.0223975
-0.0229756
-0.0234772
-0.0239079
-0.024274
-0.024582
-0.0248386
-0.0250507
-0.0252252
-0.0253689
-0.0254888
-0.0255914
-0.0256832
-0.0257702
-0.025858
-0.0259519
-0.0260567
-0.0261766
-0.0263154
-0.0264765
-0.0266627
-0.0268763
-0.0271194
-0.0273935
-0.0276999
-0.0280396
-0.0284132
-0.0288211
-0.0292635
-0.0297403
-0.0302515
-0.0307969
-0.0313761
-0.0319884
-0.0326335
-0.0333107
-0.0340194
-0.034759
-0.035529
-0.0363296
-0.0371593
-0.0380176
-0.0389039
-0.0398192
-0.0407631
-0.041735
-0.0427348
-0.0437626
-0.0448183
-0.0459023
-0.0470147
-0.0481557
-0.0493255
-0.050524
-0.0517513
-0.053007
-0.0542906
-0.0556013
-0.0569376
-0.0582977
-0.059679
-0.0610785
-0.062492
-0.0639145
-0.0653397
-0.06676
-0.0681661
-0.0695469
-0.070889
-0.0721768
-0.0733906
-0.0745097
-0.0755033
-0.0763511
-0.0769929
-0.0774524
-0.0775413
-0.0776023
-0.076759
-0.0771389
-0.0748043
-0.0778358
-0.0761659
-0.00071817
-0.00221549
-0.00373256
-0.00531729
-0.00692226
-0.00852426
-0.0100999
-0.0116284
-0.0130936
-0.0144832
-0.0157884
-0.0170033
-0.0181238
-0.0191492
-0.0200798
-0.0209174
-0.021665
-0.0223266
-0.0229068
-0.023411
-0.023845
-0.0242149
-0.0245271
-0.0247883
-0.0250053
-0.0251849
-0.025334
-0.0254593
-0.0255673
-0.0256643
-0.0257563
-0.0258489
-0.0259471
-0.0260557
-0.026179
-0.0263206
-0.0264838
-0.0266715
-0.026886
-0.0271293
-0.0274029
-0.0277083
-0.0280462
-0.0284175
-0.0288225
-0.0292614
-0.0297344
-0.0302412
-0.0307819
-0.0313563
-0.0319635
-0.0326034
-0.0332754
-0.0339793
-0.0347144
-0.0354804
-0.0362767
-0.0371022
-0.0379575
-0.0388396
-0.0397509
-0.040691
-0.0416596
-0.0426566
-0.0436819
-0.0447357
-0.0458179
-0.0469287
-0.0480683
-0.0492366
-0.0504337
-0.0516593
-0.0529131
-0.0541945
-0.0555025
-0.0568357
-0.0581921
-0.0595692
-0.060964
-0.0623722
-0.0637889
-0.0652079
-0.0666216
-0.0680207
-0.0693944
-0.0707291
-0.0720091
-0.0732143
-0.0743239
-0.0753053
-0.0761386
-0.0767575
-0.0771889
-0.0772279
-0.0772187
-0.0762832
-0.0764005
-0.0740331
-0.0760853
-0.0744157
-0.000727889
-0.00222526
-0.00374326
-0.00531894
-0.00691295
-0.00850382
-0.0100691
-0.0115886
-0.0130463
-0.0144298
-0.0157305
-0.0169419
-0.0180598
-0.0190836
-0.0200134
-0.0208509
-0.0215991
-0.022262
-0.022844
-0.0233506
-0.0237875
-0.0241607
-0.0244768
-0.0247422
-0.0249637
-0.025148
-0.025302
-0.0254322
-0.0255452
-0.025647
-0.0257436
-0.0258405
-0.0259426
-0.0260548
-0.0261811
-0.0263251
-0.0264903
-0.0266792
-0.0268944
-0.0271376
-0.0274107
-0.0277148
-0.0280509
-0.0284198
-0.0288218
-0.0292574
-0.0297264
-0.0302289
-0.030765
-0.0313344
-0.0319367
-0.0325715
-0.033238
-0.0339355
-0.0346637
-0.0354225
-0.0362132
-0.0370338
-0.0378828
-0.0387623
-0.039671
-0.0406091
-0.0415758
-0.0425709
-0.0435944
-0.0446465
-0.0457273
-0.0468367
-0.0479749
-0.0491419
-0.0503375
-0.0515615
-0.0528135
-0.0540928
-0.0553983
-0.0567286
-0.0580818
-0.0594551
-0.0608457
-0.0622491
-0.0636606
-0.0650742
-0.0664822
-0.0678756
-0.0692433
-0.0705718
-0.0718455
-0.073044
-0.0741464
-0.0751188
-0.0759415
-0.0765431
-0.0769527
-0.0769523
-0.0768835
-0.0758756
-0.0757602
-0.0733616
-0.0746314
-0.0727649
-0.000734723
-0.00223264
-0.00375114
-0.00531944
-0.00690435
-0.00848581
-0.0100422
-0.0115539
-0.013005
-0.0143832
-0.0156801
-0.016888
-0.0180034
-0.0190255
-0.0199544
-0.0207917
-0.0215404
-0.0222042
-0.0227878
-0.0232965
-0.0237359
-0.0241121
-0.0244315
-0.0247006
-0.0249261
-0.0251147
-0.0252731
-0.0254078
-0.0255252
-0.0256314
-0.0257321
-0.0258329
-0.0259386
-0.0260539
-0.0261828
-0.026329
-0.0264958
-0.0266858
-0.0269013
-0.0271444
-0.0274167
-0.0277194
-0.0280536
-0.02842
-0.028819
-0.0292511
-0.0297164
-0.0302148
-0.0307464
-0.0313108
-0.0319075
-0.0325364
-0.0331986
-0.0338937
-0.0346205
-0.035378
-0.0361675
-0.036984
-0.0378332
-0.0387017
-0.0396046
-0.0405373
-0.0414993
-0.0424907
-0.0435112
-0.0445609
-0.0456395
-0.0467472
-0.047884
-0.0490495
-0.0502438
-0.0514664
-0.0527169
-0.0539944
-0.0552979
-0.0566257
-0.0579758
-0.0593454
-0.0607321
-0.0621313
-0.0635381
-0.0649464
-0.0663488
-0.0677363
-0.0690982
-0.0704211
-0.0716894
-0.0728828
-0.0739805
-0.0749474
-0.0757646
-0.0763562
-0.0767539
-0.0767277
-0.0766154
-0.0755574
-0.0752522
-0.0728218
-0.0734816
-0.0712651
-0.00073927
-0.00223774
-0.0037563
-0.00531879
-0.00689643
-0.00847024
-0.0100194
-0.0115244
-0.0129698
-0.0143433
-0.0156368
-0.0168414
-0.0179544
-0.0189753
-0.0199035
-0.0207405
-0.0214894
-0.0221539
-0.0227388
-0.0232491
-0.0236905
-0.0240693
-0.0243916
-0.0246639
-0.024893
-0.0250853
-0.0252476
-0.0253862
-0.0255076
-0.0256176
-0.025722
-0.0258262
-0.025935
-0.0260531
-0.0261843
-0.0263324
-0.0265004
-0.0266912
-0.026907
-0.0271498
-0.0274211
-0.0277223
-0.0280544
-0.0284181
-0.0288139
-0.029242
-0.0297025
-0.0301948
-0.0307226
-0.0312834
-0.0318769
-0.0325028
-0.0331575
-0.0338413
-0.0345565
-0.0353031
-0.0360796
-0.0368902
-0.0377284
-0.0386077
-0.0395084
-0.0404406
-0.0414019
-0.0423921
-0.0434112
-0.0444593
-0.0455365
-0.0466428
-0.047778
-0.0489419
-0.0501344
-0.0513551
-0.0526033
-0.0538783
-0.055179
-0.0565039
-0.0578509
-0.0592176
-0.0606003
-0.0619947
-0.0633968
-0.0648012
-0.0662002
-0.067585
-0.0689447
-0.070266
-0.0715337
-0.072727
-0.0738257
-0.0747937
-0.0756132
-0.0762043
-0.0766023
-0.0765661
-0.076433
-0.0753494
-0.0749097
-0.0724494
-0.0726515
-0.0699976
-0.000742011
-0.00224072
-0.00375888
-0.00531701
-0.0068892
-0.00845722
-0.0100008
-0.0115008
-0.0129419
-0.0143116
-0.0156005
-0.0168066
-0.017918
-0.0189359
-0.0198622
-0.0206982
-0.0214467
-0.0221114
-0.0226969
-0.0232084
-0.0236515
-0.0240322
-0.0243569
-0.024632
-0.0248641
-0.0250596
-0.0252253
-0.0253673
-0.0254921
-0.0256054
-0.0257131
-0.0258202
-0.0259317
-0.0260521
-0.0261852
-0.0263348
-0.0265039
-0.0266952
-0.0269111
-0.0271535
-0.0274239
-0.0277239
-0.0280544
-0.0284161
-0.0288098
-0.0292361
-0.0296957
-0.0301885
-0.0307072
-0.0312592
-0.0318436
-0.0324601
-0.0331116
-0.0337972
-0.034514
-0.0352618
-0.0360389
-0.036847
-0.0376871
-0.0385568
-0.0394551
-0.04038
-0.041335
-0.0423204
-0.043336
-0.0443813
-0.0454564
-0.046561
-0.047695
-0.0488581
-0.0500502
-0.0512705
-0.0525185
-0.0537933
-0.0550936
-0.0564177
-0.057763
-0.059126
-0.0605084
-0.0619027
-0.063304
-0.0647058
-0.0661013
-0.0674817
-0.068837
-0.0701541
-0.0714182
-0.072609
-0.073707
-0.0746756
-0.0754988
-0.0760935
-0.0764985
-0.0764691
-0.076354
-0.0752732
-0.0747765
-0.0722887
-0.0722014
-0.0690494
-0.00074283
-0.00224083
-0.00375787
-0.00531273
-0.00688101
-0.00844493
-0.00998396
-0.0114798
-0.0129169
-0.0142832
-0.0155693
-0.0167676
-0.0178775
-0.0188965
-0.0198233
-0.0206597
-0.0214088
-0.0220742
-0.0226609
-0.0231737
-0.0236184
-0.0240011
-0.0243279
-0.0246053
-0.0248399
-0.0250381
-0.0252065
-0.0253513
-0.0254789
-0.0255949
-0.0257051
-0.0258146
-0.0259282
-0.0260503
-0.0261848
-0.0263353
-0.0265048
-0.026696
-0.0269112
-0.0271522
-0.0274205
-0.0277173
-0.028044
-0.0284013
-0.0287894
-0.0292088
-0.0296591
-0.030141
-0.030661
-0.0312117
-0.0317939
-0.0324078
-0.0330523
-0.0337278
-0.0344344
-0.0351719
-0.0359398
-0.0367385
-0.0375668
-0.0384267
-0.0393243
-0.0402502
-0.0412048
-0.0421889
-0.0432026
-0.0442458
-0.0453186
-0.0464208
-0.0475522
-0.0487124
-0.0499012
-0.0511177
-0.0523615
-0.0536318
-0.0549275
-0.0562475
-0.0575891
-0.0589525
-0.060326
-0.0617101
-0.0631021
-0.0644984
-0.0658902
-0.0672693
-0.0686254
-0.0699456
-0.0712156
-0.0724149
-0.073525
-0.0745089
-0.075353
-0.0759705
-0.0764073
-0.0763946
-0.0762986
-0.0752244
-0.0747175
-0.0721733
-0.0718992
-0.0681878
0.0736195
0.0793231
0.0814015
0.0837664
0.0847264
0.0848354
0.0837472
0.0814204
0.0776136
0.0721123
0.0644886
0.0543811
0.040961
0.0236182
0.000425921
-0.0299787
-0.0734971
-0.130739
-0.216198
-0.318558
0.0679023
0.0733757
0.075308
0.0774339
0.0781761
0.0780534
0.0767348
0.0741719
0.0701311
0.0643963
0.0565647
0.0462038
0.032586
0.0149064
-0.00882707
-0.0404845
-0.0862659
-0.145315
-0.211037
-0.259407
0.0624279
0.0677216
0.0695003
0.071391
0.0718678
0.071446
0.069781
0.0668184
0.0623111
0.0560229
0.047539
0.0363771
0.0217445
0.00267961
-0.0228637
-0.0563794
-0.102227
-0.156451
-0.200325
-0.251428
0.0571443
0.0622477
0.0638646
0.0655261
0.0657372
0.0650088
0.062983
0.0596008
0.0546032
0.0477367
0.0385764
0.0266087
0.0110034
-0.00922529
-0.0359728
-0.0702152
-0.113666
-0.161633
-0.191273
-0.233641
0.0520217
0.0569111
0.0583563
0.0597939
0.0597561
0.0587443
0.0563942
0.0526453
0.0472341
0.0399008
0.0302241
0.0176815
0.00146043
-0.0193354
-0.046302
-0.0800632
-0.119582
-0.158809
-0.182387
-0.212536
0.0470607
0.0517196
0.0529858
0.0542035
0.053931
0.0526593
0.0500215
0.0459578
0.0402047
0.0325025
0.0224407
0.00950153
-0.00708554
-0.0280537
-0.0545285
-0.0868811
-0.12201
-0.150669
-0.173124
-0.188206
0.0422713
0.046687
0.0477717
0.0487734
0.0482767
0.0467622
0.0438627
0.0395202
0.0334748
0.025474
0.0151302
0.00196019
-0.0147336
-0.0354937
-0.06088
-0.0910128
-0.122161
-0.140951
-0.163222
-0.166606
0.0376609
0.0418183
0.0427231
0.0435125
0.0428013
0.0410582
0.0379186
0.0333267
0.0270297
0.0187854
0.00822957
-0.00508248
-0.0217713
-0.0421831
-0.0661925
-0.0933529
-0.120249
-0.132356
-0.152423
-0.148055
0.0332359
0.0371061
0.0378416
0.0384199
0.0375077
0.0355507
0.0321934
0.0273819
0.0208757
0.0124526
0.00179481
-0.0114499
-0.0277347
-0.0471717
-0.0690879
-0.0926717
-0.115661
-0.125525
-0.141001
-0.132718
0.0290052
0.0325393
0.0331318
0.0334922
0.0323927
0.0302305
0.0266722
0.0216622
0.0149776
0.00641519
-0.00431169
-0.0175168
-0.0335827
-0.0525105
-0.0731362
-0.094036
-0.113734
-0.123824
-0.136325
-0.118837
0.13982
0.148739
0.153082
0.158413
0.162669
0.166516
0.169679
0.172108
0.17363
0.174091
0.173231
0.170861
0.166484
0.159934
0.149987
0.136849
0.117949
0.0969459
0.0694158
0.0564829
0.131759
0.140562
0.144237
0.14909
0.152576
0.155529
0.157602
0.158744
0.158746
0.157419
0.154441
0.149593
0.14233
0.132517
0.118772
0.101596
0.0780083
0.0536444
0.0234419
0.0272339
0.124375
0.132903
0.136211
0.140711
0.143738
0.146195
0.147689
0.148198
0.147505
0.145439
0.141674
0.136007
0.127774
0.11689
0.101717
0.0831426
0.0572712
0.0317187
-0.00255525
0.00520896
0.117651
0.12581
0.12895
0.133175
0.135897
0.138032
0.139147
0.139238
0.138072
0.135476
0.131086
0.124687
0.115475
0.103408
0.0865187
0.0661106
0.0371832
0.00959512
-0.0292542
-0.0201308
0.11116
0.118941
0.121939
0.125895
0.128322
0.130131
0.130851
0.130484
0.128772
0.125523
0.120324
0.112949
0.102476
0.0889192
0.0699642
0.0473626
0.015008
-0.0148661
-0.057034
-0.0459883
0.104692
0.11211
0.114938
0.118608
0.120726
0.12218
0.122476
0.12162
0.119328
0.115401
0.109382
0.101054
0.0893991
0.0744944
0.0537034
0.0292193
-0.00609317
-0.0379234
-0.082888
-0.0709188
0.09825
0.105317
0.107964
0.111345
0.113161
0.11427
0.114166
0.112861
0.110056
0.105549
0.0988591
0.0897842
0.0772255
0.0612848
0.039044
0.0128889
-0.0252106
-0.0600143
-0.108228
-0.095861
0.091896
0.0986189
0.101095
0.104201
0.105745
0.106541
0.106094
0.104412
0.101195
0.0962396
0.0890432
0.0794171
0.0662012
0.0494474
0.0261396
-0.00138044
-0.0412914
-0.078424
-0.129816
-0.120694
0.0856695
0.0920515
0.0943754
0.0972213
0.0985288
0.099049
0.098315
0.0963259
0.0927882
0.0874948
0.0799369
0.0699284
0.0563086
0.0389421
0.0149575
-0.0142487
-0.0562706
-0.0996745
-0.155388
-0.156128
0.0795751
0.0856177
0.0878137
0.0904158
0.0915271
0.0918118
0.0908528
0.0886316
0.0848722
0.0793595
0.0715926
0.0613717
0.0475148
0.0297037
0.00569426
-0.0239457
-0.0647014
-0.107545
-0.162119
-0.149711
0.388549
0.387776
0.389082
0.388047
0.390089
0.388804
0.392141
0.390574
0.396172
0.394398
0.404131
0.402422
0.420133
0.41918
0.453533
0.454946
0.528022
0.537589
0.702233
0.763528
0.388547
0.387777
0.389079
0.388056
0.390087
0.388826
0.392147
0.390629
0.396206
0.394531
0.40424
0.402742
0.420433
0.419954
0.454306
0.456866
0.530038
0.541988
0.707813
0.756299
0.388544
0.387774
0.389073
0.388056
0.39008
0.388833
0.392141
0.390651
0.396206
0.394589
0.404262
0.402888
0.420511
0.420308
0.454505
0.457687
0.530436
0.543114
0.708103
0.743839
0.38854
0.38777
0.389065
0.388059
0.390068
0.38884
0.392127
0.390673
0.396194
0.394649
0.404266
0.403042
0.420565
0.420684
0.454659
0.45852
0.530629
0.543665
0.707187
0.724905
0.388535
0.387763
0.389054
0.388057
0.390051
0.388842
0.392103
0.390684
0.396163
0.394686
0.40423
0.403141
0.420524
0.420925
0.454569
0.458958
0.530054
0.542746
0.703535
0.699779
0.38853
0.387754
0.389041
0.388055
0.39003
0.38884
0.392071
0.390687
0.396114
0.394705
0.404158
0.403201
0.420408
0.421068
0.454292
0.459101
0.528866
0.540631
0.697439
0.668488
0.388523
0.387743
0.389025
0.38805
0.390004
0.388834
0.39203
0.39068
0.396048
0.394703
0.404049
0.403217
0.420212
0.421101
0.453813
0.458918
0.527012
0.53731
0.688698
0.630802
0.388516
0.387729
0.389007
0.388044
0.389974
0.388824
0.39198
0.390665
0.395963
0.394682
0.403903
0.403186
0.419932
0.421019
0.453126
0.458403
0.524495
0.532844
0.677044
0.586301
0.388509
0.387711
0.388987
0.388034
0.389941
0.388808
0.391925
0.390638
0.395867
0.394637
0.403728
0.403104
0.419579
0.420812
0.452236
0.457527
0.521309
0.527245
0.662372
0.534587
0.3885
0.387694
0.38896
0.388022
0.389896
0.388789
0.391848
0.390611
0.395739
0.394593
0.403512
0.403023
0.419174
0.420605
0.451268
0.456609
0.517789
0.521257
0.645486
0.474519
0.3885
0.387694
0.38896
0.388022
0.389896
0.388789
0.391849
0.390611
0.39574
0.394593
0.403513
0.403024
0.419175
0.420606
0.45127
0.456612
0.517792
0.521263
0.645492
0.474534
0.388509
0.387711
0.388987
0.388034
0.389942
0.388808
0.391925
0.390639
0.395868
0.394638
0.403728
0.403105
0.41958
0.420813
0.452237
0.457529
0.521312
0.52725
0.662377
0.5346
0.388516
0.387729
0.389007
0.388044
0.389974
0.388824
0.39198
0.390666
0.395964
0.394683
0.403903
0.403187
0.419933
0.42102
0.453128
0.458405
0.524497
0.532849
0.677048
0.586312
0.388523
0.387743
0.389025
0.38805
0.390004
0.388834
0.39203
0.390681
0.396048
0.394704
0.40405
0.403217
0.420213
0.421102
0.453814
0.45892
0.527014
0.537314
0.688701
0.630812
0.38853
0.387754
0.389041
0.388055
0.39003
0.38884
0.392071
0.390687
0.396114
0.394705
0.404158
0.403202
0.420409
0.421069
0.454293
0.459103
0.528867
0.540634
0.697442
0.668496
0.388535
0.387763
0.389054
0.388057
0.390051
0.388842
0.392104
0.390684
0.396163
0.394686
0.40423
0.403142
0.420525
0.420925
0.45457
0.458959
0.530055
0.542749
0.703538
0.699786
0.38854
0.38777
0.389065
0.388059
0.390068
0.38884
0.392127
0.390673
0.396194
0.394649
0.404266
0.403042
0.420565
0.420684
0.45466
0.458521
0.53063
0.543667
0.707189
0.724911
0.388544
0.387774
0.389074
0.388056
0.39008
0.388833
0.392141
0.390651
0.396206
0.394589
0.404263
0.402888
0.420512
0.420308
0.454505
0.457688
0.530437
0.543115
0.708104
0.743843
0.388547
0.387777
0.389079
0.388056
0.390087
0.388826
0.392147
0.390629
0.396206
0.394531
0.40424
0.402742
0.420434
0.419954
0.454306
0.456867
0.530038
0.541989
0.707813
0.756301
0.388549
0.387776
0.389082
0.388047
0.390089
0.388804
0.392141
0.390574
0.396172
0.394398
0.404131
0.402423
0.420133
0.41918
0.453533
0.454946
0.528023
0.537589
0.702233
0.763529
0.0795775
0.0856217
0.0878189
0.0904226
0.0915355
0.091822
0.0908649
0.0886458
0.0848887
0.0793782
0.0716138
0.061395
0.0475412
0.0297328
0.0057264
-0.02391
-0.0646617
-0.107501
-0.162068
-0.14966
0.0856726
0.0920561
0.0943812
0.0972286
0.0985377
0.0990596
0.0983275
0.0963404
0.0928047
0.0875135
0.079958
0.0699516
0.056334
0.0389709
0.014989
-0.0142138
-0.0562318
-0.099631
-0.155339
-0.15608
0.0918997
0.0986241
0.101101
0.104208
0.105754
0.106552
0.106107
0.104426
0.101211
0.0962582
0.0890641
0.0794401
0.0662263
0.0494756
0.0261705
-0.00134667
-0.0412537
-0.0783829
-0.12977
-0.12065
0.0982543
0.105323
0.10797
0.111353
0.113171
0.114281
0.114179
0.112875
0.110072
0.105568
0.0988797
0.0898069
0.0772503
0.0613123
0.0390741
0.0129216
-0.0251743
-0.0599752
-0.108184
-0.0958195
0.104697
0.112116
0.114945
0.118617
0.120735
0.122192
0.122489
0.121635
0.119345
0.115419
0.109402
0.101076
0.0894234
0.0745212
0.0537326
0.0292508
-0.00605826
-0.0378862
-0.0828468
-0.0708796
0.111165
0.118948
0.121947
0.125904
0.128332
0.130143
0.130864
0.130499
0.128788
0.125541
0.120344
0.112971
0.1025
0.0889452
0.0699924
0.0473929
0.0150413
-0.0148308
-0.0569951
-0.0459512
0.117656
0.125817
0.128958
0.133184
0.135907
0.138044
0.13916
0.139253
0.138089
0.135494
0.131106
0.124708
0.115498
0.103433
0.0865459
0.0661398
0.037215
0.00962876
-0.0292176
-0.0200954
0.124381
0.13291
0.136219
0.140721
0.143749
0.146207
0.147702
0.148212
0.147521
0.145457
0.141694
0.136028
0.127796
0.116914
0.101743
0.0831707
0.0573016
0.0317508
-0.0025206
0.00524287
0.131765
0.14057
0.144245
0.1491
0.152587
0.155541
0.157616
0.158759
0.158762
0.157437
0.15446
0.149614
0.142352
0.132541
0.118797
0.101623
0.0780374
0.0536752
0.0234748
0.0272667
0.139826
0.148747
0.15309
0.158423
0.16268
0.166528
0.169693
0.172122
0.173645
0.174108
0.173249
0.170881
0.166505
0.159957
0.150011
0.136874
0.117976
0.0969745
0.0694463
0.0565145
0.028998
0.0325345
0.0331291
0.0334921
0.0323954
0.0302364
0.0266817
0.0216756
0.0149953
0.0064373
-0.00428485
-0.017485
-0.033546
-0.0524688
-0.0730903
-0.0939874
-0.113684
-0.123776
-0.136273
-0.118785
0.03323
0.0371025
0.0378399
0.0384207
0.0375112
0.0355572
0.0322033
0.0273954
0.0208931
0.0124742
0.0018208
-0.0114194
-0.0276995
-0.0471317
-0.0690437
-0.0926241
-0.115611
-0.125476
-0.140951
-0.132666
0.0376561
0.0418158
0.0427223
0.0435141
0.0428054
0.0410653
0.0379287
0.0333403
0.0270469
0.0188065
0.00825479
-0.005053
-0.0217375
-0.0421448
-0.0661499
-0.0933064
-0.1202
-0.132306
-0.152372
-0.148002
0.0422676
0.0466854
0.0477719
0.0487759
0.0482815
0.0467697
0.0438732
0.0395339
0.0334919
0.0254947
0.0151547
0.00198868
-0.014701
-0.0354569
-0.0608389
-0.0909676
-0.122113
-0.140899
-0.163169
-0.166552
0.047058
0.051719
0.0529868
0.0542067
0.0539364
0.0526673
0.0500323
0.0459715
0.0402215
0.0325227
0.0224645
0.00952907
-0.00705418
-0.0280184
-0.054489
-0.0868374
-0.121962
-0.150616
-0.173071
-0.18815
0.05202
0.0569114
0.0583582
0.0597978
0.0597621
0.0587527
0.0564051
0.052659
0.0472508
0.0399206
0.0302473
0.0177081
0.00149063
-0.0193015
-0.046264
-0.0800211
-0.119535
-0.158757
-0.182333
-0.212478
0.0571435
0.0622488
0.0638672
0.0655306
0.0657437
0.0650175
0.0629941
0.0596145
0.0546197
0.047756
0.0385989
0.0266345
0.0110325
-0.00919273
-0.0359364
-0.0701747
-0.11362
-0.161582
-0.191219
-0.233584
0.062428
0.0677235
0.0695036
0.071396
0.0718747
0.071455
0.0697922
0.066832
0.0623272
0.0560417
0.0475607
0.0364019
0.0217725
0.00271073
-0.022829
-0.0563408
-0.102183
-0.156402
-0.20027
-0.251371
0.0679032
0.0733783
0.0753118
0.0774394
0.0781834
0.0780627
0.0767462
0.0741855
0.0701471
0.0644148
0.0565858
0.0462279
0.032613
0.0149362
-0.00879396
-0.0404478
-0.0862248
-0.145269
-0.210983
-0.25935
0.0736212
0.0793264
0.081406
0.0837725
0.0847343
0.0848451
0.0837589
0.0814343
0.0776297
0.0721307
0.0645097
0.0544048
0.0409876
0.0236474
0.000458248
-0.0299429
-0.0734572
-0.130695
-0.216145
-0.318498
-0.000743267
-0.0022419
-0.00375926
-0.00531395
-0.00688124
-0.00844298
-0.0099835
-0.0114796
-0.0129162
-0.0142818
-0.0155673
-0.0167664
-0.0178749
-0.0188911
-0.0198156
-0.0206501
-0.0213976
-0.0220619
-0.0226474
-0.0231595
-0.023604
-0.0239867
-0.0243139
-0.0245921
-0.0248277
-0.0250272
-0.0251972
-0.0253438
-0.0254732
-0.0255912
-0.0257034
-0.0258148
-0.0259304
-0.0260543
-0.0261905
-0.0263424
-0.0265132
-0.0267054
-0.0269212
-0.0271627
-0.0274316
-0.0277292
-0.0280561
-0.0284133
-0.0288015
-0.0292212
-0.029673
-0.0301575
-0.0306719
-0.0312185
-0.0317973
-0.0324082
-0.0330505
-0.0337243
-0.0344296
-0.0351661
-0.035933
-0.036731
-0.0375599
-0.0384196
-0.0393163
-0.0402409
-0.0411945
-0.0421785
-0.0431927
-0.0442368
-0.0453108
-0.0464144
-0.0475474
-0.0487094
-0.0499
-0.0511184
-0.0523639
-0.0536351
-0.0549307
-0.0562477
-0.0575867
-0.0589332
-0.0603171
-0.0617117
-0.0631119
-0.0645111
-0.0659047
-0.067284
-0.0686394
-0.0699581
-0.0712261
-0.0724232
-0.0735311
-0.074513
-0.0753552
-0.0759712
-0.0764068
-0.0763934
-0.0762973
-0.0752233
-0.0747167
-0.0721723
-0.0718976
-0.0681816
-0.000743528
-0.00224523
-0.00376564
-0.00532536
-0.00689853
-0.00846729
-0.0100063
-0.011502
-0.0129407
-0.0143068
-0.0155918
-0.0167895
-0.0178963
-0.0189106
-0.0198329
-0.0206651
-0.02141
-0.0220718
-0.0226551
-0.0231652
-0.0236078
-0.023989
-0.0243151
-0.0245925
-0.0248278
-0.0250274
-0.0251979
-0.0253454
-0.025476
-0.0255956
-0.0257097
-0.0258233
-0.0259411
-0.0260675
-0.0262063
-0.0263609
-0.0265343
-0.0267291
-0.0269476
-0.0271917
-0.0274628
-0.0277622
-0.028091
-0.02845
-0.0288398
-0.0292609
-0.0297136
-0.0301982
-0.0307146
-0.0312628
-0.0318431
-0.0324553
-0.0330996
-0.0337758
-0.0344839
-0.0352235
-0.0359947
-0.0367979
-0.0376335
-0.0385024
-0.0393995
-0.0403255
-0.0412831
-0.0422718
-0.0432913
-0.0443415
-0.0454224
-0.0465336
-0.047675
-0.0488457
-0.0500455
-0.0512736
-0.0525296
-0.0538119
-0.0551201
-0.0564555
-0.0578025
-0.0591857
-0.0605607
-0.0619468
-0.0633412
-0.0647375
-0.0661279
-0.0675037
-0.0688544
-0.070167
-0.0714268
-0.0726136
-0.0737079
-0.0746733
-0.0754939
-0.0760868
-0.0764905
-0.0764608
-0.0763448
-0.0752645
-0.0747681
-0.0722806
-0.0721932
-0.0690367
-0.00074174
-0.00224483
-0.00376672
-0.0053311
-0.00690886
-0.00848098
-0.0100275
-0.0115286
-0.0129677
-0.0143351
-0.0156204
-0.0168176
-0.0179232
-0.0189359
-0.0198561
-0.0206859
-0.0214284
-0.0220877
-0.0226685
-0.0231763
-0.0236169
-0.0239963
-0.0243209
-0.0245972
-0.0248317
-0.0250309
-0.0252013
-0.0253492
-0.0254805
-0.0256011
-0.0257164
-0.0258315
-0.025951
-0.0260792
-0.0262199
-0.0263764
-0.0265518
-0.0267485
-0.0269688
-0.0272145
-0.0274872
-0.027788
-0.0281179
-0.0284779
-0.0288685
-0.0292901
-0.0297433
-0.0302282
-0.0307447
-0.031293
-0.0318732
-0.0324854
-0.0331295
-0.0338055
-0.0345133
-0.0352527
-0.0360237
-0.0368263
-0.0376602
-0.0385258
-0.0394253
-0.0403583
-0.0413212
-0.0423152
-0.0433403
-0.0443962
-0.0454829
-0.0465999
-0.0477468
-0.0489232
-0.050129
-0.0513625
-0.0526219
-0.0539074
-0.0552175
-0.0565413
-0.0579066
-0.0592716
-0.0606577
-0.0620566
-0.0634601
-0.0648622
-0.0662565
-0.0676347
-0.0689864
-0.0702988
-0.0715573
-0.0727416
-0.073832
-0.0747926
-0.0756061
-0.0761928
-0.0765876
-0.0765503
-0.0764164
-0.0753339
-0.0748948
-0.0724354
-0.0726375
-0.0699791
-0.000738199
-0.00224264
-0.00376581
-0.00533685
-0.00692218
-0.00850179
-0.0100539
-0.0115592
-0.0130009
-0.0143712
-0.0156574
-0.0168542
-0.0179587
-0.0189696
-0.0198877
-0.0207149
-0.0214547
-0.0221112
-0.0226892
-0.0231943
-0.0236323
-0.0240095
-0.0243322
-0.0246069
-0.0248401
-0.0250385
-0.0252084
-0.0253561
-0.0254876
-0.0256087
-0.0257247
-0.0258408
-0.0259616
-0.0260912
-0.0262334
-0.0263915
-0.0265685
-0.0267668
-0.0269887
-0.0272359
-0.0275099
-0.0278119
-0.028143
-0.0285039
-0.0288953
-0.0293177
-0.0297714
-0.0302567
-0.0307737
-0.0313223
-0.031903
-0.0325158
-0.0331606
-0.0338376
-0.0345467
-0.035288
-0.0360615
-0.0368676
-0.0377067
-0.0385793
-0.0394802
-0.0404127
-0.0413802
-0.0423788
-0.0434085
-0.0444696
-0.0455622
-0.046686
-0.0478404
-0.0490243
-0.0502366
-0.0514768
-0.0527473
-0.0540417
-0.0553559
-0.0567124
-0.0580627
-0.0594398
-0.0608277
-0.0622251
-0.0636278
-0.0650297
-0.0664238
-0.0678013
-0.0691518
-0.0704625
-0.0717185
-0.0728999
-0.0739865
-0.0749438
-0.075753
-0.0763387
-0.0767324
-0.0767046
-0.0765915
-0.0755352
-0.075231
-0.0728022
-0.0734623
-0.0712411
-0.000732374
-0.00223812
-0.00376212
-0.0053413
-0.00693582
-0.00852421
-0.010084
-0.0115955
-0.0130433
-0.0144143
-0.0157018
-0.0168988
-0.0180023
-0.0190115
-0.0199273
-0.0207519
-0.0214887
-0.022142
-0.022717
-0.023219
-0.0236542
-0.0240287
-0.024349
-0.0246216
-0.0248532
-0.0250502
-0.0252191
-0.0253661
-0.0254973
-0.0256184
-0.0257348
-0.0258515
-0.0259731
-0.0261037
-0.026247
-0.0264064
-0.0265847
-0.0267844
-0.0270075
-0.0272559
-0.0275311
-0.0278342
-0.0281662
-0.0285279
-0.0289199
-0.0293428
-0.0297969
-0.0302825
-0.0307997
-0.0313486
-0.0319296
-0.0325426
-0.0331879
-0.0338654
-0.0345752
-0.0353174
-0.0360921
-0.0368993
-0.0377391
-0.0386111
-0.0395122
-0.040455
-0.0414244
-0.0424269
-0.0434625
-0.04453
-0.0456288
-0.0467584
-0.0479181
-0.0491078
-0.0503304
-0.0515805
-0.0528501
-0.0541484
-0.0554847
-0.0568197
-0.0581876
-0.0595695
-0.0609639
-0.062368
-0.0637761
-0.0651822
-0.0665796
-0.0679597
-0.0693123
-0.0706246
-0.071882
-0.0730647
-0.0741527
-0.0751126
-0.0759252
-0.0765194
-0.0769241
-0.0769218
-0.0768522
-0.0758468
-0.0757328
-0.0733365
-0.0746071
-0.072736
-0.000723673
-0.00223123
-0.0037556
-0.0053446
-0.00695017
-0.00854913
-0.0101181
-0.0116369
-0.0130897
-0.0144638
-0.0157534
-0.0169507
-0.0180535
-0.0190611
-0.0199745
-0.0207962
-0.0215298
-0.0221798
-0.0227513
-0.02325
-0.0236819
-0.0240534
-0.0243709
-0.0246411
-0.0248705
-0.0250656
-0.0252331
-0.025379
-0.0255094
-0.0256301
-0.0257464
-0.0258633
-0.0259852
-0.0261165
-0.0262606
-0.0264209
-0.0266002
-0.0268009
-0.0270251
-0.0272745
-0.0275506
-0.0278546
-0.0281873
-0.0285496
-0.0289422
-0.0293655
-0.0298199
-0.0303057
-0.0308231
-0.0313722
-0.0319534
-0.0325667
-0.0332124
-0.0338906
-0.0346014
-0.0353449
-0.0361213
-0.0369309
-0.0377739
-0.0386506
-0.03956
-0.0404895
-0.0414739
-0.0424845
-0.0435239
-0.0445957
-0.0457005
-0.0468378
-0.0480073
-0.0492063
-0.0504266
-0.0516738
-0.0529663
-0.0542814
-0.055604
-0.0569573
-0.0583266
-0.059713
-0.0611115
-0.0625188
-0.06393
-0.0653391
-0.0667392
-0.0681218
-0.0694767
-0.0707915
-0.0720514
-0.0732374
-0.0743295
-0.0752959
-0.076117
-0.0767273
-0.077153
-0.07719
-0.0771802
-0.0762478
-0.0763672
-0.0740029
-0.0760562
-0.0743825
-0.000711262
-0.00222186
-0.0037462
-0.00534684
-0.00696533
-0.00857651
-0.0101561
-0.0116832
-0.013142
-0.0145203
-0.0158117
-0.0170096
-0.0181116
-0.0191176
-0.0200285
-0.0208472
-0.0215775
-0.0222239
-0.0227917
-0.0232867
-0.023715
-0.0240831
-0.0243975
-0.0246648
-0.0248916
-0.0250845
-0.0252501
-0.0253945
-0.0255238
-0.0256436
-0.0257594
-0.025876
-0.025998