/*--------------------------------*- C++ -*----------------------------------*\
  =========                 |
  \\      /  F ield         | OpenFOAM: The Open Source CFD Toolbox
   \\    /   O peration     | Website:  https://openfoam.org
    \\  /    A nd           | Version:  7
     \\/     M anipulation  |
\*---------------------------------------------------------------------------*/
FoamFile
{
    version     2.0;
    format      ascii;
    class       volVectorField;
    location    "120";
    object      U;
}
// * * * * * * * * * * * * * * * * * * * * * * * * * * * * * * * * * * * * * //

dimensions      [0 1 -1 0 0 0 0];

internalField   nonuniform List<vector> 
125
(
(0.896398 -0.0517737 2.46978e-21)
(0.899101 -0.0512495 3.46698e-20)
(0.900692 -0.0505211 -3.32669e-20)
(0.903606 -0.0495958 -2.14106e-19)
(0.906106 -0.0484579 -8.63694e-20)
(0.909295 -0.0471817 -9.23213e-19)
(0.912381 -0.0457084 -4.15573e-19)
(0.915859 -0.0441028 -1.20644e-18)
(0.919361 -0.0423188 -4.39134e-19)
(0.923111 -0.0403976 -1.46615e-18)
(0.926933 -0.0383103 -2.91787e-19)
(0.930927 -0.0360788 -2.00649e-18)
(0.935009 -0.0336851 -5.06635e-19)
(0.939222 -0.0311375 -2.32106e-18)
(0.943523 -0.0284217 -8.50433e-20)
(0.947928 -0.0255342 -1.74848e-18)
(0.884287 -0.0531509 9.97827e-20)
(0.886525 -0.0532577 2.16989e-19)
(0.887685 -0.0527205 2.80493e-19)
(0.889948 -0.0521584 3.29918e-19)
(0.891842 -0.0512228 2.11193e-19)
(0.894289 -0.0502044 -2.6511e-19)
(0.896629 -0.0489195 -3.73371e-20)
(0.899265 -0.0475177 -1.13557e-19)
(0.901891 -0.0459045 2.64231e-19)
(0.904687 -0.0441558 6.72587e-19)
(0.907505 -0.0422245 2.0569e-18)
(0.910424 -0.0401473 1.37221e-18)
(0.913371 -0.0379005 9.34004e-19)
(0.916382 -0.0354989 -7.57578e-19)
(0.919418 -0.0329274 7.24281e-20)
(0.922494 -0.030186 -1.89167e-19)
(0.858627 -0.0537436 -8.54072e-20)
(0.85944 -0.0540941 -1.42896e-19)
(0.859918 -0.0535824 -3.67845e-19)
(0.860868 -0.0531934 -1.66078e-19)
(0.861692 -0.0522794 -6.60422e-19)
(0.862775 -0.0513485 7.60167e-20)
(0.863809 -0.0500749 -1.73897e-19)
(0.86498 -0.0487049 -1.94212e-19)
(0.866126 -0.0470847 -3.5559e-19)
(0.867339 -0.0453297 -7.94944e-19)
(0.868532 -0.0433704 -1.79999e-18)
(0.869754 -0.0412584 -3.24042e-19)
(0.87096 -0.038962 -2.28229e-18)
(0.872179 -0.0365016 4.20108e-19)
(0.87339 -0.0338592 -5.64378e-19)
(0.874616 -0.0310368 -6.80406e-19)
(0.81914 -0.0536448 -9.49772e-20)
(0.817877 -0.054099 -1.65168e-19)
(0.817536 -0.0535858 -2.30719e-19)
(0.81674 -0.0533011 -1.771e-19)
(0.816255 -0.0523923 -2.98965e-19)
(0.815636 -0.0515174 -8.25743e-20)
(0.8151 -0.0502484 -2.50714e-19)
(0.814521 -0.0489005 -3.01319e-19)
(0.813939 -0.0472811 -4.39237e-19)
(0.813334 -0.0455323 -6.70442e-19)
(0.8127 -0.0435737 -7.9758e-19)
(0.812047 -0.0414678 -5.06933e-19)
(0.811369 -0.0391824 -9.26961e-19)
(0.810684 -0.0367443 -9.88385e-21)
(0.809996 -0.0341395 -6.95044e-19)
(0.809327 -0.0313765 -6.34707e-19)
(0.767169 -0.0526833 -1.98167e-19)
(0.763584 -0.0531513 -3.65684e-19)
(0.762403 -0.0526049 -7.66853e-19)
(0.759753 -0.052349 -5.51359e-19)
(0.757939 -0.0514194 -1.33638e-18)
(0.755592 -0.0505468 -3.61427e-19)
(0.753501 -0.0492581 -7.54026e-19)
(0.751211 -0.047893 -8.32834e-19)
(0.748971 -0.0462508 -1.114e-18)
(0.74665 -0.0444786 -1.69043e-18)
(0.744322 -0.0424988 -3.07258e-18)
(0.741962 -0.0403744 -1.26804e-18)
(0.739598 -0.0380776 -3.77342e-18)
(0.737244 -0.0356355 -5.57192e-19)
(0.734919 -0.0330378 -1.53921e-18)
(0.732654 -0.0302936 -1.5559e-18)
(0.705121 -0.0507952 -1.1745e-19)
(0.699304 -0.0512145 -2.26829e-19)
(0.697352 -0.0506109 -3.6311e-19)
(0.693015 -0.05033 -7.26529e-19)
(0.690001 -0.0493683 -1.3223e-18)
(0.686138 -0.0484611 -2.91217e-18)
(0.682689 -0.0471471 -2.8727e-18)
(0.67894 -0.0457469 -3.43931e-18)
(0.6753 -0.0440826 -3.23184e-18)
(0.671556 -0.0422854 -2.98678e-18)
(0.66784 -0.0402945 -7.25128e-19)
(0.664105 -0.0381654 -1.97388e-18)
(0.660402 -0.0358804 -3.21164e-18)
(0.656739 -0.0334645 -6.14355e-18)
(0.65315 -0.0309139 -5.12776e-18)
(0.649663 -0.0282397 -5.2744e-18)
(0.635796 -0.0480634 -4.13851e-20)
(0.628067 -0.0484137 -1.73031e-19)
(0.625462 -0.047738 3.4267e-19)
(0.619774 -0.047408 -9.86656e-19)
(0.615773 -0.0464198 2.04827e-19)
(0.610737 -0.0454644 -2.9671e-18)
(0.606216 -0.0441359 -1.33023e-18)
(0.601362 -0.0427022 -3.29463e-18)
(0.596657 -0.0410304 -1.24689e-18)
(0.591859 -0.0392219 -3.3673e-18)
(0.58712 -0.0372406 -3.27554e-19)
(0.582389 -0.0351292 -3.94742e-18)
(0.577725 -0.0328824 -1.66212e-18)
(0.573135 -0.0305215 -5.81677e-18)
(0.568656 -0.0280492 -1.67986e-18)
(0.564318 -0.0254768 -4.86273e-18)
(0.561891 -0.0446362 2.02543e-19)
(0.552682 -0.0449404 6.87958e-19)
(0.549568 -0.0441832 1.04162e-18)
(0.542936 -0.0438032 8.96606e-19)
(0.538191 -0.0428036 9.69148e-19)
(0.532365 -0.041802 -1.21127e-18)
(0.527085 -0.0404751 -3.89066e-19)
(0.521499 -0.03902 -9.00025e-19)
(0.516075 -0.0373582 2.62363e-20)
(0.510591 -0.0355569 2.8552e-19)
(0.505188 -0.0336052 4.02179e-18)
(0.499824 -0.0315333 2.4968e-18)
(0.494553 -0.0293468 2.39843e-18)
)
;

boundaryField
{
    inlet
    {
        type            uniformFixedValue;
        uniformValue    constant (1 0 0);
        value           nonuniform 0();
    }
    outlet
    {
        type            pressureInletOutletVelocity;
        value           nonuniform List<vector> 8((0.896398 -0.0517737 2.46978e-21) (0.884287 -0.0531509 9.97827e-20) (0.858627 -0.0537436 -8.54072e-20) (0.81914 -0.0536448 -9.49772e-20) (0.767169 -0.0526833 -1.98167e-19) (0.705121 -0.0507952 -1.1745e-19) (0.635796 -0.0480634 -4.13851e-20) (0.561891 -0.0446362 2.02543e-19));
    }
    polygon
    {
        type            fixedValue;
        value           nonuniform 0();
    }
    top
    {
        type            symmetryPlane;
    }
    bottom
    {
        type            symmetryPlane;
    }
    outside
    {
        type            zeroGradient;
    }
    procBoundary63to55
    {
        type            processor;
        value           nonuniform List<vector> 
17
(
(0.489386 -0.0270635 -2.19838e-18)
(0.484357 -0.0246916 -3.71362e-19)
(0.479495 -0.0222425 -9.58151e-19)
(0.485718 -0.040682 -3.13087e-22)
(0.475468 -0.0409997 -1.9689e-20)
(0.472001 -0.0401571 7.61733e-19)
(0.464823 -0.0397416 -5.98894e-19)
(0.459582 -0.0387515 1.22121e-18)
(0.45333 -0.0377162 -2.01341e-18)
(0.447595 -0.0364072 -1.40689e-19)
(0.441617 -0.0349482 -2.3223e-18)
(0.435799 -0.033312 -3.50878e-20)
(0.42996 -0.0315368 -2.79374e-18)
(0.424216 -0.0296314 3.72446e-20)
(0.418538 -0.0276174 -3.38507e-18)
(0.489386 -0.0270635 -2.19838e-18)
(0.412972 -0.0255078 -7.95628e-21)
)
;
    }
    procBoundary63to62
    {
        type            processor;
        value           nonuniform List<vector> 7((0.952417 -0.0224581 1.21331e-18) (0.925594 -0.0272573 5.59865e-19) (0.875857 -0.0280166 -1.33263e-18) (0.808696 -0.0284447 -1.24921e-18) (0.730479 -0.0273947 -2.19109e-18) (0.646315 -0.0254404 -3.23181e-18) (0.560157 -0.0228074 7.42083e-19));
    }
}


// ************************************************************************* //
