/*--------------------------------*- C++ -*----------------------------------*\
  =========                 |
  \\      /  F ield         | OpenFOAM: The Open Source CFD Toolbox
   \\    /   O peration     | Website:  https://openfoam.org
    \\  /    A nd           | Version:  7
     \\/     M anipulation  |
\*---------------------------------------------------------------------------*/
FoamFile
{
    version     2.0;
    format      ascii;
    class       surfaceScalarField;
    location    "28";
    object      phi;
}
// * * * * * * * * * * * * * * * * * * * * * * * * * * * * * * * * * * * * * //

dimensions      [0 3 -1 0 0 0 0];

internalField   nonuniform List<scalar> 
224
(
0.000429345
-8.96661e-05
0.000107819
0.000409444
-0.000107403
0.000127305
0.000387756
-0.000127052
0.000148739
0.000364224
-0.000149256
0.000172788
0.000338778
-0.000174815
0.000200261
0.000311354
-0.000204853
0.000232278
0.000281933
-0.000240667
0.000270088
0.000250567
-0.000284305
0.000315672
0.000217633
-0.000337698
0.000370632
0.000183374
-0.00040469
0.000438949
0.000150202
-0.000488402
0.000521573
0.000117835
-0.000588963
0.00062133
9.48696e-05
-0.000721482
0.000744448
7.33788e-05
-0.000815565
0.000837056
5.03905e-05
-0.000959685
0.000982674
-0.000560258
0.000610648
0.000505104
-7.3877e-05
0.000487476
-8.97741e-05
0.00046792
-0.000107497
0.000446315
0.000422503
0.000396294
0.000367493
0.000335879
0.000301452
0.000263921
0.00022456
0.000182587
0.000142468
9.97062e-05
4.09449e-05
0.000570586
0.000554938
-0.00791972
-0.00142672
-0.00843441
-0.00160146
-0.00895865
-0.00181067
-0.00949188
-0.00204745
-0.00239533
-0.00258006
-0.000393618
-0.00274469
-0.000425981
-0.00291788
-0.000459222
-0.00310088
-0.000493826
-0.00329526
-0.000530319
-0.00350307
-0.00056925
-0.00372704
-0.000611179
-0.00397088
-0.000656679
-0.00423961
-0.000706381
-0.0045401
-0.000760951
-0.00488135
-0.000821308
-0.00527481
-0.000889
-0.00573374
-0.000967793
-0.00627316
-0.00106204
-0.00688884
-0.00119499
-0.00762093
-0.00131537
-0.00163545
-0.00145006
-0.000277608
-0.00157071
-0.000305333
-0.00169621
-0.00033372
-0.00182687
-0.000363171
-0.00196307
-0.000394116
-0.00210534
-0.000426982
-0.00225438
-0.000462132
-0.00241127
-0.000499791
-0.00257766
-0.000539995
-0.00275635
-0.000582264
-0.00295207
-0.000625578
-0.00317382
-0.000667255
-0.00343488
-0.000706735
-0.00377133
-0.000725588
-0.00420413
-0.000762187
-0.00482612
-0.000693385
-0.000781023
-0.000529433
-0.000193306
-0.000617017
-0.000217749
-0.000707647
-0.000243091
-0.000801068
-0.000269749
-0.000896967
-0.000298217
-0.000994903
-0.000329045
-0.00109424
-0.000362793
-0.00119409
-0.000399941
-0.00129315
-0.000440936
-0.00138977
-0.000485649
-0.0014814
-0.00053395
-0.00156675
-0.0005819
-0.00164105
-0.000632435
-0.00171284
-0.0006538
-0.00179946
-0.000675569
-0.00192077
-0.000572075
-0.000359073
0.000199431
-0.000132774
0.00013583
-0.000154148
6.95044e-05
-0.000176765
8.36735e-07
-0.000201082
-6.96755e-05
-0.000227705
-0.000141388
-0.000257332
-0.000213331
-0.00029085
-0.000284098
-0.000329175
-0.00035147
-0.000373564
-0.000412314
-0.000424804
-0.000461198
-0.000485066
-0.000490996
-0.000552102
-0.000492581
-0.00063085
-0.000438864
-0.000707518
-0.000351462
-0.000762971
-8.90928e-05
-0.000834444
-0.000460751
0.000761221
0.000714891
0.000665431
0.000613089
0.000558172
0.0005011
0.000442528
0.000383441
0.000325548
0.000271376
0.000225259
0.00019473
0.00018521
0.00022214
0.000296225
0.000444455
)
;

boundaryField
{
    inlet
    {
        type            calculated;
        value           nonuniform 0();
    }
    outlet
    {
        type            calculated;
        value           nonuniform 0();
    }
    polygon
    {
        type            calculated;
        value           uniform 0;
    }
    top
    {
        type            symmetryPlane;
        value           uniform 0;
    }
    bottom
    {
        type            symmetryPlane;
        value           uniform 0;
    }
    outside
    {
        type            calculated;
        value           nonuniform 0();
    }
    procBoundary42to33
    {
        type            processor;
        value           nonuniform List<scalar> 4(-0.00568054 -0.00234272 1.25849e-05 0.000594352);
    }
    procBoundary42to34
    {
        type            processor;
        value           nonuniform List<scalar> 
17
(
-0.000127651
-0.000151003
-0.000178644
-0.000211866
-0.000252691
-0.000303271
-0.000367158
-0.000449041
-0.000546989
-0.000681364
-0.000772803
-0.000900924
-0.000519313
-6.01414e-05
-7.41263e-05
0.000537245
-8.9803e-05
)
;
    }
    procBoundary42to35
    {
        type            processor;
        value           uniform -0.000584322;
    }
    procBoundary42to41
    {
        type            processor;
        value           nonuniform List<scalar> 2(-0.00996395 -0.0083808);
    }
    procBoundary42to43
    {
        type            processor;
        value           nonuniform List<scalar> 8(-0.000447498 -8.98038e-05 -0.000520894 0.00242301 0.00133405 0.000445131 -0.000259962 -0.000804191);
    }
    procBoundary42to50
    {
        type            processor;
        value           nonuniform List<scalar> 
18
(
0.00191899
0.00211616
0.0023349
0.00258069
0.0028674
0.000550667
0.000590611
0.000632417
0.000676824
0.000724699
0.000777062
0.000835151
0.000900511
0.000975118
0.00106144
0.00116255
0.00742745
0.00128247
)
;
    }
}


// ************************************************************************* //
