/*--------------------------------*- C++ -*----------------------------------*\
  =========                 |
  \\      /  F ield         | OpenFOAM: The Open Source CFD Toolbox
   \\    /   O peration     | Website:  https://openfoam.org
    \\  /    A nd           | Version:  7
     \\/     M anipulation  |
\*---------------------------------------------------------------------------*/
FoamFile
{
    version     2.0;
    format      ascii;
    class       volScalarField;
    location    "56";
    object      p;
}
// * * * * * * * * * * * * * * * * * * * * * * * * * * * * * * * * * * * * * //

dimensions      [0 2 -2 0 0 0 0];

internalField   nonuniform List<scalar> 
7360
(
-0.00121284
-0.00364926
-0.00602295
-0.00831484
-0.0104555
-0.0123664
-0.0139915
-0.0152863
-0.0162178
-0.0167648
-0.0169161
-0.0166695
-0.0160295
-0.0150055
-0.0136129
-0.0118717
-0.00980527
-0.00743944
-0.00480175
-0.00192074
0.00117446
0.00445449
0.00788991
0.0114512
0.0151088
0.018833
0.022594
0.0263619
0.0301067
0.0337985
0.037408
0.0409068
0.0442678
0.0474659
0.0504786
0.0532862
0.0558725
0.0582253
0.0603365
0.0622019
0.063822
0.0652009
0.0663464
0.0672692
0.0679824
0.0685007
0.0688399
0.069016
0.0690451
0.0689434
0.0687244
0.0684012
0.0679861
0.0674903
0.0669236
0.0662945
0.0656106
0.0648781
0.0641023
0.0632873
0.0624363
0.0615521
0.0606387
0.0596959
0.0587238
0.0577241
0.056697
0.0556421
0.0545597
0.0534512
0.0523187
0.0511618
0.049975
0.0487662
0.0475348
0.0462822
0.0450106
0.0437227
0.042422
0.0411126
0.0397999
0.0384902
0.0371912
0.0359125
0.0346653
0.033464
0.0323249
0.0312699
0.0303211
0.0295167
0.0288742
0.0284837
0.0282828
0.0285837
0.02884
0.0303848
0.0306597
0.0339312
0.0335309
0.0374955
-0.00121045
-0.00363822
-0.00600384
-0.00828358
-0.0104116
-0.012312
-0.0139288
-0.0152176
-0.0161452
-0.0166903
-0.0168415
-0.0165961
-0.0159587
-0.0149383
-0.0135503
-0.0118144
-0.00975385
-0.0073943
-0.00476316
-0.00188886
0.0011996
0.00447293
0.00790175
0.0114566
0.015108
0.0188263
0.0225816
0.0263442
0.0300839
0.0337711
0.0373764
0.0408713
0.044229
0.0474244
0.0504348
0.0532407
0.055826
0.0581783
0.0602896
0.0621559
0.0637773
0.0651582
0.0663062
0.067232
0.0679486
0.0684707
0.068814
0.0689943
0.0690276
0.0689293
0.0687136
0.0683937
0.0679817
0.0674889
0.0669248
0.0662983
0.0656167
0.0648864
0.0641127
0.0633
0.0624517
0.0615698
0.0606563
0.0597138
0.0587431
0.0577447
0.056719
0.0556665
0.0545875
0.0534821
0.0523497
0.0511913
0.0500088
0.0488015
0.0475715
0.0463205
0.0450506
0.0437646
0.0424658
0.0411585
0.039848
0.0385405
0.037244
0.0359678
0.0347234
0.033525
0.0323892
0.0313379
0.0303933
0.029594
0.0289574
0.0285744
0.0283855
0.0287039
0.0290117
0.03056
0.0309914
0.0341931
0.0340157
0.0381497
-0.00122101
-0.00369999
-0.00611091
-0.0084615
-0.0106625
-0.012623
-0.0142872
-0.01561
-0.016559
-0.0171144
-0.017266
-0.0170128
-0.0163596
-0.0153172
-0.0139022
-0.0121351
-0.0100402
-0.00764408
-0.00497479
-0.00206147
0.00106629
0.00437873
0.00784605
0.0114385
0.0151262
0.0188793
0.0226677
0.0264614
0.03023
0.0339437
0.0375729
0.041089
0.0444647
0.0476748
0.0506966
0.0535103
0.0560998
0.0584527
0.0605609
0.0624205
0.0640319
0.0653996
0.0665315
0.0674388
0.0681349
0.0686349
0.0689551
0.0691117
0.0691218
0.0690018
0.068765
0.0684249
0.067994
0.0674834
0.0669031
0.0662614
0.0655659
0.0648228
0.0640372
0.0632131
0.0623536
0.0614608
0.0605454
0.0595985
0.0586194
0.0576142
0.0565825
0.0555198
0.0544278
0.0533094
0.0521693
0.0510061
0.0498153
0.0485998
0.0473614
0.0461015
0.0448224
0.0435267
0.042218
0.0409005
0.0395794
0.0382609
0.0369529
0.0356647
0.0344076
0.0331955
0.0320446
0.0309762
0.0300118
0.0291877
0.0285211
0.0280977
0.0278408
0.0280843
0.0281472
0.0297144
0.0292454
0.0329038
0.03085
0.0335565
-0.00121685
-0.00367055
-0.00605954
-0.00837549
-0.0105407
-0.0124718
-0.014113
-0.0154193
-0.0163581
-0.0169087
-0.0170603
-0.016811
-0.0161656
-0.0151341
-0.0137323
-0.0119805
-0.00990237
-0.00752411
-0.00487347
-0.00197924
0.0011293
0.00442262
0.00787112
0.0114452
0.0151151
0.0188512
0.0226234
0.0264018
0.0301563
0.0338569
0.0374742
0.0409798
0.0443465
0.0475491
0.0505651
0.0533748
0.055962
0.0583144
0.060424
0.0622867
0.063903
0.0652772
0.0664171
0.0673337
0.0680403
0.0685517
0.0688838
0.069053
0.0690749
0.0689649
0.0687378
0.068407
0.0679849
0.0674826
0.06691
0.0662758
0.0655872
0.0648508
0.0640717
0.0632543
0.0624024
0.0615196
0.0605992
0.0596514
0.0586774
0.0576754
0.056646
0.0555915
0.0545119
0.0534055
0.052268
0.0511016
0.0499158
0.0487049
0.0474708
0.0462155
0.0449412
0.0436507
0.0423474
0.0410356
0.0397204
0.0384082
0.0371068
0.0358256
0.0345759
0.0333718
0.0322296
0.0311707
0.0302167
0.0294047
0.0287508
0.0283445
0.0281164
0.0284063
0.028604
0.0301712
0.0301544
0.033534
0.0324033
0.0351496
-0.00122008
-0.00377636
-0.00624288
-0.00868773
-0.0109934
-0.0130314
-0.0147557
-0.0161204
-0.0170947
-0.0176605
-0.0178094
-0.0175427
-0.0168661
-0.0157926
-0.0143397
-0.0125296
-0.0103877
-0.00794143
-0.00522004
-0.00225344
0.000928069
0.00429409
0.00781426
0.0114583
0.0151959
0.0189967
0.0228303
0.0266662
0.0304737
0.0342225
0.0378827
0.0414253
0.0448228
0.0480498
0.0510833
0.0539035
0.0564941
0.058843
0.060942
0.0627875
0.0643804
0.0657255
0.0668314
0.0677098
0.0683749
0.0688422
0.0691285
0.0692515
0.0692317
0.0690814
0.0688148
0.0684462
0.0679885
0.0674529
0.0668493
0.0661863
0.0654712
0.0647103
0.0639085
0.0630698
0.0621973
0.0612935
0.0603618
0.0594014
0.0584121
0.0573962
0.0563539
0.0552833
0.0541847
0.0530595
0.0519087
0.0507325
0.0495305
0.0483037
0.0470537
0.045782
0.0444909
0.0431832
0.0418625
0.0405328
0.0391996
0.0378692
0.0365492
0.0352491
0.0339799
0.0327552
0.031591
0.0305073
0.0295252
0.0286768
0.0279809
0.0275126
0.0272016
0.0273659
0.0272052
0.0287837
0.0271759
0.0316143
0.0257258
0.0279317
-0.00122298
-0.0037352
-0.00617265
-0.00856991
-0.0108155
-0.012812
-0.0145043
-0.0158467
-0.0168078
-0.0173686
-0.0175198
-0.0172605
-0.0165964
-0.0155395
-0.0141068
-0.0123198
-0.0102031
-0.0077837
-0.0050903
-0.00215234
0.00100026
0.00433745
0.00782919
0.0114454
0.0151562
0.0189312
0.0227405
0.0265535
0.0303399
0.0340695
0.0377126
0.0412404
0.0446256
0.0478428
0.0508693
0.0536853
0.0562747
0.058625
0.0607284
0.062581
0.0641836
0.0655408
0.0666609
0.0675555
0.0682382
0.0687245
0.0690311
0.0691746
0.0691708
0.0690345
0.0687821
0.0684277
0.0679839
0.0674617
0.0668711
0.0662206
0.0655177
0.0647684
0.0639778
0.06315
0.0622882
0.0613944
0.0604668
0.0595108
0.05853
0.0575198
0.0564807
0.0554177
0.0543297
0.0532143
0.05207
0.0508982
0.0497017
0.048481
0.047237
0.0459717
0.0446872
0.0433863
0.0420724
0.04075
0.0394242
0.0381014
0.0367893
0.0354974
0.034237
0.0330218
0.0318679
0.0307959
0.0298267
0.0289942
0.0283134
0.0278647
0.0275721
0.0278009
0.0277914
0.0293759
0.0283909
0.0323202
0.0284887
0.0295354
-0.00118534
-0.00386588
-0.00640267
-0.00898935
-0.0114034
-0.013527
-0.0153179
-0.0167261
-0.0177238
-0.0182964
-0.0184379
-0.0181463
-0.0174319
-0.0163116
-0.0148045
-0.012934
-0.0107268
-0.00821196
-0.00541954
-0.00238052
0.000873905
0.0043125
0.00790411
0.0116177
0.0154221
0.0192864
0.0231793
0.0270695
0.0309259
0.0347172
0.038413
0.041984
0.0454022
0.0486419
0.05168
0.0544968
0.0570762
0.0594063
0.0614796
0.0632932
0.0648489
0.0661526
0.0672141
0.0680461
0.0686641
0.069085
0.069327
0.0694086
0.0693419
0.0691436
0.0688313
0.0684215
0.0679265
0.0673573
0.0667236
0.0660336
0.0652946
0.0645124
0.0636915
0.0628356
0.0619474
0.061029
0.0600819
0.0591068
0.058104
0.057074
0.0560169
0.0549324
0.0538205
0.0526815
0.0515159
0.050324
0.0491065
0.0478644
0.0465991
0.0453127
0.0440073
0.0426862
0.0413529
0.0400122
0.0386696
0.0373319
0.0360073
0.0347055
0.0334384
0.0322201
0.0310669
0.0299989
0.0290375
0.0282106
0.027538
0.027065
0.0267506
0.0268627
0.0266377
0.027992
0.0253404
0.0298868
0.016991
0.0227868
-0.00120804
-0.00381997
-0.00631919
-0.00883994
-0.0111828
-0.0132688
-0.0150284
-0.0164157
-0.0174024
-0.0179719
-0.0181166
-0.0178373
-0.0171428
-0.0160475
-0.0145695
-0.0127315
-0.0105596
-0.00808201
-0.00532827
-0.00232879
0.000885731
0.00428455
0.00783697
0.0115124
0.0152802
0.0191097
0.0229701
0.0268307
0.0306604
0.0344287
0.0381053
0.0416611
0.0450685
0.0483018
0.051338
0.0541573
0.0567436
0.0590846
0.0611727
0.0630046
0.0645814
0.0659085
0.066995
0.0678531
0.0684975
0.0689444
0.069211
0.069314
0.069271
0.0690992
0.0688141
0.0684298
0.0679583
0.067411
0.0667975
0.0661264
0.0654046
0.0646383
0.0638321
0.0629897
0.0621142
0.0612072
0.0602701
0.0593042
0.0583106
0.057289
0.0562397
0.0551634
0.0540601
0.0529295
0.0517714
0.0505865
0.0493758
0.0481403
0.0468812
0.0456003
0.0443
0.042983
0.0416529
0.0403142
0.0389721
0.0376333
0.0363057
0.0349988
0.0337241
0.0324956
0.0313298
0.030247
0.0292695
0.0284288
0.0277466
0.0272868
0.026977
0.0271285
0.0269502
0.0284849
0.0263356
0.0311024
0.0216343
0.0237627
0.133572
0.137096
0.13769
0.137954
0.13682
0.134612
0.131061
0.126084
0.11948
0.111045
0.100553
0.0876911
0.0719608
0.0535878
0.032674
0.0063762
-0.0240022
-0.0389085
-0.0586028
-0.0371153
0.129008
0.1323
0.132716
0.132755
0.131394
0.128931
0.1251
0.119821
0.112895
0.104112
0.0932068
0.079786
0.063154
0.0433944
0.021555
-0.00390671
-0.0313906
-0.0421967
-0.0439024
-0.00534382
0.144615
0.148467
0.149496
0.15019
0.149527
0.147808
0.144781
0.140342
0.134284
0.126375
0.116298
0.103615
0.087778
0.0685314
0.0444171
0.0137842
-0.0215064
-0.0510901
-0.0773652
-0.0900326
0.138769
0.142458
0.14327
0.143742
0.142837
0.140867
0.137569
0.132849
0.126495
0.118276
0.107887
0.0948877
0.0787601
0.0597554
0.03754
0.010344
-0.018982
-0.0351811
-0.0589268
-0.0564751
0.158013
0.162258
0.163712
0.16486
0.164717
0.163527
0.161067
0.157215
0.151759
0.144446
0.134898
0.122665
0.107052
0.0873615
0.0618654
0.0297383
-0.0127798
-0.0597913
-0.0953661
-0.138144
0.151024
0.155053
0.156299
0.157213
0.156803
0.155337
0.15258
0.148416
0.142631
0.134976
0.125089
0.112529
0.0967473
0.0773548
0.0529567
0.0230145
-0.0134787
-0.0504736
-0.0744128
-0.0991919
0.173404
0.17821
0.180095
0.181726
0.182162
0.181568
0.179741
0.176551
0.171781
0.165164
0.156295
0.14471
0.129556
0.11016
0.0844096
0.0512444
0.00476558
-0.0489315
-0.110874
-0.165131
0.16547
0.169972
0.171643
0.173012
0.173155
0.17225
0.170094
0.166557
0.161423
0.154429
0.145182
0.133233
0.11784
0.0983408
0.0730343
0.040917
-0.00279682
-0.0515973
-0.0947736
-0.134829
0.190262
0.195826
0.198181
0.200463
0.20154
0.201666
0.200582
0.198147
0.194181
0.188441
0.180472
0.169879
0.155622
0.137448
0.111938
0.0804946
0.0325366
-0.0215674
-0.10465
-0.160545
0.181679
0.186842
0.188958
0.190892
0.191631
0.191371
0.189889
0.187052
0.182651
0.176423
0.167946
0.156782
0.141991
0.123093
0.0973935
0.0649689
0.0183553
-0.0344309
-0.102322
-0.141764
0.207494
0.214015
0.216792
0.2198
0.221488
0.22247
0.222307
0.220929
0.218142
0.213792
0.207321
0.198482
0.185955
0.170505
0.146781
0.121879
0.0739646
0.032531
-0.0646918
-0.103695
0.198914
0.204938
0.207516
0.210178
0.211585
0.212145
0.211514
0.209548
0.206101
0.20097
0.193621
0.183755
0.170144
0.153189
0.12824
0.10029
0.0525007
0.00735076
-0.0785186
-0.106709
0.224125
0.231827
0.23472
0.238384
0.24041
0.241892
0.242236
0.241674
0.239788
0.236331
0.231111
0.22402
0.213879
0.201883
0.182509
0.1658
0.122996
0.110524
0.00865199
0.0473299
0.2158
0.222895
0.225755
0.229075
0.230906
0.232183
0.232326
0.231515
0.229339
0.225644
0.220006
0.21225
0.200991
0.187381
0.165401
0.144993
0.0987793
0.0763766
-0.0208051
0.00502147
0.241997
0.250659
0.2542
0.259171
0.262816
0.265787
0.267906
0.269181
0.269316
0.268138
0.265479
0.261259
0.254942
0.247356
0.236569
0.228759
0.213782
0.225891
0.200505
0.331713
0.232903
0.241208
0.244186
0.24844
0.251083
0.253016
0.253859
0.253664
0.252024
0.248772
0.243751
0.236869
0.227371
0.21624
0.200166
0.187136
0.158783
0.163216
0.102157
0.217134
0.503578
0.502744
0.504043
0.503139
0.505027
0.503995
0.507074
0.505985
0.511125
0.510275
0.519166
0.51927
0.535309
0.537958
0.56843
0.576603
0.63819
0.650777
0.776
0.654311
0.503565
0.502725
0.504015
0.503134
0.504984
0.503996
0.507017
0.506009
0.511068
0.510365
0.519146
0.519533
0.535416
0.53861
0.568743
0.577781
0.637558
0.649107
0.759856
0.601127
0.5036
0.502771
0.504085
0.503157
0.505089
0.504016
0.50717
0.506003
0.511271
0.510268
0.519385
0.519196
0.53568
0.537792
0.569378
0.576901
0.642479
0.658704
0.803188
0.762933
0.503588
0.502761
0.504063
0.503152
0.505055
0.50401
0.507114
0.505999
0.511185
0.510276
0.519255
0.519236
0.535464
0.537882
0.568852
0.576781
0.640145
0.654605
0.789238
0.711976
0.503617
0.50279
0.504117
0.50317
0.505137
0.504033
0.507243
0.506018
0.511381
0.510267
0.519551
0.519143
0.535957
0.537645
0.570041
0.576954
0.645189
0.664161
0.818731
0.848419
0.503609
0.502784
0.504102
0.503167
0.505114
0.504028
0.507205
0.506013
0.51132
0.510266
0.519451
0.519153
0.535771
0.537661
0.569578
0.576763
0.643425
0.660948
0.81037
0.811891
0.503625
0.502798
0.504132
0.503177
0.505159
0.504041
0.507276
0.506026
0.511431
0.510269
0.519628
0.519122
0.536084
0.537576
0.570336
0.576953
0.646296
0.666659
0.824631
0.888836
0.503622
0.502796
0.504127
0.503176
0.505151
0.50404
0.507262
0.506024
0.511409
0.510268
0.519591
0.519124
0.536015
0.537579
0.570162
0.57688
0.645666
0.665461
0.821876
0.875715
0.503622
0.502796
0.504127
0.503176
0.505151
0.50404
0.507262
0.506024
0.511409
0.510268
0.519591
0.519124
0.536015
0.537579
0.570162
0.57688
0.645666
0.665461
0.821876
0.875715
0.503625
0.502798
0.504132
0.503177
0.505159
0.504041
0.507276
0.506026
0.511431
0.510269
0.519628
0.519122
0.536084
0.537576
0.570336
0.576953
0.646296
0.666659
0.824631
0.888836
0.503609
0.502784
0.504102
0.503167
0.505114
0.504028
0.507205
0.506013
0.51132
0.510266
0.519451
0.519153
0.535771
0.537661
0.569578
0.576763
0.643425
0.660948
0.81037
0.811891
0.503617
0.50279
0.504117
0.50317
0.505137
0.504033
0.507243
0.506018
0.511381
0.510267
0.519551
0.519143
0.535957
0.537645
0.570041
0.576954
0.645189
0.664161
0.818731
0.848419
0.503588
0.502761
0.504063
0.503152
0.505055
0.50401
0.507114
0.505999
0.511185
0.510276
0.519255
0.519236
0.535464
0.537882
0.568852
0.576781
0.640145
0.654605
0.789238
0.711976
0.5036
0.502771
0.504085
0.503157
0.505089
0.504016
0.50717
0.506003
0.511271
0.510268
0.519385
0.519196
0.53568
0.537792
0.569378
0.576901
0.642479
0.658704
0.803188
0.762933
0.503565
0.502725
0.504015
0.503134
0.504984
0.503996
0.507017
0.506009
0.511068
0.510365
0.519146
0.519533
0.535416
0.53861
0.568743
0.577781
0.637558
0.649107
0.759856
0.601127
0.503578
0.502744
0.504043
0.503139
0.505027
0.503995
0.507074
0.505985
0.511125
0.510275
0.519166
0.51927
0.535309
0.537958
0.56843
0.576603
0.63819
0.650777
0.776
0.654311
0.232903
0.241208
0.244186
0.24844
0.251083
0.253016
0.253859
0.253664
0.252024
0.248772
0.243751
0.236869
0.227371
0.216239
0.200166
0.187136
0.158783
0.163216
0.102157
0.217134
0.241997
0.250659
0.2542
0.259171
0.262816
0.265787
0.267906
0.269181
0.269316
0.268138
0.265479
0.261259
0.254942
0.247356
0.236569
0.228759
0.213782
0.225891
0.200505
0.331713
0.2158
0.222895
0.225755
0.229075
0.230906
0.232183
0.232326
0.231515
0.229339
0.225644
0.220006
0.212249
0.200991
0.187381
0.165401
0.144993
0.0987793
0.0763766
-0.0208051
0.00502142
0.224125
0.231827
0.23472
0.238384
0.24041
0.241892
0.242236
0.241674
0.239788
0.236331
0.231111
0.22402
0.213879
0.201883
0.182509
0.165799
0.122996
0.110524
0.00865194
0.0473298
0.198914
0.204938
0.207516
0.210178
0.211585
0.212145
0.211514
0.209548
0.206101
0.20097
0.193621
0.183755
0.170144
0.153189
0.12824
0.10029
0.0525007
0.0073507
-0.0785186
-0.106709
0.207494
0.214015
0.216792
0.2198
0.221488
0.22247
0.222307
0.220929
0.218142
0.213792
0.207321
0.198482
0.185955
0.170505
0.146781
0.121879
0.0739646
0.0325309
-0.0646919
-0.103695
0.181679
0.186842
0.188958
0.190892
0.191631
0.191371
0.189889
0.187052
0.182651
0.176423
0.167946
0.156782
0.141991
0.123093
0.0973935
0.0649689
0.0183552
-0.0344309
-0.102322
-0.141764
0.190262
0.195826
0.198181
0.200463
0.201539
0.201666
0.200582
0.198147
0.194181
0.188441
0.180472
0.169879
0.155622
0.137448
0.111938
0.0804945
0.0325365
-0.0215675
-0.10465
-0.160545
0.16547
0.169972
0.171643
0.173012
0.173155
0.17225
0.170094
0.166557
0.161423
0.154429
0.145182
0.133233
0.11784
0.0983408
0.0730343
0.0409169
-0.00279688
-0.0515974
-0.0947736
-0.134829
0.173404
0.17821
0.180095
0.181726
0.182162
0.181568
0.179741
0.176551
0.171781
0.165164
0.156295
0.14471
0.129556
0.11016
0.0844095
0.0512443
0.00476553
-0.0489315
-0.110874
-0.165132
0.151024
0.155053
0.156299
0.157213
0.156803
0.155337
0.15258
0.148416
0.142631
0.134976
0.125089
0.112529
0.0967473
0.0773547
0.0529566
0.0230144
-0.0134787
-0.0504737
-0.0744128
-0.099192
0.158013
0.162258
0.163712
0.16486
0.164717
0.163527
0.161067
0.157215
0.151759
0.144446
0.134898
0.122665
0.107052
0.0873614
0.0618653
0.0297382
-0.0127799
-0.0597913
-0.0953662
-0.138144
0.138769
0.142458
0.14327
0.143742
0.142837
0.140867
0.137569
0.132849
0.126495
0.118276
0.107887
0.0948877
0.0787601
0.0597553
0.03754
0.010344
-0.0189821
-0.0351812
-0.0589268
-0.0564752
0.144615
0.148467
0.149496
0.15019
0.149527
0.147808
0.144781
0.140342
0.134284
0.126375
0.116298
0.103615
0.0877779
0.0685313
0.0444171
0.0137841
-0.0215064
-0.0510901
-0.0773653
-0.0900327
0.129008
0.1323
0.132716
0.132755
0.131394
0.128931
0.1251
0.119821
0.112895
0.104112
0.0932068
0.0797859
0.0631539
0.0433944
0.021555
-0.00390676
-0.0313906
-0.0421967
-0.0439024
-0.00534386
0.133572
0.137095
0.13769
0.137954
0.13682
0.134612
0.131061
0.126084
0.11948
0.111045
0.100553
0.0876911
0.0719607
0.0535877
0.032674
0.00637615
-0.0240022
-0.0389085
-0.0586028
-0.0371154
-0.00120804
-0.00381998
-0.0063192
-0.00883995
-0.0111828
-0.0132688
-0.0150284
-0.0164157
-0.0174024
-0.0179719
-0.0181167
-0.0178373
-0.0171429
-0.0160476
-0.0145696
-0.0127316
-0.0105597
-0.00808209
-0.00532834
-0.00232886
0.000885665
0.00428449
0.00783692
0.0115123
0.0152801
0.0191097
0.0229701
0.0268307
0.0306605
0.0344287
0.0381054
0.0416612
0.0450686
0.0483019
0.0513381
0.0541574
0.0567437
0.0590847
0.0611728
0.0630047
0.0645815
0.0659086
0.0669951
0.0678532
0.0684976
0.0689445
0.0692111
0.069314
0.0692711
0.0690992
0.0688141
0.0684298
0.0679583
0.067411
0.0667975
0.0661263
0.0654046
0.0646382
0.063832
0.0629896
0.0621141
0.0612071
0.06027
0.0593041
0.0583105
0.0572889
0.0562396
0.0551634
0.0540601
0.0529294
0.0517714
0.0505865
0.0493759
0.0481403
0.0468812
0.0456004
0.0443
0.042983
0.041653
0.0403142
0.0389722
0.0376334
0.0363057
0.0349988
0.0337241
0.0324957
0.0313298
0.030247
0.0292695
0.0284288
0.0277466
0.0272867
0.0269769
0.0271285
0.0269501
0.0284849
0.0263356
0.0311023
0.0216343
0.0237627
-0.00118534
-0.00386589
-0.00640268
-0.00898936
-0.0114035
-0.013527
-0.015318
-0.0167261
-0.0177238
-0.0182964
-0.0184379
-0.0181464
-0.017432
-0.0163117
-0.0148046
-0.0129341
-0.0107269
-0.00821204
-0.00541963
-0.0023806
0.000873831
0.00431243
0.00790405
0.0116176
0.0154221
0.0192864
0.0231793
0.0270696
0.0309259
0.0347172
0.0384131
0.041984
0.0454023
0.048642
0.0516801
0.0544969
0.0570763
0.0594064
0.0614797
0.0632933
0.0648491
0.0661528
0.0672142
0.0680462
0.0686642
0.0690851
0.0693271
0.0694087
0.0693419
0.0691437
0.0688313
0.0684215
0.0679265
0.0673573
0.0667235
0.0660335
0.0652945
0.0645123
0.0636914
0.0628355
0.0619473
0.0610289
0.0600818
0.0591067
0.058104
0.057074
0.0560168
0.0549323
0.0538205
0.0526815
0.0515159
0.050324
0.0491065
0.0478644
0.0465992
0.0453127
0.0440074
0.0426863
0.041353
0.0400123
0.0386697
0.037332
0.0360073
0.0347056
0.0334385
0.0322201
0.0310669
0.0299989
0.0290375
0.0282106
0.027538
0.0270649
0.0267506
0.0268627
0.0266377
0.027992
0.0253403
0.0298868
0.016991
0.0227867
-0.00122298
-0.0037352
-0.00617265
-0.00856992
-0.0108155
-0.012812
-0.0145043
-0.0158468
-0.0168079
-0.0173687
-0.0175198
-0.0172605
-0.0165964
-0.0155395
-0.0141069
-0.0123199
-0.0102031
-0.00778376
-0.00509035
-0.0021524
0.00100021
0.00433741
0.00782915
0.0114454
0.0151561
0.0189312
0.0227405
0.0265535
0.0303399
0.0340695
0.0377126
0.0412404
0.0446256
0.0478429
0.0508694
0.0536854
0.0562747
0.0586251
0.0607284
0.0625811
0.0641837
0.0655409
0.066661
0.0675555
0.0682382
0.0687246
0.0690311
0.0691746
0.0691708
0.0690345
0.0687821
0.0684277
0.0679839
0.0674617
0.0668711
0.0662206
0.0655176
0.0647683
0.0639777
0.0631499
0.0622881
0.0613943
0.0604667
0.0595107
0.0585299
0.0575197
0.0564806
0.0554177
0.0543297
0.0532143
0.05207
0.0508982
0.0497017
0.048481
0.047237
0.0459717
0.0446872
0.0433863
0.0420725
0.04075
0.0394242
0.0381014
0.0367893
0.0354975
0.034237
0.0330218
0.0318679
0.0307959
0.0298267
0.0289942
0.0283134
0.0278646
0.0275721
0.0278008
0.0277914
0.0293759
0.0283909
0.0323202
0.0284887
0.0295354
-0.00122008
-0.00377636
-0.00624289
-0.00868774
-0.0109934
-0.0130314
-0.0147557
-0.0161204
-0.0170947
-0.0176605
-0.0178094
-0.0175428
-0.0168662
-0.0157926
-0.0143398
-0.0125297
-0.0103877
-0.00794149
-0.0052201
-0.0022535
0.000928011
0.00429404
0.00781421
0.0114582
0.0151958
0.0189967
0.0228303
0.0266662
0.0304737
0.0342226
0.0378827
0.0414253
0.0448229
0.0480498
0.0510834
0.0539036
0.0564942
0.0588431
0.0609421
0.0627876
0.0643805
0.0657256
0.0668315
0.0677099
0.068375
0.0688423
0.0691286
0.0692516
0.0692318
0.0690814
0.0688148
0.0684462
0.0679885
0.0674528
0.0668492
0.0661862
0.0654712
0.0647103
0.0639085
0.0630697
0.0621972
0.0612934
0.0603617
0.0594013
0.058412
0.0573961
0.0563538
0.0552833
0.0541847
0.0530595
0.0519087
0.0507325
0.0495305
0.0483038
0.0470537
0.045782
0.0444909
0.0431833
0.0418625
0.0405329
0.0391997
0.0378693
0.0365493
0.0352491
0.0339799
0.0327553
0.031591
0.0305073
0.0295252
0.0286768
0.0279809
0.0275126
0.0272016
0.0273658
0.0272051
0.0287837
0.0271759
0.0316143
0.0257257
0.0279317
-0.00121685
-0.00367055
-0.00605954
-0.0083755
-0.0105407
-0.0124719
-0.014113
-0.0154193
-0.0163581
-0.0169087
-0.0170603
-0.0168111
-0.0161656
-0.0151341
-0.0137323
-0.0119805
-0.0099024
-0.00752414
-0.0048735
-0.00197927
0.00112927
0.0044226
0.0078711
0.0114452
0.0151151
0.0188512
0.0226234
0.0264018
0.0301563
0.0338569
0.0374743
0.0409798
0.0443465
0.0475492
0.0505652
0.0533748
0.055962
0.0583145
0.060424
0.0622867
0.063903
0.0652772
0.0664172
0.0673338
0.0680403
0.0685517
0.0688839
0.069053
0.069075
0.0689649
0.0687378
0.068407
0.0679849
0.0674826
0.06691
0.0662757
0.0655872
0.0648507
0.0640716
0.0632542
0.0624023
0.0615196
0.0605992
0.0596514
0.0586773
0.0576754
0.056646
0.0555915
0.0545119
0.0534055
0.052268
0.0511017
0.0499158
0.0487049
0.0474708
0.0462155
0.0449412
0.0436507
0.0423474
0.0410356
0.0397204
0.0384082
0.0371068
0.0358256
0.0345759
0.0333718
0.0322296
0.0311707
0.0302167
0.0294047
0.0287508
0.0283444
0.0281164
0.0284063
0.028604
0.0301712
0.0301544
0.033534
0.0324033
0.0351496
-0.00122101
-0.00369999
-0.00611092
-0.0084615
-0.0106625
-0.012623
-0.0142872
-0.01561
-0.0165591
-0.0171145
-0.0172661
-0.0170128
-0.0163596
-0.0153173
-0.0139022
-0.0121352
-0.0100403
-0.00764412
-0.00497483
-0.00206152
0.00106625
0.00437869
0.00784602
0.0114384
0.0151262
0.0188792
0.0226677
0.0264614
0.0302301
0.0339438
0.037573
0.041089
0.0444647
0.0476748
0.0506966
0.0535104
0.0560999
0.0584528
0.060561
0.0624206
0.064032
0.0653996
0.0665316
0.0674388
0.0681349
0.068635
0.0689551
0.0691117
0.0691218
0.0690018
0.068765
0.0684249
0.067994
0.0674834
0.066903
0.0662614
0.0655659
0.0648228
0.0640372
0.0632131
0.0623535
0.0614607
0.0605453
0.0595984
0.0586194
0.0576142
0.0565824
0.0555197
0.0544277
0.0533094
0.0521693
0.0510061
0.0498153
0.0485998
0.0473614
0.0461015
0.0448224
0.0435268
0.0422181
0.0409005
0.0395794
0.038261
0.0369529
0.0356647
0.0344076
0.0331955
0.0320446
0.0309762
0.0300118
0.0291877
0.0285211
0.0280977
0.0278408
0.0280843
0.0281472
0.0297144
0.0292454
0.0329038
0.03085
0.0335565
-0.00121045
-0.00363823
-0.00600384
-0.00828358
-0.0104116
-0.012312
-0.0139288
-0.0152176
-0.0161452
-0.0166903
-0.0168415
-0.0165961
-0.0159587
-0.0149384
-0.0135503
-0.0118144
-0.00975385
-0.00739431
-0.00476317
-0.00188887
0.00119959
0.00447292
0.00790175
0.0114566
0.015108
0.0188263
0.0225816
0.0263442
0.0300839
0.0337711
0.0373764
0.0408713
0.044229
0.0474244
0.0504348
0.0532407
0.055826
0.0581783
0.0602896
0.0621559
0.0637773
0.0651582
0.0663062
0.067232
0.0679486
0.0684707
0.068814
0.0689943
0.0690276
0.0689293
0.0687136
0.0683937
0.0679817
0.0674889
0.0669248
0.0662983
0.0656167
0.0648864
0.0641127
0.0633
0.0624517
0.0615698
0.0606563
0.0597138
0.0587431
0.0577447
0.056719
0.0556665
0.0545875
0.0534821
0.0523498
0.0511914
0.0500088
0.0488015
0.0475715
0.0463205
0.0450506
0.0437646
0.0424658
0.0411585
0.039848
0.0385405
0.037244
0.0359678
0.0347234
0.033525
0.0323892
0.0313379
0.0303933
0.029594
0.0289574
0.0285744
0.0283855
0.0287039
0.0290117
0.03056
0.0309914
0.0341931
0.0340157
0.0381497
-0.00121284
-0.00364927
-0.00602295
-0.00831484
-0.0104555
-0.0123664
-0.0139915
-0.0152863
-0.0162178
-0.0167648
-0.0169161
-0.0166696
-0.0160296
-0.0150056
-0.0136129
-0.0118717
-0.00980529
-0.00743946
-0.00480177
-0.00192076
0.00117444
0.00445448
0.00788989
0.0114512
0.0151088
0.018833
0.022594
0.0263619
0.0301067
0.0337985
0.037408
0.0409068
0.0442678
0.0474659
0.0504786
0.0532862
0.0558725
0.0582254
0.0603365
0.062202
0.0638221
0.0652009
0.0663464
0.0672692
0.0679824
0.0685008
0.0688399
0.069016
0.0690451
0.0689434
0.0687244
0.0684012
0.0679861
0.0674903
0.0669236
0.0662945
0.0656106
0.0648781
0.0641023
0.0632873
0.0624363
0.0615521
0.0606386
0.0596958
0.0587238
0.0577241
0.056697
0.0556421
0.0545597
0.0534512
0.0523187
0.0511617
0.049975
0.0487663
0.0475349
0.0462822
0.0450106
0.0437227
0.042422
0.0411127
0.0398
0.0384902
0.0371913
0.0359125
0.0346654
0.033464
0.0323249
0.0312699
0.0303211
0.0295167
0.0288742
0.0284837
0.0282828
0.0285837
0.02884
0.0303848
0.0306597
0.0339312
0.0335308
0.0374955
0.502114
0.501858
0.501745
0.501363
0.500932
0.50015
0.49919
0.497781
0.495838
0.493417
0.489657
0.4847
0.476978
0.467294
0.451932
0.43394
0.404715
0.374278
0.324346
0.279692
0.502171
0.501867
0.501853
0.501426
0.501143
0.500329
0.499631
0.498218
0.496718
0.494258
0.491088
0.486394
0.479472
0.470603
0.456134
0.439898
0.410993
0.383418
0.331707
0.289654
0.502226
0.501886
0.501944
0.501494
0.501308
0.500488
0.499932
0.498565
0.497269
0.494959
0.492151
0.487787
0.48144
0.473251
0.45956
0.444492
0.416144
0.390177
0.337262
0.296534
0.502292
0.50191
0.502049
0.501572
0.501504
0.500667
0.500331
0.498959
0.49803
0.495753
0.493483
0.489367
0.483835
0.476267
0.463663
0.449758
0.422247
0.397931
0.343612
0.304322
0.502365
0.501941
0.502163
0.501659
0.501713
0.500864
0.500731
0.499383
0.4988
0.496607
0.494912
0.491063
0.486461
0.479499
0.468208
0.455372
0.429052
0.406124
0.350467
0.312366
0.502445
0.501977
0.502284
0.501754
0.501934
0.501073
0.501162
0.49983
0.499621
0.497509
0.496446
0.492849
0.489311
0.482917
0.473178
0.461315
0.436573
0.414784
0.357927
0.320695
0.502531
0.502019
0.50241
0.501856
0.502165
0.501292
0.501608
0.500295
0.50048
0.49845
0.498073
0.494714
0.492371
0.486504
0.478578
0.467582
0.444868
0.423955
0.366155
0.329422
0.50262
0.502065
0.502542
0.501963
0.502403
0.50152
0.502068
0.500775
0.501368
0.499424
0.499773
0.496645
0.495616
0.490232
0.484415
0.474168
0.453994
0.433667
0.375352
0.338594
0.502713
0.502114
0.502676
0.502074
0.502645
0.501754
0.502536
0.501266
0.502275
0.500422
0.501529
0.498632
0.499011
0.494076
0.490672
0.481079
0.464004
0.44395
0.38577
0.348214
0.502807
0.502167
0.502812
0.502187
0.502888
0.501991
0.503006
0.501763
0.503191
0.501435
0.503319
0.500659
0.502519
0.498025
0.497306
0.48833
0.474964
0.454841
0.397708
0.358259
0.502902
0.502222
0.502948
0.502302
0.503131
0.502229
0.503475
0.502261
0.504106
0.502453
0.505121
0.502713
0.506098
0.502068
0.504265
0.495875
0.486995
0.466395
0.411531
0.368678
0.502996
0.502279
0.503082
0.502416
0.50337
0.502465
0.503936
0.502754
0.50501
0.503468
0.506914
0.504776
0.509703
0.506189
0.511464
0.5037
0.500145
0.478731
0.427689
0.379353
0.503087
0.502336
0.503214
0.502528
0.503602
0.502697
0.504385
0.503239
0.505893
0.504469
0.508675
0.506831
0.513287
0.51036
0.51881
0.511807
0.514367
0.492114
0.446715
0.390104
0.503175
0.502393
0.503341
0.502636
0.503826
0.502921
0.504817
0.503709
0.506744
0.505446
0.510383
0.508856
0.516803
0.51455
0.526201
0.52021
0.529567
0.506804
0.469239
0.400757
0.503257
0.50245
0.503463
0.50274
0.504039
0.503136
0.505228
0.504159
0.507554
0.506386
0.512018
0.510829
0.520204
0.518717
0.533527
0.528897
0.545537
0.522886
0.496208
0.41135
0.503333
0.502506
0.503577
0.502838
0.50424
0.503338
0.505613
0.504584
0.508316
0.50728
0.513561
0.512725
0.523445
0.522814
0.540678
0.537813
0.562018
0.540567
0.528349
0.422354
0.5034
0.502559
0.503683
0.502927
0.504425
0.503526
0.505969
0.504978
0.509021
0.508113
0.514996
0.514514
0.526487
0.526774
0.547544
0.546855
0.578747
0.560049
0.566321
0.435114
0.503458
0.502617
0.503781
0.503008
0.504593
0.503694
0.506293
0.505334
0.509663
0.50887
0.516307
0.516161
0.529293
0.530514
0.554024
0.555859
0.595427
0.581468
0.610731
0.452458
0.503505
0.502654
0.503869
0.503073
0.504745
0.50384
0.506582
0.505647
0.510236
0.509546
0.517479
0.51765
0.531827
0.533973
0.559999
0.564654
0.611571
0.604918
0.660465
0.482884
0.503537
0.502735
0.503932
0.503155
0.504863
0.503992
0.506819
0.50595
0.510714
0.510173
0.518481
0.519009
0.534028
0.537151
0.565315
0.573032
0.626711
0.629835
0.713951
0.543943
0.503537
0.502735
0.503932
0.503155
0.504863
0.503992
0.506819
0.50595
0.510714
0.510173
0.518481
0.519009
0.534028
0.537151
0.565315
0.573032
0.626711
0.629835
0.713951
0.543943
0.503505
0.502654
0.503869
0.503073
0.504745
0.50384
0.506582
0.505647
0.510236
0.509546
0.517479
0.51765
0.531827
0.533973
0.559999
0.564654
0.611571
0.604918
0.660465
0.482884
0.503458
0.502617
0.503781
0.503008
0.504593
0.503694
0.506293
0.505334
0.509663
0.50887
0.516307
0.516161
0.529293
0.530514
0.554024
0.555859
0.595427
0.581468
0.610731
0.452458
0.5034
0.502559
0.503683
0.502927
0.504425
0.503526
0.505969
0.504978
0.509021
0.508113
0.514996
0.514514
0.526487
0.526774
0.547544
0.546855
0.578747
0.560049