/*--------------------------------*- C++ -*----------------------------------*\
  =========                 |
  \\      /  F ield         | OpenFOAM: The Open Source CFD Toolbox
   \\    /   O peration     | Website:  https://openfoam.org
    \\  /    A nd           | Version:  7
     \\/     M anipulation  |
\*---------------------------------------------------------------------------*/
FoamFile
{
    version     2.0;
    format      ascii;
    class       surfaceScalarField;
    location    "100";
    object      phi;
}
// * * * * * * * * * * * * * * * * * * * * * * * * * * * * * * * * * * * * * //

dimensions      [0 3 -1 0 0 0 0];

internalField   nonuniform List<scalar> 
14496
(
0.00153838
1.46628e-07
-3.34874e-07
0.00153911
6.22749e-07
-1.35402e-06
0.00154068
1.37151e-06
-2.9439e-06
0.00154294
1.9905e-06
-4.25074e-06
0.0015456
2.34514e-06
-5.00913e-06
0.00154835
2.39232e-06
-5.13627e-06
0.00155085
2.13445e-06
-4.64187e-06
0.00155285
1.60819e-06
-3.60401e-06
0.00155411
8.65074e-07
-2.12747e-06
0.00155447
-3.95814e-08
-3.21417e-07
0.00155381
-1.08575e-06
1.75268e-06
0.00155202
-2.21041e-06
3.99723e-06
0.00154907
-3.37689e-06
6.32566e-06
0.00154495
-4.55673e-06
8.68304e-06
0.00153965
-5.72656e-06
1.10234e-05
0.00153321
-6.86679e-06
1.33087e-05
0.00152566
-7.96175e-06
1.55083e-05
0.00151706
-8.99912e-06
1.75982e-05
0.00150747
-9.96933e-06
1.95596e-05
0.00149696
-1.08651e-05
2.13779e-05
0.0014856
-1.1681e-05
2.30417e-05
0.00147347
-1.24129e-05
2.45422e-05
0.00146065
-1.3058e-05
2.58727e-05
0.00144724
-1.36144e-05
2.7028e-05
0.00143332
-1.40807e-05
2.80041e-05
0.00141897
-1.44566e-05
2.87986e-05
0.00140431
-1.47421e-05
2.94104e-05
0.0013894
-1.49381e-05
2.98397e-05
0.00137436
-1.50461e-05
3.00885e-05
0.00135927
-1.50684e-05
3.01605e-05
0.00134422
-1.50084e-05
3.00613e-05
0.00132929
-1.48697e-05
2.97981e-05
0.00131457
-1.46571e-05
2.93799e-05
0.00130012
-1.43758e-05
2.88171e-05
0.00128603
-1.40315e-05
2.81213e-05
0.00127236
-1.36303e-05
2.7305e-05
0.00125916
-1.31788e-05
2.63818e-05
0.00124647
-1.26834e-05
2.53653e-05
0.00123436
-1.21508e-05
2.42695e-05
0.00122284
-1.15874e-05
2.31082e-05
0.00121194
-1.09996e-05
2.18951e-05
0.00120169
-1.03932e-05
2.0643e-05
0.0011921
-9.77389e-06
1.93644e-05
0.00118318
-9.14685e-06
1.80709e-05
0.00117492
-8.51681e-06
1.67731e-05
0.00116733
-7.88808e-06
1.5481e-05
0.00116039
-7.2645e-06
1.42033e-05
0.00115409
-6.6495e-06
1.29481e-05
0.00114841
-6.04606e-06
1.17225e-05
0.00114334
-5.45679e-06
1.05326e-05
0.00113884
-4.88391e-06
9.38367e-06
0.00113489
-4.32938e-06
8.28029e-06
0.00113145
-3.79488e-06
7.2263e-06
0.00112851
-3.28188e-06
6.22491e-06
0.00112602
-2.79169e-06
5.2788e-06
0.00112396
-2.32553e-06
4.3902e-06
0.00112228
-1.88453e-06
3.56101e-06
0.00112096
-1.46981e-06
2.79285e-06
0.00111996
-1.08249e-06
2.08714e-06
0.00111923
-7.23752e-07
1.44513e-06
0.00111876
-3.94626e-07
8.67759e-07
0.0011185
-9.22869e-08
3.53495e-07
0.00111842
1.69199e-07
-9.38651e-08
0.00111848
3.96924e-07
-4.49936e-07
0.00111864
5.80454e-07
-7.44148e-07
0.00111887
7.2744e-07
-9.60796e-07
0.00111914
8.32609e-07
-1.09748e-06
0.0011194
8.91413e-07
-1.14937e-06
0.00111961
9.01012e-07
-1.11198e-06
0.00111973
8.63446e-07
-9.84313e-07
0.00111971
7.81904e-07
-7.61214e-07
0.00111951
6.32982e-07
-4.34699e-07
0.00111911
4.11935e-07
-7.75509e-09
0.00111838
1.28359e-07
6.01255e-07
0.00111729
-2.4155e-07
1.3234e-06
0.00111579
-6.9612e-07
2.201e-06
0.00111377
-1.23756e-06
3.2522e-06
0.00111116
-1.88042e-06
4.49926e-06
0.00110782
-2.63825e-06
5.97013e-06
0.00110365
-3.52744e-06
7.69893e-06
0.00109849
-4.56837e-06
9.72795e-06
0.00109217
-5.78662e-06
1.21098e-05
0.00108447
-7.2145e-06
1.49105e-05
0.00107515
-8.89301e-06
1.82131e-05
0.00106391
-1.08753e-05
2.21238e-05
0.00105036
-1.32299e-05
2.67797e-05
0.00103404
-1.60463e-05
3.23578e-05
0.0010144
-1.94427e-05
3.90911e-05
0.000990681
-2.3579e-05
4.72933e-05
0.000961976
-2.86565e-05
5.73615e-05
0.00092705
-3.50042e-05
6.99307e-05
0.000884431
-4.28583e-05
8.54767e-05
0.000831721
-5.32314e-05
0.000105942
0.000767075
-6.5524e-05
0.00013017
0.000684289
-8.42465e-05
0.000167033
0.000584905
-0.000101676
0.000201059
0.000451378
-0.000136659
0.000270186
0.000304601
-0.000152055
0.000298833
0.000127763
-0.000179987
0.000356825
-0.000131177
0.000258941
0.00155387
-2.11202e-09
0.00155452
-1.87467e-08
0.00155593
-4.32408e-08
0.00155799
-7.20928e-08
0.00156044
-1.02074e-07
0.00156296
-1.30905e-07
0.00156526
-1.57132e-07
0.00156704
-1.80184e-07
0.00156811
-1.99186e-07
0.00156828
-2.14861e-07
0.00156743
-2.32912e-07
0.00156546
-2.43224e-07
0.00156234
-2.49416e-07
0.00155803
-2.51835e-07
0.00155255
-2.49939e-07
0.00154593
-2.43102e-07
0.0015382
-2.30851e-07
0.00152941
-2.12877e-07
0.00151963
-1.89119e-07
0.00150893
-1.59819e-07
0.00149737
-1.25535e-07
0.00148505
-8.71238e-08
0.00147203
-4.5706e-08
0.00145842
-2.56389e-09
0.0014443
4.07902e-08
0.00142976
8.29489e-08
0.0014149
1.22461e-07
0.0013998
1.57986e-07
0.00138457
1.88348e-07
0.00136929
2.12563e-07
0.00135405
2.29871e-07
0.00133894
2.39739e-07
0.00132404
2.4186e-07
0.00130943
2.36146e-07
0.00129517
2.22712e-07
0.00128134
2.0186e-07
0.00126799
1.74069e-07
0.00125516
1.39974e-07
0.00124291
1.00355e-07
0.00123127
5.61204e-08
0.00122026
8.24341e-09
0.00120991
-4.20341e-08
0.00120023
-9.36156e-08
0.00119123
-1.45254e-07
0.00118291
-1.95665e-07
0.00117526
-2.43578e-07
0.00116829
-2.87749e-07
0.00116196
-3.26973e-07
0.00115628
-3.60131e-07
0.00115121
-3.86219e-07
0.00114673
-4.04373e-07
0.00114281
-4.13892e-07
0.00113943
-4.14263e-07
0.00113656
-4.05175e-07
0.00113415
-3.86539e-07
0.00113218
-3.58493e-07
0.00113062
-3.21404e-07
0.00112943
-2.75875e-07
0.00112857
-2.22689e-07
0.00112801
-1.62906e-07
0.00112771
-9.77079e-08
0.00112764
-2.7131e-08
0.00112777
4.18201e-08
0.00112806
1.1244e-07
0.00112846
1.78427e-07
0.00112894
2.42222e-07
0.00112947
3.00773e-07
0.00113001
3.51519e-07
0.00113052
3.92161e-07
0.00113096
4.25437e-07
0.00113128
4.59021e-07
0.00113144
4.78139e-07
0.00113137
4.82903e-07
0.00113103
4.67394e-07
0.00113035
4.39406e-07
0.00112925
4.02352e-07
0.00112765
3.56933e-07
0.00112547
3.04757e-07
0.00112258
2.47382e-07
0.00111887
1.86563e-07
0.00111418
1.24257e-07
0.00110833
6.25389e-08
0.00110111
3.27057e-09
0.00109227
-5.06859e-08
0.00108149
-9.84723e-08
0.0010684
-1.38261e-07
0.00105252
-1.68942e-07
0.00103327
-1.89855e-07
0.00100989
-2.00968e-07
0.000981438
-2.02548e-07
0.000946629
-1.95639e-07
0.000903952
-1.8126e-07
0.000850882
-1.61216e-07
0.000785495
-1.37355e-07
0.00070136
-1.10937e-07
0.000599768
-8.46525e-08
0.000463169
-5.99927e-08
0.000311152
-3.78241e-08
0.000131182
-1.69303e-08
4.63344e-09
0.00140792
6.01354e-07
-1.01645e-06
0.00140912
2.24562e-06
-3.44477e-06
0.00141145
4.77493e-06
-7.10166e-06
0.0014146
6.81701e-06
-9.97287e-06
0.00141821
7.99379e-06
-1.15991e-05
0.00142188
8.19797e-06
-1.18724e-05
0.00142529
7.45966e-06
-1.08637e-05
0.00142814
5.90662e-06
-8.76431e-06
0.00143024
3.70021e-06
-5.79861e-06
0.00143143
1.00678e-06
-2.19096e-06
0.0014316
-2.06902e-06
1.89702e-06
0.00143067
-5.40315e-06
6.32985e-06
0.00142862
-8.85604e-06
1.09101e-05
0.00142543
-1.23496e-05
1.55387e-05
0.00142112
-1.58167e-05
2.01283e-05
0.00141571
-1.92019e-05
2.46073e-05
0.00140925
-2.24613e-05
2.89191e-05
0.0014018
-2.55599e-05
3.30189e-05
0.00139339
-2.84707e-05
3.68716e-05
0.00138412
-3.11721e-05
4.04497e-05
0.00137403
-3.36476e-05
4.37315e-05
0.00136322
-3.5884e-05
4.66997e-05
0.00135175
-3.78707e-05
4.93403e-05
0.00133971
-3.95996e-05
5.1642e-05
0.00132717
-4.10644e-05
5.35962e-05
0.00131424
-4.22605e-05
5.51965e-05
0.00130098
-4.31857e-05
5.64392e-05
0.0012875
-4.38397e-05
5.73237e-05
0.00127387
-4.42249e-05
5.78528e-05
0.00126019
-4.43465e-05
5.8033e-05
0.00124652
-4.42123e-05
5.78745e-05
0.00123297
-4.3833e-05
5.73913e-05
0.00121959
-4.32218e-05
5.66011e-05
0.00120646
-4.2394e-05
5.55243e-05
0.00119364
-4.13672e-05
5.41843e-05
0.00118119
-4.01603e-05
5.26062e-05
0.00116917
-3.87933e-05
5.0817e-05
0.00115761
-3.72871e-05
4.88444e-05
0.00114656
-3.56627e-05
4.67167e-05
0.00113604
-3.3941e-05
4.44618e-05
0.00112607
-3.21426e-05
4.21071e-05
0.00111668
-3.02873e-05
3.96793e-05
0.00110787
-2.83939e-05
3.72034e-05
0.00109965
-2.648e-05
3.47032e-05
0.00109201
-2.45621e-05
3.22006e-05
0.00108495
-2.26552e-05
2.97158e-05
0.00107845
-2.0773e-05
2.72672e-05
0.00107251
-1.89278e-05
2.48712e-05
0.0010671
-1.71305e-05
2.25425e-05
0.0010622
-1.53905e-05
2.02936e-05
0.00105778
-1.3716e-05
1.81355e-05
0.00105381
-1.2114e-05
1.60775e-05
0.00105028
-1.05902e-05
1.41271e-05
0.00104713
-9.14948e-06
1.22908e-05
0.00104436
-7.79575e-06
1.05735e-05
0.00104191
-6.53215e-06
8.97932e-06
0.00103976
-5.36122e-06
7.51124e-06
0.00103787
-4.28503e-06
6.17174e-06
0.00103622
-3.30522e-06
4.96267e-06
0.00103475
-2.4232e-06
3.88551e-06
0.00103345
-1.64016e-06
2.94151e-06
0.00103228
-9.56467e-07
2.13137e-06
0.00103119
-3.74639e-07
1.45868e-06
0.00103015
1.05253e-07
9.3407e-07
0.00102915
4.51639e-07
5.48802e-07
0.00102814
6.99559e-07
3.09803e-07
0.00102709
8.31877e-07
2.24036e-07
0.00102595
8.42454e-07
3.00136e-07
0.00102468
7.25285e-07
5.43561e-07
0.00102324
4.79087e-07
9.58419e-07
0.00102157
1.11697e-07
1.55661e-06
0.00101966
-4.39881e-07
2.35216e-06
0.00101745
-1.16006e-06
3.36656e-06
0.00101488
-2.05964e-06
4.63558e-06
0.00101187
-3.16393e-06
6.16537e-06
0.00100838
-4.49422e-06
7.98869e-06
0.00100431
-6.07661e-06
1.01431e-05
0.000999586
-7.94583e-06
1.26739e-05
0.000994093
-1.01442e-05
1.56366e-05
0.000987718
-1.27229e-05
1.90981e-05
0.000980322
-1.5745e-05
2.31413e-05
0.000971742
-1.92891e-05
2.78686e-05
0.000961788
-2.34531e-05
3.34074e-05
0.00095023
-2.83602e-05
3.9918e-05
0.000936794
-3.41671e-05
4.7603e-05
0.000921147
-4.10753e-05
5.67223e-05
0.000902882
-4.93446e-05
6.76097e-05
0.000881495
-5.9317e-05
8.0704e-05
0.00085636
-7.14476e-05
9.65829e-05
0.000826679
-8.63244e-05
0.000116005
0.000791458
-0.000104839
0.00014006
0.000749412
-0.000127778
0.000169825
0.000698794
-0.000157749
0.000208367
0.000637776
-0.000193522
0.000254541
0.000562228
-0.000246928
0.000322476
0.000473232
-0.000296726
0.000385722
0.000357301
-0.000396371
0.000512302
0.000237574
-0.000433213
0.00055294
8.48556e-05
-0.000517944
0.000670662
-0.000352272
0.000437127
0.00145009
0.00145098
0.00145281
0.00145538
0.00145836
0.00146142
0.00146424
0.00146654
0.00146811
0.0014688
0.00146848
0.00146708
0.00146455
0.00146088
0.00145609
0.00145019
0.00144324
0.00143528
0.00142637
0.00141657
0.00140597
0.00139463
0.00138263
0.00137006
0.001357
0.00134353
0.00132976
0.00131576
0.00130162
0.00128744
0.00127329
0.00125925
0.00124541
0.00123183
0.00121859
0.00120573
0.00119332
0.0011814
0.00117
0.00115917
0.00114892
0.00113928
0.00113025
0.00112184
0.00111405
0.00110688
0.00110031
0.00109433
0.00108892
0.00108406
0.00107973
0.0010759
0.00107253
0.00106961
0.00106709
0.00106495
0.00106315
0.00106166
0.00106044
0.00105946
0.00105869
0.00105809
0.00105762
0.00105727
0.00105698
0.00105672
0.00105645
0.00105615
0.00105576
0.00105525
0.0010546
0.00105373
0.00105256
0.0010511
0.00104926
0.00104697
0.00104415
0.0010407
0.00103653
0.0010315
0.00102548
0.0010183
0.00100976
0.000999615
0.000987572
0.000973276
0.00095629
0.000936064
0.000911909
0.000882947
0.000848038
0.000805736
0.000753929
0.000690577
0.000610682
0.000515016
0.00038883
0.00025445
9.33311e-05
0.00119101
1.61835e-06
-2.54434e-06
0.00119314
4.98542e-06
-7.12035e-06
0.00119677
9.89733e-06
-1.35212e-05
0.00120133
1.36305e-05
-1.81961e-05
0.00120631
1.56843e-05
-2.06645e-05
0.00121127
1.59898e-05
-2.09497e-05
0.00121587
1.46824e-05
-1.92823e-05
0.00121986
1.20271e-05
-1.60159e-05
0.00122306
8.31404e-06
-1.15122e-05
0.00122534
3.82662e-06
-6.10635e-06
0.00122665
-1.22037e-06
-9.14765e-08
0.00122692
-6.6839e-06
6.41865e-06
0.00122613
-1.23153e-05
1.30974e-05
0.0012243
-1.7996e-05
1.98267e-05
0.00122144
-2.36216e-05
2.6481e-05
0.00121759
-2.91071e-05
3.29636e-05
0.00121277
-3.43851e-05
3.91978e-05
0.00120705
-3.94027e-05
4.51231e-05
0.00120048
-4.41181e-05
5.06922e-05
0.00119311
-4.84987e-05
5.58675e-05
0.00118501
-5.25185e-05
6.06192e-05
0.00117624
-5.61566e-05
6.49232e-05
0.00116688
-5.93958e-05
6.87593e-05
0.00115699
-6.22225e-05
7.21114e-05
0.00114665
-6.46257e-05
7.49662e-05
0.00113593
-6.65972e-05
7.73139e-05
0.00112492
-6.81322e-05
7.91484e-05
0.00111368
-6.92297e-05
8.04683e-05
0.00110229
-6.9893e-05
8.12773e-05
0.00109084
-7.01298e-05
8.15847e-05
0.00107939
-6.9953e-05
8.14055e-05
0.00106801
-6.93797e-05
8.07606e-05
0.00105676
-6.84319e-05
7.96759e-05
0.00104571
-6.71349e-05
7.81821e-05
0.00103492
-6.55176e-05
7.63136e-05
0.00102442
-6.36114e-05
7.41079e-05
0.00101427
-6.14495e-05
7.16047e-05
0.00100449
-5.90662e-05
6.8845e-05
0.000995115
-5.64965e-05
6.58701e-05
0.000986168
-5.37748e-05
6.27213e-05
0.000977665
-5.09351e-05
5.94387e-05
0.000969614
-4.801e-05
5.60609e-05
0.000962019
-4.50305e-05
5.26249e-05
0.00095488
-4.20257e-05
4.91649e-05
0.00094819
-3.90227e-05
4.5713e-05
0.000941938
-3.60462e-05
4.22982e-05
0.000936109
-3.31186e-05
3.89472e-05
0.000930686
-3.02604e-05
3.56837e-05
0.000925646
-2.74892e-05
3.25287e-05
0.000920967
-2.48205e-05
2.95002e-05
0.00091662
-2.22675e-05
2.66137e-05
0.00091258
-1.98415e-05
2.38822e-05
0.000908815
-1.75517e-05
2.13162e-05
0.000905296
-1.54056e-05
1.89246e-05
0.000901992
-1.34091e-05
1.67138e-05
0.000898869
-1.1567e-05
1.46892e-05
0.000895897
-9.88259e-06
1.28546e-05
0.000893043
-8.35869e-06
1.12128e-05
0.000890275
-6.99725e-06
9.76586e-06
0.000887559
-5.79979e-06
8.51537e-06
0.000884864
-4.76772e-06
7.46278e-06
0.000882157
-3.90261e-06
6.60983e-06
0.000879404
-3.20686e-06
5.95986e-06
0.000876571
-2.6856e-06
5.51821e-06
0.00087363
-2.34437e-06
5.28582e-06
0.000870546
-2.18217e-06
5.26588e-06
0.000867285
-2.20656e-06
5.46736e-06
0.000863811
-2.42566e-06
5.89991e-06
0.000860086
-2.84813e-06
6.5736e-06
0.000856068
-3.48205e-06
7.49954e-06
0.000851713
-4.33704e-06
8.69191e-06
0.000846981
-5.44259e-06
1.01752e-05
0.000841823
-6.81769e-06
1.19749e-05
0.000836188
-8.49123e-06
1.41268e-05
0.000830015
-1.04865e-05
1.66594e-05
0.00082324
-1.28421e-05
1.96169e-05
0.000815791
-1.56032e-05
2.30523e-05
0.000807586
-1.88248e-05
2.70298e-05
0.000798532
-2.25748e-05
3.16284e-05
0.000788525
-2.69347e-05
3.69423e-05
0.000777442
-3.20052e-05
4.30879e-05
0.000765145
-3.79105e-05
5.02081e-05
0.000751469
-4.48046e-05
5.84799e-05
0.000736226
-5.28809e-05
6.8124e-05
0.000719191
-6.23828e-05
7.94176e-05
0.0007001
-7.3622e-05
9.27136e-05
0.000678636
-8.69967e-05
0.00010846
0.000654421
-0.00010303
0.000127245
0.000627003
-0.000122403
0.000149822
0.000595821
-0.000146023
0.000177205
0.000560253
-0.000175118
0.000210686
0.000519412
-0.000211122
0.000251963
0.000472673
-0.00025711
0.00030385
0.000418384
-0.000312895
0.000367184
0.000356375
-0.000392002
0.00045401
0.000285464
-0.000467767
0.000538678
0.000204848
-0.000612171
0.000692786
0.000125872
-0.000652096
0.000731073
1.78768e-05
-0.000793357
0.000901352
-0.000463192
0.000481068
0.00124838
0.00124992
0.00125271
0.00125637
0.00126045
0.00126457
0.00126839
0.00127165
0.00127417
0.0012758
0.00127648
0.00127613
0.00127472
0.00127226
0.00126877
0.00126427
0.00125881
0.00125242
0.00124518
0.00123713
0.00122834
0.00121888
0.00120883
0.00119825
0.00118722
0.00117582
0.00116412
0.00115222
0.00114018
0.00112808
0.001116
0.00110401
0.00109218
0.00108057
0.00106924
0.00105823
0.0010476
0.00103738
0.0010276
0.00101829
0.00100946
0.00100113
0.0009933
0.000985978
0.000979156
0.000972825
0.000966974
0.000961585
0.000956638
0.000952111
0.000947979
0.000944215
0.00094079
0.000937676
0.00093484
0.000932252
0.000929881
0.000927694
0.000925659
0.000923745
0.000921919
0.000920148
0.0009184
0.000916648
0.000914852
0.00091298
0.000910998
0.000908872
0.000906567
0.000904044
0.000901263
0.000898173
0.000894722
0.000890866
0.000886545
0.000881692
0.000876232
0.000870081
0.000863143
0.000855306
0.000846442
0.0008364
0.000825003
0.00081204
0.00079726
0.000780361
0.000760974
0.000738648
0.000712827
0.000682809
0.000647751
0.000606453
0.00055771
0.000499355
0.000429829
0.000347784
0.000247916
0.000148759
2.60643e-05
0.000930511
3.75417e-06
-5.50656e-06
0.000933913
9.70431e-06
-1.31064e-05
0.000939003
1.75968e-05
-2.26865e-05
0.000944958
2.31513e-05
-2.91063e-05
0.000951148
2.59333e-05
-3.2123e-05
0.000957145
2.61194e-05
-3.21165e-05
0.000962662
2.40538e-05
-2.95712e-05
0.000967509
2.01785e-05
-2.50254e-05
0.000971563
1.49232e-05
-1.89768e-05
0.000974743
8.67365e-06
-1.1854e-05
0.000976995
1.75575e-06
-4.0077e-06
0.000978334
-5.6684e-06
4.32897e-06
0.000978737
-1.32886e-05
1.28863e-05
0.000978219
-2.09438e-05
2.14615e-05
0.000976805
-2.85032e-05
2.99175e-05
0.000974525
-3.586e-05
3.81394e-05
0.000971419
-4.29305e-05
4.6037e-05
0.000967528
-4.96485e-05
5.35389e-05
0.000962901
-5.59619e-05
6.05894e-05
0.000957587
-6.18299e-05
6.71442e-05
0.000951638
-6.72193e-05
7.31674e-05
0.000945112
-7.21033e-05
7.86298e-05
0.000938065
-7.64595e-05
8.35066e-05
0.000930557
-8.02695e-05
8.77772e-05
0.000922651
-8.3518e-05
9.14245e-05
0.000914409
-8.61937e-05
9.44357e-05
0.000905896
-8.82897e-05
9.68028e-05
0.000897176
-8.98041e-05
9.85236e-05
0.000888314
-9.0741e-05
9.96028e-05
0.000879373
-9.11115e-05
0.000100053
0.000870413
-9.09329e-05
9.98934e-05
0.000861489
-9.02293e-05
9.91524e-05
0.000852656
-8.90309e-05
9.7864e-05
0.000843961
-8.73731e-05
9.60686e-05
0.000835445
-8.52955e-05
9.38113e-05
0.000827146
-8.28415e-05
9.1141e-05
0.000819093
-8.00566e-05
8.81095e-05
0.000811311
-7.69877e-05
8.47695e-05
0.000803819
-7.36822e-05
8.11745e-05
0.000796629
-7.01871e-05
7.73772e-05
0.000789748
-6.65482e-05
7.3429e-05
0.000783178
-6.28094e-05
6.93791e-05
0.000776917
-5.90126e-05
6.52741e-05
0.000770956
-5.51966e-05
6.11575e-05
0.000765284
-5.13976e-05
5.70694e-05
0.000759886
-4.76486e-05
5.30462e-05
0.000754744
-4.39794e-05
4.91212e-05
0.000749837
-4.04168e-05
4.5324e-05
0.000745141
-3.69843e-05
4.16803e-05
0.000740631
-3.37019e-05
3.82124e-05
0.000736279
-3.05869e-05
3.49388e-05
0.000732057
-2.76537e-05
3.18752e-05
0.000727937
-2.49139e-05
2.90344e-05
0.000723887
-2.23769e-05
2.64261e-05
0.000719879
-2.00499e-05
2.40582e-05
0.000715881
-1.79385e-05
2.19363e-05
0.000711864
-1.60466e-05
2.00645e-05
0.000707795
-1.43772e-05
1.84458e-05
0.000703645
-1.29323e-05
1.70823e-05
0.000699383
-1.17135e-05
1.59754e-05
0.000694978
-1.07222e-05
1.51268e-05
0.0006904
-9.96053e-06
1.45386e-05
0.000685618
-9.43153e-06
1.42142e-05
0.000680599
-9.13983e-06
1.41581e-05
0.000675314
-9.08824e-06
1.43734e-05
0.00066973
-9.28098e-06
1.48655e-05
0.000663813
-9.72747e-06
1.56446e-05
0.000657529
-1.0438e-05
1.67222e-05
0.000650841
-1.14241e-05
1.81116e-05
0.000643712
-1.26995e-05
1.9829e-05
0.000636098
-1.4281e-05
2.18942e-05
0.000627958
-1.61963e-05
2.43363e-05
0.000619246
-1.84742e-05
2.71871e-05
0.00060991
-2.11523e-05
3.04877e-05
0.000599897
-2.4266e-05
3.4279e-05
0.000589146
-2.78654e-05
3.86165e-05
0.00057759
-3.20104e-05
4.3566e-05
0.000565157
-3.67732e-05
4.9207e-05
0.000551762
-4.2243e-05
5.56372e-05
0.000537317
-4.85249e-05
6.29708e-05
0.000521717
-5.57492e-05
7.13492e-05
0.000504847
-6.40752e-05
8.09448e-05
0.000486578
-7.36993e-05
9.19687e-05
0.000466761
-8.48657e-05
0.000104682
0.000445232
-9.78795e-05
0.000119409
0.000421801
-0.000113128
0.000136558
0.000396261
-0.000131098
0.000156639
0.000368377
-0.000152426
0.00018031
0.000337902
-0.000177922
0.000208397
0.00030458
-0.000208665
0.000241986
0.000268208
-0.00024598
0.000282352
0.00022849
-0.000291719
0.000331437
0.000185923
-0.000348313
0.00039088
0.00013962
-0.000417694
0.000463997
9.48133e-05
-0.000508217
0.000553024
4.62605e-05
-0.000600445
0.000648998
1.73375e-05
-0.000749448
0.000778371
-1.45849e-05
-0.000789804
0.000821726
-2.50936e-05
-0.000956959
0.000967468
-0.000437816
0.000412722
0.000988587
0.000991171
0.000995247
0.0010002
0.00100547
0.00101064
0.00101541
0.00101957
0.00102299
0.00102555
0.00102722
0.00102797
0.00102778
0.00102666
0.00102464
0.00102174
0.00101801
0.00101348
0.00100821
0.00100225
0.00099565
0.00098847
0.00098077
0.000972612
0.00096406
0.00095518
0.000946039
0.000936703
0.000927239
0.000917713
0.000908185
0.000898717
0.000889362
0.000880171
0.000871189
0.000862455
0.000854003
0.000845861
0.000838049
0.000830583
0.000823473
0.000816725
0.000810337
0.000804305
0.000798621
0.00079327
0.000788238
0.000783505
0.00077905
0.000774848
0.000770875
0.000767103
0.000763506
0.000760053
0.000756717
0.000753468
0.000750276
0.000747111
0.000743945
0.000740747
0.000737487
0.000734137
0.000730665
0.000727043
0.000723241
0.000719226
0.000714966
0.000710428
0.000705577
0.000700377
0.000694788
0.000688767
0.000682267
0.000675242
0.000667635
0.000659387
0.000650429
0.000640685
0.000630071
0.000618488
0.000605827
0.00059196
0.00057674
0.000559999
0.000541537
0.000521123
0.000498485
0.000473304
0.000445204
0.000413744
0.000378451
0.000338694
0.000294231
0.000243722
0.000189515
0.000127748
7.10861e-05
1.23545e-05
-4.32527e-05
-0.000887483
0.010534
-0.0103036
-0.00111856
0.0105251
-0.010294
-0.00135049
0.010512
-0.0102801
-0.00158368
0.0105025
-0.0102693
-0.00181825
0.0104983
-0.0102638
-0.00205461
0.0105005
-0.0102641
-0.00229319
0.0105102
-0.0102716
-0.0025346
0.010529
-0.0102876
-0.00277961
0.010559
-0.010314
-0.00302886
0.0106022
-0.0103529
-0.00328141
0.010658
-0.0104055
-0.0035292
0.0107154
-0.0104677
-0.00374282
0.0107303
-0.0105167
-0.00384428
0.0105789
-0.0104775
-0.00368351
0.010006
-0.0101667
-0.00307786
0.00864131
-0.00924696
-0.00198719
0.00615509
-0.00724576
-0.000772963
0.00279917
-0.0040134
-0.000100343
0.000219618
-0.000892238
-0.000521438
0.000421095
-0.000893269
0.0107632
-0.00112559
0.0107574
-0.00135774
0.0107441
-0.00159167
0.0107364
-0.00182678
0.0107334
-0.00206377
0.0107375
-0.00230291
0.0107493
-0.00254474
0.0107708
-0.0027895
0.0108038
-0.00303609
0.0108488
-0.00327852
0.0109005
-0.0034971
0.010934
-0.00364242
0.0108757
-0.00361873
0.0105552
-0.00328729
0.00967453
-0.00253854
0.00789257
-0.00144847
0.00506501
-0.000479961
0.00183066
-3.54439e-05
-0.000224899
-0.000556882
-0.000916762
0.01012
-0.00993578
-0.00110128
0.0101102
-0.00992566
-0.00128694
0.0100948
-0.00990916
-0.00147401
0.0100828
-0.00989569
-0.00166271
0.0100756
-0.00988689
-0.00185336
0.0100741
-0.00988343
-0.00204639
0.0100794
-0.00988634
-0.00224231
0.0100927
-0.00989683
-0.00244185
0.0101161
-0.00991658
-0.0026459
0.010152
-0.00994794
-0.00285485
0.0102026
-0.00999367
-0.00306658
0.010268
-0.0100562
-0.00327024
0.0103358
-0.0101321
-0.00343021
0.0103593
-0.0101993
-0.00346375
0.0102112
-0.0101776
-0.00322293
0.00961732
-0.00985814
-0.00252618
0.00808325
-0.00878
-0.00131544
0.00518872
-0.00639946
-0.000272673
0.00167069
-0.00271346
-0.000280735
8.06199e-06
-0.000925036
-0.00110886
-0.0012941
-0.00148063
-0.00166879
-0.00185881
-0.00205105
-0.00224589
-0.00244375
-0.00264471
-0.00284758
-0.00304727
-0.00322823
-0.00334642
-0.00330199
-0.00293163
-0.00209413
-0.000918815
-0.00014036
-0.000904867
0.00980472
-0.00967257
-0.00103752
0.00979425
-0.00966159
-0.00117146
0.00977626
-0.00964231
-0.00130712
0.00976136
-0.0096257
-0.00144468
0.00975065
-0.0096131
-0.00158447
0.00974514
-0.00960534
-0.00172691
0.00974563
-0.00960319
-0.00187247
0.00975337
-0.00960781
-0.0020218
0.00976992
-0.00962059
-0.00217567
0.00979762
-0.00964375
-0.00233478
0.00983929
-0.00968019
-0.00249905
0.00989791
-0.00973364
-0.00266588
0.00997274
-0.00980592
-0.0028239
0.0100553
-0.00989723
-0.00294125
0.0100974
-0.00998006
-0.00292645
0.0099562
-0.009971
-0.00260362
0.00923839
-0.00956123
-0.001758
0.00734825
-0.00819388
-0.000572052
0.0037328
-0.00491874
0.000333131
-0.000905184
-0.000915115
-0.00104653
-0.00117943
-0.00131376
-0.00145
-0.00158829
-0.001729
-0.00187246
-0.00201912
-0.00216945
-0.00232382
-0.00248216
-0.00264151
-0.00278557
-0.00286578
-0.00276772
-0.00230933
-0.00136053
-0.000341193
-0.00085369
0.00959762
-0.00952104
-0.00093122
0.00958582
-0.00950829
-0.00101041
0.00956481
-0.00948562
-0.00109146
0.00954664
-0.00946559
-0.00117486
0.00953176
-0.00944836
-0.0012609
0.00952162
-0.00943557
-0.00135002
0.0095167
-0.00942758
-0.00144267
0.00951822
-0.00942558
-0.00153948
0.00952742
-0.00943061
-0.00164126
0.00954637
-0.00944459
-0.00174894
0.00957779
-0.00947011
-0.00186315
0.00962544
-0.00951122
-0.00198461
0.00969144
-0.00956998
-0.00211109
0.00978027
-0.00965378
-0.00223622
0.0098749
-0.00974978
-0.00231539
0.00993728
-0.00985811
-0.00224785
0.00972016
-0.00978771
-0.00179555
0.00874133
-0.00919364
-0.000836425
0.00584911
-0.00680823
0.00147888
-0.0023153
-0.000865506
-0.000941277
-0.00101878
-0.00109785
-0.00117919
-0.00126292
-0.00134941
-0.00143899
-0.00153217
-0.00162954
-0.00173194
-0.00184014
-0.00195462
-0.00207158
-0.00217674
-0.00221045
-0.00205151
-0.00150406
-0.000573693
-0.000767372
0.00950356
-0.00948401
-0.000788583
0.00948929
-0.00946808
-0.000811959
0.00946461
-0.00944124
-0.000837731
0.00944232
-0.00941655
-0.000866238
0.00942268
-0.00939417
-0.000897877
0.00940703
-0.00937539
-0.000933126
0.00939581
-0.00936057
-0.000972522
0.00939019
-0.0093508
-0.00101672
0.00939108
-0.00934688
-0.00106666
0.00940016
-0.00935022
-0.00112353
0.00941989
-0.00936302
-0.00118849
0.00945417
-0.00938921
-0.00126348
0.00950501
-0.00943002
-0.0013491
0.00958013
-0.00949451
-0.00144775
0.00966951
-0.00957087
-0.00154537
0.00978752
-0.0096899
-0.00160569
0.00978109
-0.00972077
-0.00144819
0.00942025
-0.00957775
-0.000855453
0.00739885
-0.00799158
0.00295011
-0.00380556
-0.000780039
-0.000799044
-0.000820048
-0.000843317
-0.000868998
-0.000897542
-0.00092931
-0.000964693
-0.00100422
-0.00104866
-0.00109887
-0.00115593
-0.0012209
-0.00129456
-0.00137483
-0.00144541
-0.00145203
-0.00122543
-0.000634805
-0.000652193
0.00952348
-0.00956063
-0.000617678
0.00950508
-0.00953959
-0.000585461
0.0094763
-0.00950852
-0.000556284
0.00944858
-0.00947775
-0.000530203
0.00942356
-0.00944964
-0.000507902
0.0094013
-0.0094236
-0.000490043
0.00938273
-0.00940058
-0.000476789
0.0093688
-0.00938205
-0.000469101
0.00936011
-0.0093678
-0.000468327
0.00935769
-0.00935847
-0.000475688
0.00936388
-0.00935652
-0.000492973
0.00938173
-0.00936445
-0.000522005
0.00941358
-0.00938455
-0.000567179
0.00946421
-0.00941904
-0.000630215
0.00952861
-0.00946558
-0.000721297
0.00962322
-0.00953213
-0.000820907
0.00966026
-0.00956065
-0.000863944
0.00958168
-0.00953865
-0.000623196
0.00822617
-0.00846692
0.00423423
-0.00485743
-0.000664664
-0.000627665
-0.000592598
-0.000560568
-0.000531184
-0.000505272
-0.000483112
-0.000465115
-0.000451879
-0.000444408
-0.000443546
-0.00045102
-0.000467455
-0.000497746
-0.000539999
-0.00060668
-0.000667185
-0.000663252
-0.00042867
-0.000516127
0.00965489
-0.00974666
-0.000428373
0.00963016
-0.00971791
-0.000342917
0.00959746
-0.00968292
-0.000260831
0.00956314
-0.00964523
-0.000181475
0.00953238
-0.00961174
-0.000106225
0.0095025
-0.00957775
-3.55752e-05
0.00947546
-0.00954611
2.89291e-05
0.00945073
-0.00951524
8.57361e-05
0.00943027
-0.00948708
0.000134809
0.00941411
-0.00946319
0.000174547
0.00940432
-0.00944406
0.000202689
0.00940255
-0.00943069
0.000216626
0.00941176
-0.00942569
0.000210913
0.00942958
-0.00942386
0.000181924
0.00945976
-0.00943077
0.000109917
0.00948542
-0.00941341
1.21845e-05
0.0094927
-0.00939497
-0.00017921
0.00938638
-0.00919499
-0.00019886
0.00844054
-0.00842089
0.0048718
-0.00507066
-0.000527107
-0.000436539
-0.000347596
-0.00026221
-0.000179467
-0.000100568
-2.56936e-05
4.29888e-05
0.000105461
0.000161106
0.000208912
0.000247007
0.000274214
0.000284749
0.000278929
0.000232215
0.000164266
1.20041e-05
-1.43732e-05
-0.000369014
0.00989185
-0.0100313
-0.000232314
0.00985719
-0.00999389
-9.59187e-05
0.00982227
-0.00995866
3.50555e-05
0.00977972
-0.00991069
0.000159693
0.00974136
-0.009866
0.000279367
0.00970305
-0.00982272
0.000393015
0.00966629
-0.00977994
0.000500132
0.00963013
-0.00973724
0.000599719
0.00959581
-0.0096954
0.000690245
0.00956435
-0.00965487
0.000770057
0.0095363
-0.00961611
0.000836845
0.00951205
-0.00957883
0.000886914
0.00949278
-0.00954285
0.000914567
0.00947172
-0.00949937
0.000909456
0.00944907
-0.00944395
0.000853905
0.00938616
-0.00933061
0.000720414
0.00929576
-0.00916227
0.000449432
0.00895745
-0.00868647
0.000128633
0.00813516
-0.00781436
0.00467659
-0.00454796
-0.000376049
-0.000236768
-9.74205e-05
3.70691e-05
0.000166692
0.000291992
0.000412172
0.000527061
0.000635789
0.000736951
0.000829193
0.000910552
0.00097764
0.0010255
0.00104379
0.00101654
0.000917331
0.000679793
0.000394065
0.00378759
3.71275e-06
-2.88521e-06
0.00378837
-1.08353e-07
-6.72633e-07
0.0037858
1.25295e-05
-9.96371e-06
0.0037857
1.00629e-05
-9.95959e-06
0.00378171
2.05304e-05
-1.65431e-05
0.00377957
2.95119e-05
-2.73712e-05
0.00377283
3.63826e-05
-2.96401e-05
0.00376628
6.82547e-05
-6.17051e-05
0.00375409
6.87748e-05
-5.65861e-05
0.00373806
0.000146591
-0.00013056
0.00371439
0.000138165
-0.000114496
0.00367786
0.000309
-0.00027247
0.00362827
0.000294008
-0.000244416
0.0035454
0.00066657
-0.000583704
0.0034307
0.00067506
-0.000560364
0.00323128
0.00155567
-0.00135624
0.00292085
0.00177897
-0.00146854
0.00236625
0.00431921
-0.00376462
0.00136255
0.00607812
-0.00507442
0.015356
-0.0139934
0.0037876
4.52413e-06
0.0037883
-8.0126e-07
0.00378585
1.49791e-05
0.00378565
1.02622e-05
0.00378175
2.44272e-05
0.00377953
3.17288e-05
0.0037728
4.31159e-05
0.0037662
7.48501e-05
0.00375379
8.11854e-05
0.00373777
0.000162613
0.00371326
0.000162677
0.00367684
0.000345416
0.00362478
0.000346073
0.00354226
0.000749085
0.00342082
0.000796502
0.0032231
0.00175339
0.00289591
0.00210616
0.00235802
0.00485711
0.00135196
0.00708418
0.0167079
0.00432155
2.14512e-06
-1.52752e-06
0.00432178
1.13607e-06
-1.3646e-06
0.00431977
7.65309e-06
-5.64448e-06
0.0043187
9.23787e-06
-8.16383e-06
0.00431548
1.28909e-05
-9.67132e-06
0.00431181
2.41945e-05
-2.05288e-05
0.00430622
2.33803e-05
-1.77861e-05
0.0042973
5.34514e-05
-4.4534e-05
0.0042869
4.51193e-05
-3.47146e-05
0.00426724
0.000111767
-9.2109e-05
0.00424654
9.19943e-05
-7.12945e-05
0.00420449
0.000231508
-0.000189455
0.00416049
0.000197065
-0.000153064
0.00406911
0.000493789
-0.000402411
0.00396721