/*--------------------------------*- C++ -*----------------------------------*\
  =========                 |
  \\      /  F ield         | OpenFOAM: The Open Source CFD Toolbox
   \\    /   O peration     | Website:  https://openfoam.org
    \\  /    A nd           | Version:  7
     \\/     M anipulation  |
\*---------------------------------------------------------------------------*/
FoamFile
{
    version     2.0;
    format      ascii;
    class       volVectorField;
    location    "102";
    object      U;
}
// * * * * * * * * * * * * * * * * * * * * * * * * * * * * * * * * * * * * * //

dimensions      [0 1 -1 0 0 0 0];

internalField   nonuniform List<vector> 
115
(
(0.686898 0.075555 2.79366e-19)
(0.706457 0.078956 3.08439e-20)
(0.726662 0.0824163 1.87219e-18)
(0.74748 0.0859334 7.46446e-18)
(0.768874 0.0895047 1.0157e-18)
(0.790803 0.0931272 9.89233e-18)
(0.813221 0.0967976 3.53753e-18)
(0.83608 0.100512 1.45019e-17)
(0.859327 0.104267 8.85085e-18)
(0.882903 0.108058 1.38164e-17)
(0.906747 0.11188 9.54098e-18)
(0.930792 0.115728 1.42557e-17)
(0.954967 0.119596 1.12078e-17)
(0.519595 0.0541128 2.31682e-18)
(0.535521 0.0567816 1.25112e-18)
(0.552213 0.0595248 -5.65464e-19)
(0.569661 0.062343 -6.65844e-21)
(0.587852 0.0652363 -9.59101e-19)
(0.606775 0.0682047 -3.96744e-18)
(0.626412 0.071248 2.19139e-18)
(0.646746 0.0743658 -4.2995e-18)
(0.667755 0.0775576 3.8447e-18)
(0.689415 0.0808228 -1.86036e-18)
(0.711699 0.0841605 1.00875e-17)
(0.734577 0.0875699 -4.57178e-18)
(0.758015 0.0910499 1.08828e-17)
(0.781974 0.0945991 -6.05977e-18)
(0.806412 0.0982161 9.00638e-18)
(0.83128 0.101899 3.60665e-18)
(0.411809 0.0437594 8.214e-18)
(0.425819 0.0458839 5.90963e-18)
(0.440577 0.0480846 -7.0247e-19)
(0.456083 0.0503632 8.6118e-19)
(0.472337 0.0527208 2.74394e-18)
(0.489336 0.0551587 8.92715e-18)
(0.507078 0.0576777 9.61549e-18)
(0.525559 0.060279 8.19481e-18)
(0.544773 0.0629634 1.05236e-17)
(0.564713 0.0657319 8.816e-18)
(0.585372 0.0685855 9.99709e-18)
(0.606737 0.0715252 1.09828e-18)
(0.628798 0.0745523 1.24049e-17)
(0.651539 0.0776678 1.74876e-18)
(0.674943 0.0808731 1.63679e-17)
(0.69899 0.0841695 1.21188e-17)
(0.311727 0.0348408 3.02856e-18)
(0.323655 0.0364526 1.66971e-18)
(0.336273 0.0381377 -6.80719e-19)
(0.349588 0.0398979 1.08154e-19)
(0.363605 0.041735 -5.92838e-19)
(0.37833 0.0436504 -3.31908e-18)
(0.393766 0.0456458 2.59615e-18)
(0.409919 0.0477225 -3.72252e-18)
(0.426793 0.049882 3.43609e-18)
(0.444392 0.0521259 -2.072e-18)
(0.462719 0.0544558 9.66804e-18)
(0.481778 0.0568735 -5.59531e-18)
(0.50157 0.0593811 1.0833e-17)
(0.522099 0.0619808 -6.92663e-18)
(0.543365 0.0646752 7.94523e-18)
(0.565367 0.067467 4.55067e-18)
(0.220975 0.0273885 8.55313e-18)
(0.230839 0.0285406 6.36165e-18)
(0.241313 0.0297604 -1.88932e-18)
(0.252403 0.0310498 1.42873e-20)
(0.26412 0.0324108 3.6229e-19)
(0.276471 0.0338448 9.3441e-18)
(0.289466 0.0353533 9.94493e-18)
(0.303112 0.0369378 9.36186e-18)
(0.317418 0.0385997 1.04886e-17)
(0.332395 0.0403404 9.53537e-18)
(0.348051 0.0421616 9.37189e-18)
(0.364396 0.0440651 1.56816e-18)
(0.381441 0.0460527 1.06522e-17)
(0.399196 0.0481269 2.19018e-18)
(0.417671 0.0502899 1.41874e-17)
(0.436879 0.0525448 1.23051e-17)
(0.140251 0.0213284 1.43959e-18)
(0.148199 0.0220847 -5.58516e-19)
(0.156664 0.0229023 -7.9013e-18)
(0.165653 0.0237832 -1.6487e-18)
(0.175178 0.0247289 -7.43015e-18)
(0.185247 0.025741 1.66674e-18)
(0.195869 0.0268206 1.92638e-18)
(0.207056 0.0279691 1.93952e-18)
(0.218816 0.0291876 1.87706e-18)
(0.231163 0.0304772 1.59883e-18)
(0.244105 0.0318392 1.5153e-18)
(0.257656 0.0332749 6.66076e-19)
(0.271829 0.0347859 1.73337e-18)
(0.286636 0.0363739 9.12516e-19)
(0.302091 0.0380407 2.59752e-18)
(0.31821 0.0397888 2.12576e-18)
(0.0695401 0.0165177 1.26959e-19)
(0.0757998 0.0169462 -7.45513e-19)
(0.0824801 0.0174295 -3.03926e-18)
(0.0895902 0.0179694 -1.08138e-18)
(0.0971393 0.0185674 -2.71178e-18)
(0.105137 0.0192249 6.13572e-20)
(0.113592 0.0199429 4.30364e-19)
(0.122516 0.0207224 3.89845e-19)
(0.131917 0.0215643 4.05637e-19)
(0.141807 0.0224692 4.14461e-19)
(0.152198 0.0234381 4.17122e-19)
(0.1631 0.0244719 1.1734e-19)
(0.174526 0.0255716 2.03044e-19)
(0.186489 0.0267382 4.41498e-19)
(0.199003 0.0279732 4.23018e-19)
(0.212082 0.0292781 2.85381e-19)
(0.0083509 0.0127761 4.46483e-20)
(0.0131883 0.0129439 -1.06707e-18)
(0.0183538 0.0131602 -8.37001e-18)
(0.0238561 0.0134267 -1.85817e-18)
(0.0297041 0.013745 -8.44409e-18)
(0.0359067 0.0141161 -8.20916e-19)
)
;

boundaryField
{
    inlet
    {
        type            uniformFixedValue;
        uniformValue    constant (1 0 0);
        value           nonuniform 0();
    }
    outlet
    {
        type            pressureInletOutletVelocity;
        value           nonuniform 0();
    }
    polygon
    {
        type            fixedValue;
        value           nonuniform 0();
    }
    top
    {
        type            symmetryPlane;
    }
    bottom
    {
        type            symmetryPlane;
    }
    outside
    {
        type            zeroGradient;
    }
    procBoundary52to44
    {
        type            processor;
        value           nonuniform List<vector> 
17
(
(0.0424728 0.0145411 -2.27339e-20)
(0.0494119 0.0150205 5.55294e-20)
(0.0567333 0.0155552 3.77576e-20)
(0.064447 0.0161455 -4.91378e-20)
(0.0725631 0.016792 2.04479e-19)
(0.0810922 0.0174952 1.83683e-19)
(0.0900454 0.0182557 2.78684e-19)
(0.0994341 0.0190743 1.52547e-19)
(0.109271 0.0199516 6.88084e-20)
(0.119568 0.0208888 3.37365e-20)
(-0.0440763 0.00990978 6.81419e-20)
(-0.0403865 0.0098804 -4.10589e-19)
(-0.0364549 0.00989349 -2.91783e-18)
(-0.0322731 0.00995083 -1.1247e-18)
(-0.0278328 0.0100538 -3.04535e-18)
(0.0424728 0.0145411 -2.27339e-20)
(-0.0231255 0.0102035 -9.25528e-19)
)
;
    }
    procBoundary52to45
    {
        type            processor;
        value           nonuniform List<vector> 2((0.0636922 0.0161417 2.25385e-19) (0.00383301 0.0126546 9.65778e-20));
    }
    procBoundary52to51
    {
        type            processor;
        value           nonuniform List<vector> 7((0.979195 0.123479 1.22208e-17) (0.856528 0.105645 4.982e-18) (0.723655 0.0875583 1.30792e-17) (0.588106 0.0703594 5.23593e-18) (0.45683 0.0548949 1.27601e-17) (0.335009 0.0416207 2.11817e-18) (0.225742 0.0306547 4.56888e-19));
    }
    procBoundary52to53
    {
        type            processor;
        value           nonuniform List<vector> 5((0.50444 0.0515176 3.4423e-18) (0.398546 0.0417096 9.8835e-18) (0.300484 0.0333001 3.72133e-18) (0.211712 0.0263019 9.11553e-18) (0.13281 0.0206311 1.59946e-18));
    }
    procBoundary52to60
    {
        type            processor;
        value           nonuniform List<vector> 
17
(
(0.803346 0.0895212 -1.33612e-18)
(0.823446 0.0933503 -3.0057e-18)
(0.844037 0.0972094 -5.82433e-18)
(0.865068 0.101093 5.01234e-19)
(0.88648 0.104996 -5.77915e-18)
(0.908215 0.108912 3.21299e-18)
(0.930207 0.112835 -2.38257e-18)
(0.95239 0.116758 1.04152e-17)
(0.974692 0.120674 -3.83298e-18)
(0.997038 0.124575 1.01939e-17)
(1.01935 0.128455 -5.48891e-18)
(1.04155 0.132305 7.66199e-18)
(1.06356 0.136117 1.87572e-18)
(0.632385 0.0657268 6.70299e-18)
(0.649837 0.0689389 4.66026e-18)
(0.668016 0.0722154 -1.37282e-18)
(0.668016 0.0722154 -1.37282e-18)
)
;
    }
}


// ************************************************************************* //
