/*--------------------------------*- C++ -*----------------------------------*\
  =========                 |
  \\      /  F ield         | OpenFOAM: The Open Source CFD Toolbox
   \\    /   O peration     | Website:  https://openfoam.org
    \\  /    A nd           | Version:  7
     \\/     M anipulation  |
\*---------------------------------------------------------------------------*/
FoamFile
{
    version     2.0;
    format      ascii;
    class       volVectorField;
    location    "38";
    object      U;
}
// * * * * * * * * * * * * * * * * * * * * * * * * * * * * * * * * * * * * * //

dimensions      [0 1 -1 0 0 0 0];

internalField   nonuniform List<vector> 
4000
(
(1.25702 0.222127 1.65839e-17)
(1.25268 0.240267 6.5085e-18)
(1.24534 0.247979 7.00348e-19)
(1.23966 0.262076 -7.68876e-18)
(1.23317 0.273511 2.52438e-18)
(1.22776 0.287611 4.07067e-18)
(1.22191 0.301472 2.33833e-17)
(1.21663 0.317227 9.0965e-18)
(1.2111 0.334364 1.67518e-17)
(1.20612 0.352785 3.1194e-17)
(1.20046 0.374927 1.72906e-17)
(1.1961 0.397742 2.10091e-17)
(1.18971 0.429175 -2.82495e-18)
(1.18841 0.459879 1.4436e-17)
(1.18192 0.505426 1.39457e-17)
(1.18764 0.536465 1.94963e-17)
(1.1482 0.551113 8.35959e-18)
(1.06558 0.472769 1.37278e-17)
(0.717379 0.246711 -6.69051e-18)
(0.397517 0.00318044 3.21108e-18)
(1.26429 0.227141 1.28615e-17)
(1.25975 0.245075 5.6713e-18)
(1.25274 0.253115 3.68938e-18)
(1.24731 0.267341 1.23922e-17)
(1.24119 0.279087 2.56055e-18)
(1.23611 0.293535 7.51282e-18)
(1.23068 0.30792 2.07457e-17)
(1.22591 0.324322 8.16264e-18)
(1.22118 0.342234 1.94274e-17)
(1.21719 0.362 2.60205e-17)
(1.21324 0.3855 2.45885e-17)
(1.21112 0.410975 1.21802e-17)
(1.20963 0.444174 3.41347e-19)
(1.21267 0.477301 1.81458e-17)
(1.20441 0.513394 1.98339e-17)
(1.16843 0.516649 1.26415e-17)
(1.03311 0.476089 5.01391e-18)
(0.755706 0.340803 3.01082e-18)
(0.33587 0.226971 -2.04955e-17)
(-0.0932905 0.0981537 -2.36125e-18)
(1.27104 0.231908 1.07068e-17)
(1.26624 0.249712 3.22546e-18)
(1.25952 0.257959 7.92744e-19)
(1.25426 0.272316 9.17701e-18)
(1.24859 0.284375 2.42743e-18)
(1.244 0.299219 7.63939e-18)
(1.23942 0.314156 1.11633e-17)
(1.23575 0.331183 8.40697e-18)
(1.23242 0.349725 1.90255e-17)
(1.23001 0.370401 2.39018e-17)
(1.22829 0.394567 3.10899e-17)
(1.2291 0.421056 3.16821e-18)
(1.22996 0.452051 6.39695e-18)
(1.22535 0.475587 1.81536e-17)
(1.18443 0.481237 1.75252e-17)
(1.0689 0.431719 3.9871e-18)
(0.819233 0.322609 -2.99746e-18)
(0.460693 0.158976 -1.38983e-17)
(0.0619012 0.0134004 -1.04569e-17)
(-0.00566859 -0.0273711 -8.30595e-18)
(1.27745 0.236442 7.45411e-18)
(1.27255 0.254152 4.68895e-18)
(1.26614 0.26251 9.14586e-18)
(1.2611 0.276945 8.87726e-18)
(1.25586 0.289166 2.92629e-18)
(1.25167 0.304162 7.4559e-18)
(1.24761 0.319259 2.47185e-17)
(1.2444 0.33652 8.11345e-18)
(1.24169 0.355451 2.20593e-17)
(1.24067 0.37689 2.55764e-17)
(1.24153 0.401467 2.03677e-17)
(1.24414 0.426945 4.33352e-18)
(1.23974 0.450215 1.11945e-17)
(1.20897 0.454704 1.5125e-17)
(1.10851 0.425029 1.01086e-17)
(0.898978 0.336203 -9.41695e-19)
(0.565515 0.212533 -5.64605e-18)
(0.191444 0.0795292 -9.74609e-18)
(-0.0384794 0.0816045 -2.27067e-17)
(-0.093438 0.064059 -6.63516e-18)
(1.28365 0.240719 9.91135e-18)
(1.27876 0.258322 1.32941e-18)
(1.2727 0.266721 -1.11701e-17)
(1.26798 0.281224 2.61626e-18)
(1.26326 0.293616 1.60358e-18)
(1.25973 0.308902 1.61522e-17)
(1.25668 0.324481 1.89717e-17)
(1.25501 0.3424 8.04036e-18)
(1.25455 0.361791 1.54089e-17)
(1.25601 0.383036 9.31036e-18)
(1.25794 0.405533 1.45476e-17)
(1.25561 0.42526 -8.69149e-19)
(1.23174 0.434319 5.42968e-18)
(1.15531 0.413804 1.1468e-17)
(0.980524 0.350739 2.8348e-18)
(0.68964 0.237582 -3.48455e-18)
(0.327346 0.118628 -4.25726e-18)
(0.0457761 0.0550217 -3.51768e-18)
(-0.0979255 0.0550702 -5.36959e-18)
(-0.0314738 0.0229951 -1.53627e-17)
(1.28964 0.244752 -2.20207e-18)
(1.28483 0.262236 1.84364e-18)
(1.27914 0.270638 5.55276e-18)
(1.27476 0.285163 1.475e-17)
(1.27053 0.297572 1.10187e-17)
(1.2675 0.312819 -1.76864e-18)
(1.26488 0.328158 1.5439e-17)
(1.26349 0.345521 4.28025e-18)
(1.26318 0.36404 1.85899e-17)
(1.2642 0.38413 8.93202e-18)
(1.2632 0.403691 8.17044e-18)
(1.24926 0.415383 6.49829e-18)
(1.19483 0.406721 8.86663e-18)
(1.0613 0.361053 8.24292e-18)
(0.81386 0.27486 3.14569e-18)
(0.475825 0.160679 5.51729e-18)
(0.153408 0.0890864 5.56295e-18)
(-0.0508787 0.070822 -1.64455e-18)
(-0.0980635 0.0908647 8.37703e-19)
(-0.0529657 0.0495246 -2.12433e-18)
(1.29539 0.24852 -2.81771e-18)
(1.29072 0.265831 2.01544e-18)
(1.2854 0.274159 4.53497e-18)
(1.28143 0.288663 1.47204e-17)
(1.27774 0.301098 9.05685e-18)
(1.27541 0.316525 1.00342e-17)
(1.27396 0.332232 1.37798e-17)
(1.27449 0.350141 1.42676e-17)
(1.27672 0.368914 3.62201e-18)
(1.27884 0.387356 1.23163e-18)
(1.27177 0.400087 1.40371e-17)
(1.23544 0.397326 4.80666e-18)
(1.1354 0.367542 6.85276e-18)
(0.937356 0.3012 4.29546e-18)
(0.632989 0.20544 -2.64103e-18)
(0.295301 0.11251 3.98077e-18)
(0.039324 0.0824153 -6.24908e-19)
(-0.0816461 0.0893322 -8.20364e-18)
(-0.105866 0.0926262 8.11418e-18)
(-0.0349066 0.0380626 6.87851e-19)
(1.3009 0.252067 1.16158e-18)
(1.29641 0.269207 2.74923e-18)
(1.29145 0.277484 8.91967e-18)
(1.28789 0.291963 7.24866e-18)
(1.2847 0.304312 7.49926e-18)
(1.2829 0.31949 1.10615e-17)
(1.28192 0.334437 1.30316e-17)
(1.2822 0.350658 6.38122e-18)
(1.28195 0.366169 2.57094e-18)
(1.27644 0.379053 5.18173e-18)
(1.25216 0.383022 9.99382e-18)
(1.18434 0.367945 2.88153e-18)
(1.03728 0.322672 3.39559e-18)
(0.786036 0.243753 1.29156e-18)
(0.456903 0.152469 -8.89485e-19)
(0.158365 0.0936021 4.60442e-18)
(-0.0261995 0.0952101 -1.35973e-19)
(-0.108954 0.103081 -2.11265e-18)
(-0.101631 0.102005 6.53025e-19)
(-0.0439597 0.0442292 -2.34494e-19)
(1.30615 0.25534 -5.70684e-18)
(1.30191 0.272209 2.29605e-18)
(1.29733 0.280281 -2.74554e-18)
(1.29424 0.294605 1.73694e-17)
(1.29155 0.306815 8.51989e-18)
(1.29043 0.32191 6.33678e-18)
(1.29036 0.336939 5.10624e-18)
(1.29179 0.353474 1.27889e-17)
(1.2921 0.369002 3.05405e-18)
(1.28312 0.379479 3.60784e-19)
(1.24427 0.374538 8.91113e-18)
(1.14287 0.341791 2.1696e-18)
(0.944481 0.276151 6.8846e-18)
(0.647083 0.189376 4.66968e-18)
(0.318111 0.1164 1.35728e-18)
(0.0692159 0.0888115 1.1445e-17)
(-0.0690377 0.0968871 6.75763e-18)
(-0.116964 0.100949 -5.78369e-18)
(-0.103782 0.09547 -1.14479e-18)
(-0.0411082 0.039689 -3.2547e-20)
(1.31118 0.258419 -6.38359e-18)
(1.30719 0.275084 8.4842e-19)
(1.30289 0.283136 6.8937e-18)
(1.30029 0.297464 1.12414e-17)
(1.29803 0.30954 -2.51536e-19)
(1.29749 0.324239 1.08727e-17)
(1.29755 0.338071 3.19309e-18)
(1.29729 0.351609 8.06119e-18)
(1.29029 0.360416 -4.0353e-18)
(1.26212 0.358324 2.08514e-18)
(1.18649 0.335444 5.74946e-18)
(1.03323 0.286416 3.23891e-19)
(0.785088 0.216459 6.48667e-19)
(0.472039 0.144026 3.36598e-18)
(0.181117 0.0975759 1.18874e-18)
(-0.00787003 0.0848986 4.32121e-18)
(-0.0993251 0.0889905 4.5397e-19)
(-0.121787 0.0879898 -6.1952e-19)
(-0.0954991 0.0836544 -1.3836e-18)
(-0.0375584 0.0366098 -3.28147e-19)
(1.18039 0.169299 4.39051e-17)
(1.17034 0.193405 1.46785e-17)
(1.1597 0.201999 -9.97533e-18)
(1.14592 0.220499 -3.52491e-17)
(1.13323 0.233878 -2.06447e-17)
(1.11713 0.25082 7.01616e-17)
(1.10103 0.266799 1.91011e-17)
(1.08138 0.2844 6.54809e-17)
(1.0596 0.302289 1.0948e-18)
(1.03328 0.320976 1.00198e-17)
(1.00259 0.34006 3.73916e-17)
(0.965037 0.35898 -3.74935e-17)
(0.920765 0.377707 -8.28155e-17)
(0.866127 0.394671 -8.46354e-18)
(0.805474 0.40951 6.62601e-17)
(0.728932 0.418206 1.59797e-16)
(0.653255 0.42684 2.0717e-16)
(0.547619 0.412983 1.257e-16)
(0.431201 0.398029 1.50001e-17)
(0.192136 0.196028 2.4567e-17)
(1.1881 0.174801 3.88337e-17)
(1.17863 0.198677 1.2091e-17)
(1.16828 0.207332 -3.64447e-18)
(1.15535 0.225771 -3.25177e-17)
(1.14337 0.239257 -1.83589e-17)
(1.12842 0.256452 2.74009e-17)
(1.11353 0.272689 2.05202e-17)
(1.09552 0.290937 1.87776e-17)
(1.07576 0.309677 3.40104e-17)
(1.05195 0.329659 4.89209e-17)
(1.02439 0.350642 -7.6232e-18)
(0.990467 0.371929 -2.35693e-17)
(0.950668 0.394049 -3.74691e-18)
(0.901386 0.414341 -3.57825e-19)
(0.846858 0.435721 -7.43279e-18)
(0.778312 0.448262 1.21433e-16)
(0.708414 0.469446 1.45291e-16)
(0.618469 0.457778 1.73854e-17)
(0.495324 0.45091 1.0436e-16)
(0.245575 0.220051 2.39918e-17)
(1.1957 0.180297 2.2633e-17)
(1.18695 0.20382 9.64477e-18)
(1.17687 0.212471 -1.75054e-17)
(1.16495 0.230736 -1.62344e-17)
(1.15362 0.24425 -9.28715e-18)
(1.13992 0.261552 1.71151e-17)
(1.12622 0.277927 5.28135e-18)
(1.10983 0.296606 2.44109e-17)
(1.0919 0.316005 3.30999e-17)
(1.07027 0.337026 2.9848e-17)
(1.04522 0.359711 -2.74264e-18)
(1.01406 0.383218 -3.08891e-17)
(0.977246 0.408918 -3.28539e-17)
(0.930338 0.433101 -2.12784e-17)
(0.877741 0.460944 -7.77086e-18)
(0.809987 0.479139 7.38174e-17)
(0.7388 0.508445 7.6309e-17)
(0.645323 0.500905 4.98074e-17)
(0.504322 0.485156 6.80769e-17)
(0.229303 0.224324 4.60967e-18)
(1.20327 0.18574 3.9221e-17)
(1.19522 0.208805 6.45513e-18)
(1.18542 0.217401 2.0228e-17)
(1.17441 0.235374 -3.83008e-17)
(1.16373 0.248838 -1.75816e-17)
(1.1512 0.266092 2.43055e-17)
(1.13863 0.282474 3.57028e-17)
(1.1238 0.301352 -3.0139e-18)
(1.10768 0.321168 1.58671e-17)
(1.08836 0.342846 5.48429e-17)
(1.06611 0.366805 3.30446e-18)
(1.03844 0.391804 1.3552e-17)
(1.00576 0.420544 3.6992e-17)
(0.964052 0.447285 3.40942e-17)
(0.916254 0.481855 1.10824e-18)
(0.85688 0.504054 1.15186e-16)
(0.787194 0.546954 1.13288e-16)
(0.706801 0.542428 -2.11848e-17)
(0.54482 0.520921 3.66927e-17)
(0.246008 0.235294 9.91249e-18)
(1.21089 0.191158 3.38693e-17)
(1.2035 0.21368 1.3486e-17)
(1.19402 0.222206 -1.67376e-17)
(1.18388 0.239804 -3.01241e-17)
(1.17385 0.253162 1.064e-17)
(1.16248 0.270251 -6.38071e-18)
(1.15108 0.286537 2.28762e-17)
(1.13788 0.305423 -9.39862e-18)
(1.12368 0.325432 4.00756e-17)
(1.10684 0.347428 4.51255e-17)
(1.08757 0.372295 7.55763e-18)
(1.06363 0.398293 1.29012e-17)
(1.03506 0.429516 -1.61536e-17)
(0.998487 0.458365 2.39801e-17)
(0.954869 0.497451 5.69266e-18)
(0.901139 0.523117 8.62436e-17)
(0.833244 0.56656 7.81814e-17)
(0.745058 0.565311 3.33058e-18)
(0.575521 0.528717 1.92026e-17)
(0.236435 0.230399 3.77684e-18)
(1.21857 0.196469 2.4305e-17)
(1.21183 0.218329 -1.20332e-17)
(1.20272 0.226709 6.89303e-18)
(1.19345 0.243791 -2.39231e-17)
(1.18411 0.256905 6.63868e-18)
(1.17393 0.273619 -3.30283e-18)
(1.16373 0.289595 2.56021e-17)
(1.15221 0.308156 2.48642e-17)
(1.13997 0.327997 3.25105e-17)
(1.1258 0.349794 3.53915e-17)
(1.10958 0.374989 7.20494e-18)
(1.08994 0.401194 7.75814e-18)
(1.0654 0.434256 4.29619e-19)
(1.03569 0.464427 1.67507e-17)
(0.995499 0.509293 4.96046e-18)
(0.953542 0.540893 6.52475e-17)
(0.885033 0.604465 5.6065e-17)
(0.824392 0.614541 1.08143e-17)
(0.622278 0.588808 1.5419e-17)
(0.279309 0.255453 2.49178e-18)
(1.2263 0.201784 2.18141e-17)
(1.22014 0.222953 -5.25658e-18)
(1.2114 0.231217 6.04614e-18)
(1.20295 0.247776 -1.45671e-17)
(1.19427 0.260651 4.97512e-18)
(1.18521 0.27697 -2.09081e-18)
(1.17612 0.292637 -2.04358e-18)
(1.1662 0.310833 1.9285e-17)
(1.15585 0.330388 2.72484e-17)
(1.14419 0.351878 3.19649e-17)
(1.13089 0.377152 1.30469e-17)
(1.11509 0.403523 9.76984e-18)
(1.09501 0.437595 -2.38803e-17)
(1.07099 0.468973 1.22739e-17)
(1.03716 0.514383 1.02413e-17)
(1.00022 0.545585 4.9794e-17)
(0.941219 0.591036 3.86701e-17)
(0.849831 0.593369 1.80535e-17)
(0.660121 0.532684 8.96449e-18)
(0.237792 0.225042 7.86093e-18)
(1.23399 0.206851 7.78843e-18)
(1.22845 0.227155 -1.2203e-17)
(1.22011 0.235115 3.67482e-19)
(1.21249 0.250889 -2.06833e-17)
(1.2045 0.263247 2.40036e-18)
(1.19658 0.2788 -2.06369e-18)
(1.18862 0.293749 -1.01126e-17)
(1.18036 0.310989 1.72839e-17)
(1.1718 0.32964 2.1809e-17)
(1.16259 0.349946 1.8572e-17)
(1.15206 0.374336 8.16019e-19)
(1.14059 0.399204 -1.55246e-18)
(1.125 0.433172 -2.24998e-17)
(1.10845 0.463981 -4.40473e-18)
(1.07969 0.514571 -5.22716e-18)
(1.0548 0.554606 4.1422e-17)
(1.0003 0.640457 3.49587e-17)
(0.965668 0.68041 1.32282e-17)
(0.761736 0.6992 8.59367e-18)
(0.380704 0.314347 -6.1386e-18)
(1.24169 0.212094 2.58257e-17)
(1.23661 0.231697 1.23625e-17)
(1.22858 0.239605 6.04315e-18)
(1.22165 0.254873 8.84072e-18)
(1.21419 0.267001 2.70291e-18)
(1.20723 0.282147 2.58031e-19)
(1.20015 0.296789 1.22953e-17)
(1.19314 0.313633 9.18249e-18)
(1.18582 0.331976 1.62021e-17)
(1.17831 0.351886 3.63301e-17)
(1.1699 0.375935 2.73201e-17)
(1.16132 0.400509 2.50592e-17)
(1.14958 0.43425 -1.26089e-17)
(1.13865 0.465249 2.47195e-17)
(1.11807 0.512539 2.43768e-17)
(1.10024 0.543328 2.4945e-17)
(1.05284 0.578237 7.42496e-18)
(0.970825 0.563558 3.20852e-17)
(0.743915 0.464218 1.59645e-17)
(0.252939 0.175402 1.12428e-18)
(1.24925 0.216706 2.12438e-17)
(1.24483 0.235165 9.46704e-18)
(1.23726 0.242401 -6.99503e-18)
(1.23115 0.256364 -1.67916e-18)
(1.22439 0.267463 1.86395e-18)
(1.21852 0.281181 -5.69847e-19)
(1.21243 0.294438 1.74105e-17)
(1.2068 0.309452 2.52676e-17)
(1.20092 0.325931 1.36986e-17)
(1.19582 0.343159 3.93819e-17)
(1.18975 0.364513 2.71535e-17)
(1.18587 0.384858 2.29582e-17)
(1.17772 0.414919 -4.77728e-18)
(1.17443 0.440959 2.9214e-18)
(1.1551 0.490729 1.68401e-17)
(1.1471 0.53854 3.64132e-17)
(1.1104 0.641802 9.06522e-18)
(1.12274 0.729511 2.7757e-17)
(0.993037 0.819647 -5.10912e-18)
(0.668354 0.394529 1.17398e-18)
(1.24925 -0.216706 2.6763e-17)
(1.24483 -0.235165 1.93963e-17)
(1.23726 -0.242401 5.1532e-18)
(1.23115 -0.256364 1.15258e-17)
(1.22439 -0.267463 2.27905e-18)
(1.21852 -0.281181 -8.8136e-18)
(1.21243 -0.294438 7.0607e-18)
(1.2068 -0.309452 -3.37506e-18)
(1.20092 -0.325931 -1.47185e-17)
(1.19582 -0.343159 -2.40493e-17)
(1.18975 -0.364513 -5.8883e-19)
(1.18587 -0.384858 9.54798e-18)
(1.17772 -0.414919 -1.25442e-17)
(1.17443 -0.440959 -5.56559e-18)
(1.1551 -0.490729 -4.10042e-18)
(1.1471 -0.53854 -4.82609e-17)
(1.1104 -0.641802 -3.36684e-17)
(1.12274 -0.729511 -2.33604e-17)
(0.993037 -0.819647 3.17725e-18)
(0.668354 -0.394529 -5.08534e-18)
(1.24169 -0.212094 1.50279e-17)
(1.23661 -0.231697 1.49777e-17)
(1.22858 -0.239605 9.91788e-18)
(1.22165 -0.254873 1.86488e-17)
(1.21419 -0.267001 2.25819e-19)
(1.20723 -0.282147 -7.3392e-18)
(1.20015 -0.296789 6.13593e-18)
(1.19314 -0.313633 1.23382e-18)
(1.18582 -0.331976 -2.10254e-17)
(1.17831 -0.351886 -2.91915e-17)
(1.1699 -0.375935 9.83112e-18)
(1.16132 -0.400509 3.75026e-18)
(1.14958 -0.43425 -3.71278e-17)
(1.13865 -0.465249 -2.54333e-17)
(1.11807 -0.512539 -1.57002e-17)
(1.10024 -0.543328 -5.50424e-17)
(1.05284 -0.578237 -2.00521e-17)
(0.970825 -0.563558 -1.83974e-17)
(0.743915 -0.464218 -1.50835e-17)
(0.252939 -0.175402 -1.03559e-17)
(1.23399 -0.206851 2.47129e-17)
(1.22845 -0.227155 2.19875e-17)
(1.22011 -0.235115 8.56879e-18)
(1.21249 -0.250889 2.28819e-17)
(1.2045 -0.263247 -2.91277e-17)
(1.19658 -0.2788 -1.17281e-17)
(1.18862 -0.293749 1.04742e-17)
(1.18036 -0.310989 3.17575e-19)
(1.1718 -0.32964 -2.7236e-17)
(1.16259 -0.349946 -3.74969e-17)
(1.15206 -0.374336 1.43196e-17)
(1.14059 -0.399204 8.58039e-18)
(1.125 -0.433172 -4.32713e-17)
(1.10845 -0.463981 -1.78035e-17)
(1.07969 -0.514571 -1.21537e-17)
(1.0548 -0.554606 -3.9075e-17)
(1.0003 -0.640457 7.30893e-18)
(0.965668 -0.68041 -2.69375e-17)
(0.761736 -0.6992 -1.23708e-17)
(0.380704 -0.314347 8.21977e-18)
(1.2263 -0.201784 1.2211e-18)
(1.22014 -0.222953 2.56838e-17)
(1.2114 -0.231217 8.43627e-18)
(1.20295 -0.247776 5.19462e-18)
(1.19427 -0.260651 -2.92116e-17)
(1.18521 -0.27697 -1.17953e-17)
(1.17612 -0.292637 -1.66259e-17)
(1.1662 -0.310833 3.08464e-18)
(1.15585 -0.330388 -1.4011e-18)
(1.14419 -0.351878 -4.94129e-17)
(1.13089 -0.377152 2.5749e-17)
(1.11509 -0.403523 4.31914e-18)
(1.09501 -0.437595 -2.42529e-17)
(1.07099 -0.468973 1.56721e-17)
(1.03716 -0.514383 -1.33166e-17)
(1.00022 -0.545585 -6.46991e-17)
(0.941219 -0.591036 -3.77425e-19)
(0.849831 -0.593369 -3.07559e-17)
(0.660121 -0.532684 -1.84665e-17)
(0.237792 -0.225042 -1.9192e-18)
(1.21857 -0.196469 1.03969e-17)
(1.21183 -0.218329 3.34404e-17)
(1.20272 -0.226709 9.21106e-18)
(1.19345 -0.243791 -1.0802e-17)
(1.18411 -0.256905 -4.15828e-17)
(1.17393 -0.273619 -1.24107e-17)
(1.16373 -0.289595 -1.05442e-17)
(1.15221 -0.308156 -2.68606e-17)
(1.13997 -0.327997 -1.52364e-17)
(1.1258 -0.349794 -3.08969e-17)
(1.10958 -0.374989 4.80803e-18)
(1.08994 -0.401194 5.02018e-18)
(1.0654 -0.434256 -4.83584e-17)
(1.03569 -0.464427 1.20848e-17)
(0.995499 -0.509293 -2.2676e-17)
(0.953542 -0.540893 -7.90673e-17)
(0.885033 -0.604465 1.29358e-17)
(0.824392 -0.614541 -4.14495e-17)
(0.622278 -0.588808 -2.59376e-17)
(0.279309 -0.255453 -8.73996e-19)
(1.21089 -0.191158 5.65278e-18)
(1.2035 -0.21368 4.17063e-17)
(1.19402 -0.222206 1.19756e-17)
(1.18388 -0.239804 -4.29215e-18)
(1.17385 -0.253162 -1.97319e-17)
(1.16248 -0.270251 -4.5506e-17)
(1.15108 -0.286537 -1.54487e-17)
(1.13788 -0.305423 -2.15956e-17)
(1.12368 -0.325432 -8.88372e-18)
(1.10684 -0.347428 -1.44635e-17)
(1.08757 -0.372295 -1.82118e-17)
(1.06363 -0.398293 5.03599e-17)
(1.03506 -0.429516 -6.22526e-17)
(0.998487 -0.458365 3.24316e-17)
(0.954869 -0.497451 -3.18932e-17)
(0.901139 -0.523117 -5.26148e-17)
(0.833244 -0.56656 3.34582e-17)
(0.745058 -0.565311 -5.68863e-17)
(0.575521 -0.528717 -4.1612e-17)
(0.236435 -0.230399 3.62112e-18)
(1.20327 -0.18574 4.28415e-18)
(1.19522 -0.208805 2.33287e-17)
(1.18542 -0.217401 1.30761e-17)
(1.17441 -0.235374 -7.88197e-18)
(1.16373 -0.248838 -3.15721e-18)
(1.1512 -0.266092 -1.04728e-17)
(1.13863 -0.282474 2.17832e-17)
(1.1238 -0.301352 -2.87669e-17)
(1.10768 -0.321168 -1.35904e-17)
(1.08836 -0.342846 1.26925e-17)
(1.06611 -0.366805 -1.44827e-17)
(1.03844 -0.391804 5.57767e-17)
(1.00576 -0.420544 -4.89863e-17)
(0.964052 -0.447285 -4.53506e-18)
(0.916254 -0.481855 1.16394e-17)
(0.85688 -0.504054 -1.38031e-17)
(0.787194 -0.546954 5.17676e-17)
(0.706801 -0.542428 1.69361e-17)
(0.54482 -0.520921 -6.00461e-17)
(0.246008 -0.235294 1.41051e-17)
(1.1957 -0.180297 3.78964e-18)
(1.18695 -0.20382 3.99404e-17)
(1.17687 -0.212471 1.69391e-17)
(1.16495 -0.230736 -8.24026e-18)
(1.15362 -0.24425 -1.16813e-17)
(1.13992 -0.261552 -3.22981e-17)
(1.12622 -0.277927 -2.32655e-17)
(1.10983 -0.296606 1.94345e-18)
(1.0919 -0.316005 -1.43601e-17)
(1.07027 -0.337026 -3.69027e-17)
(1.04522 -0.359711 -2.4681e-17)
(1.01406 -0.383218 3.15961e-17)
(0.977246 -0.408918 -3.85505e-17)
(0.930338 -0.433101 1.75972e-17)
(0.877741 -0.460944 -7.00362e-17)
(0.809987 -0.479139 -3.33318e-17)
(0.7388 -0.508445 6.56981e-17)
(0.645323 -0.500905 9.85462e-18)
(0.504322 -0.485156 1.82341e-17)
(0.229303 -0.224324 5.48326e-17)
(1.1881 -0.174801 1.14289e-18)
(1.17863 -0.198677 4.43089e-17)
(1.16828 -0.207332 2.05997e-17)
(1.15535 -0.225771 -1.08077e-17)
(1.14337 -0.239257 -1.10735e-17)
(1.12842 -0.256452 -3.24542e-17)
(1.11353 -0.272689 -7.81251e-18)
(1.09552 -0.290937 -5.62928e-18)
(1.07576 -0.309677 -2.16888e-17)
(1.05195 -0.329659 -2.86724e-17)
(1.02439 -0.350642 -2.60132e-17)
(0.990467 -0.371929 6.26306e-17)
(0.950668 -0.394049 -6.55707e-17)
(0.901386 -0.414341 2.46825e-17)
(0.846858 -0.435721 -6.86054e-17)
(0.778312 -0.448262 -3.18761e-17)
(0.708414 -0.469446 9.31192e-17)
(0.618469 -0.457778 1.21183e-17)
(0.495324 -0.45091 1.63515e-17)
(0.245575 -0.220051 1.11106e-16)
(1.18039 -0.169299 2.76531e-17)
(1.17034 -0.193405 8.75019e-17)
(1.1597 -0.201999 -7.08638e-18)
(1.14592 -0.220499 2.00954e-17)
(1.13323 -0.233878 -1.42843e-17)
(1.11713 -0.25082 -4.39127e-17)
(1.10103 -0.266799 -1.55541e-17)
(1.08138 -0.2844 -4.17966e-17)
(1.0596 -0.302289 -7.06622e-17)
(1.03328 -0.320976 4.61045e-18)
(1.00259 -0.34006 1.92319e-17)
(0.965037 -0.35898 8.16566e-17)
(0.920765 -0.377707 -3.47548e-17)
(0.866127 -0.394671 -2.3741e-17)
(0.805474 -0.40951 -1.13003e-16)
(0.728932 -0.418206 -2.99663e-17)
(0.653255 -0.42684 1.35148e-16)
(0.547619 -0.412983 1.32294e-17)
(0.431201 -0.398029 3.9843e-18)
(0.192136 -0.196028 1.58561e-17)
(1.31118 -0.258419 1.88396e-18)
(1.30719 -0.275084 -8.29299e-18)
(1.30289 -0.283136 5.6139e-19)
(1.30029 -0.297464 3.40852e-18)
(1.29803 -0.30954 2.73891e-18)
(1.29749 -0.324239 6.64393e-19)
(1.29755 -0.338071 1.12916e-19)
(1.29729 -0.351609 1.22764e-18)
(1.29029 -0.360416 -4.56196e-18)
(1.26212 -0.358324 2.1239e-18)
(1.18649 -0.335444 -2.88367e-18)
(1.03323 -0.286416 -4.2751e-18)
(0.785088 -0.216459 -4.19405e-18)
(0.472039 -0.144026 4.34425e-18)
(0.181117 -0.0975759 -1.07339e-17)
(-0.00787003 -0.0848986 -1.28998e-17)
(-0.0993251 -0.0889905 -9.56192e-19)
(-0.121787 -0.0879898 -7.53892e-18)
(-0.0954991 -0.0836544 -2.2131e-18)
(-0.0375584 -0.0366098 -2.16158e-19)
(1.30615 -0.25534 3.62719e-18)
(1.30191 -0.272209 -1.01828e-18)
(1.29733 -0.280281 -2.51085e-19)
(1.29424 -0.294605 3.49668e-18)
(1.29155 -0.306815 -5.58301e-18)
(1.29043 -0.32191 1.129e-18)
(1.29036 -0.336939 -8.56506e-18)
(1.29179 -0.353474 2.59409e-18)
(1.2921 -0.369002 -6.02447e-18)
(1.28312 -0.379479 -1.47584e-18)
(1.24427 -0.374538 -1.83132e-18)
(1.14287 -0.341791 -6.56692e-18)
(0.944481 -0.276151 -2.17853e-18)
(0.647083 -0.189376 -3.18615e-18)
(0.318111 -0.1164 4.39009e-18)
(0.0692159 -0.0888115 -4.09313e-18)
(-0.0690377 -0.0968871 3.51078e-19)
(-0.116964 -0.100949 -4.2699e-18)
(-0.103782 -0.09547 -7.21849e-18)
(-0.0411082 -0.039689 -4.60926e-19)
(1.3009 -0.252067 4.16987e-18)
(1.29641 -0.269207 -5.16134e-18)
(1.29145 -0.277484 -7.88197e-19)
(1.28789 -0.291963 5.94033e-18)
(1.2847 -0.304312 -2.86257e-18)
(1.2829 -0.31949 3.19982e-18)
(1.28192 -0.334437 2.40988e-18)
(1.2822 -0.350658 -6.43582e-18)
(1.28195 -0.366169 -6.40231e-18)
(1.27644 -0.379053 5.13114e-18)
(1.25216 -0.383022 -1.0244e-18)
(1.18434 -0.367945 -6.58069e-18)
(1.03728 -0.322672 -1.98045e-18)
(0.786036 -0.243753 -5.41536e-18)
(0.456903 -0.152469 -2.70058e-18)
(0.158365 -0.0936021 -7.43444e-19)
(-0.0261995 -0.0952101 1.73447e-18)
(-0.108954 -0.103081 -2.35635e-18)
(-0.101631 -0.102005 -2.70868e-18)
(-0.0439597 -0.0442292 1.31763e-18)
(1.29539 -0.24852 6.18336e-18)
(1.29072 -0.265831 -4.50667e-18)
(1.2854 -0.274159 -2.1242e-18)
(1.28143 -0.288663 7.61054e-18)
(1.27774 -0.301098 -5.22675e-18)
(1.27541 -0.316525 1.80603e-18)
(1.27396 -0.332232 2.64243e-19)
(1.27449 -0.350141 -2.24615e-18)
(1.27672 -0.368914 -1.17481e-17)
(1.27884 -0.387356 2.42824e-18)
(1.27177 -0.400087 2.36266e-18)
(1.23544 -0.397326 -8.59081e-18)
(1.1354 -0.367542 -2.47307e-18)
(0.937356 -0.3012 -6.89478e-18)
(0.632989 -0.20544 -4.09714e-18)
(0.295301 -0.11251 2.85503e-19)
(0.039324 -0.0824153 2.79605e-18)
(-0.0816461 -0.0893322 -1.90348e-18)
(-0.105866 -0.0926262 -1.69655e-19)
(-0.0349066 -0.0380626 6.80829e-18)
(1.28964 -0.244752 -3.97705e-18)
(1.28483 -0.262236 -1.95032e-17)
(1.27914 -0.270638 9.84772e-18)
(1.27476 -0.285163 -3.21579e-18)
(1.27053 -0.297572 -5.46324e-18)
(1.2675 -0.312819 2.6019e-18)
(1.26488 -0.328158 2.71391e-18)
(1.26349 -0.345521 1.09129e-17)
(1.26318 -0.36404 -3.39535e-18)
(1.2642 -0.38413 -8.64411e-18)
(1.2632 -0.403691 5.91092e-18)
(1.24926 -0.415383 -9.09666e-18)
(1.19483 -0.406721 -4.04466e-18)
(1.0613 -0.361053 -1.10709e-17)
(0.81386 -0.27486 -8.22599e-18)
(0.475825 -0.160679 7.71215e-19)
(0.153408 -0.0890864 5.25957e-18)
(-0.0508787 -0.070822 -2.76956e-18)
(-0.0980635 -0.0908647 -2.4343e-18)
(-0.0529657 -0.0495246 1.1687e-18)
(1.28365 -0.240719 3.4341e-18)
(1.27876 -0.258322 -6.87009e-18)
(1.2727 -0.266721 7.19595e-18)
(1.26798 -0.281224 2.68444e-18)
(1.26326 -0.293616 -8.23122e-18)
(1.25973 -0.308902 1.58423e-18)
(1.25668 -0.324481 -8.41079e-19)
(1.25501 -0.3424 9.43106e-18)
(1.25455 -0.361791 -2.87151e-18)
(1.25601 -0.383036 -9.46606e-18)
(1.25794 -0.405533 8.80622e-18)
(1.25561 -0.42526 -9.45355e-18)
(1.23174 -0.434319 -6.00922e-18)
(1.15531 -0.413804 -1.12994e-17)
(0.980524 -0.350739 -9.84345e-18)
(0.68964 -0.237582 -2.02379e-18)
(0.327346 -0.118628 -1.17066e-17)
(0.0457761 -0.0550217 -7.19375e-18)
(-0.0979255 -0.0550702 -1.52421e-17)
(-0.0314738 -0.0229951 -1.1565e-18)
(1.27745 -0.236442 2.49994e-18)
(1.27255 -0.254152 -1.80586e-17)
(1.26614 -0.26251 9.93722e-18)
(1.2611 -0.276945 3.46566e-18)
(1.25586 -0.289166 -1.02313e-17)
(1.25167 -0.304162 1.5919e-18)
(1.24761 -0.319259 -2.12098e-18)
(1.2444 -0.33652 -1.23607e-18)
(1.24169 -0.355451 7.01359e-19)
(1.24067 -0.37689 -2.50878e-18)
(1.24153 -0.401467 3.84767e-19)
(1.24414 -0.426945 -1.90824e-17)
(1.23974 -0.450215 -4.53871e-18)
(1.20897 -0.454704 -1.31394e-17)
(1.10851 -0.425029 -1.66107e-17)
(0.898978 -0.336203 -7.0285e-18)
(0.565515 -0.212533 -3.91699e-18)
(0.191444 -0.0795292 -9.70681e-18)
(-0.0384794 -0.0816045 -3.75085e-18)
(-0.093438 -0.064059 3.65673e-19)
(1.27104 -0.231908 7.65339e-18)
(1.26624 -0.249712 -4.55911e-18)
(1.25952 -0.257959 1.10107e-17)
(1.25426 -0.272316 8.0972e-18)
(1.24859 -0.284375 -1.40679e-17)
(1.244 -0.299219 1.24166e-18)
(1.23942 -0.314156 -1.17437e-18)
(1.23575 -0.331183 2.00363e-18)
(1.23242 -0.349725 1.25817e-19)
(1.23001 -0.370401 -6.92405e-18)
(1.22829 -0.394567 -2.53365e-18)
(1.2291 -0.421056 -2.09772e-17)
(1.22996 -0.452051 -6.35771e-18)
(1.22535 -0.475587 -1.02386e-17)
(1.18443 -0.481237 -2.21494e-17)
(1.0689 -0.431719 -1.21211e-17)
(0.819233 -0.322609 -6.12885e-18)
(0.460693 -0.158976 -1.63025e-17)
(0.0619012 -0.0134004 1.91187e-18)
(-0.00566859 0.0273711 7.21428e-18)
(1.26429 -0.227141 8.84924e-18)
(1.25975 -0.245075 3.23007e-18)
(1.25274 -0.253115 1.36534e-17)
(1.24731 -0.267341 1.36193e-17)
(1.24119 -0.279087 4.31215e-18)
(1.23611 -0.293535 8.90393e-19)
(1.23068 -0.30792 -3.18758e-18)
(1.22591 -0.324322 -6.73963e-19)
(1.22118 -0.342234 -1.77616e-17)
(1.21719 -0.362 -4.16996e-18)
(1.21324 -0.3855 6.90286e-18)
(1.21112 -0.410975 -7.53604e-18)
(1.20963 -0.444174 -1.11383e-17)
(1.21267 -0.477301 -4.86913e-18)
(1.20441 -0.513394 -2.68053e-17)
(1.16843 -0.516649 -2.05983e-17)
(1.03311 -0.476089 -5.43269e-18)
(0.755706 -0.340803 -1.12097e-18)
(0.33587 -0.226971 6.92702e-18)
(-0.0932905 -0.0981537 1.11901e-17)
(1.25702 -0.222127 1.11846e-17)
(1.25268 -0.240267 -2.95414e-18)
(1.24534 -0.247979 1.52173e-17)
(1.23966 -0.262076 1.65454e-17)
(1.23317 -0.273511 -1.4388e-18)
(1.22776 -0.287611 3.34425e-18)
(1.22191 -0.301472 -3.35739e-18)
(1.21663 -0.317227 6.21849e-18)
(1.2111 -0.334364 -1.47298e-17)
(1.20612 -0.352785 -1.48867e-17)
(1.20046 -0.374927 8.45567e-18)
(1.1961 -0.397742 -1.07453e-17)
(1.18971 -0.429175 -1.32504e-17)
(1.18841 -0.459879 -1.55653e-17)
(1.18192 -0.505426 -2.55005e-17)
(1.18764 -0.536465 -4.55856e-17)
(1.1482 -0.551113 -1.81104e-17)
(1.06558 -0.472769 -1.16009e-17)
(0.717379 -0.246711 5.47458e-18)
(0.397517 -0.00318044 4.34024e-17)
(1.15539 -0.151651 -1.16633e-17)
(1.14426 -0.176014 2.17427e-17)
(1.13251 -0.184318 1.00175e-17)
(1.11808 -0.202692 2.94527e-18)
(1.10366 -0.215457 -2.71443e-17)
(1.08679 -0.231204 -7.62558e-17)
(1.06903 -0.245825 -6.77434e-18)
(1.0485 -0.260515 -2.0821e-17)
(1.02559 -0.274631 -7.7245e-17)
(0.999023 -0.287657 -1.18828e-17)
(0.968528 -0.299123 -2.40653e-17)
(0.93284 -0.308123 -2.79117e-17)
(0.89148 -0.313016 2.96908e-17)
(0.842497 -0.312721 3.01328e-17)
(0.786468 -0.305511 4.60295e-17)
(0.722663 -0.290335 -1.15488e-17)
(0.653838 -0.264275 -4.62662e-17)
(0.576024 -0.227477 -1.48066e-18)
(0.50973 -0.169927 7.39737e-18)
(0.391058 -0.0841353 2.70998e-17)
(1.12153 -0.117278 -3.8665e-19)
(1.11227 -0.136093 -5.62395e-18)
(1.10175 -0.141618 9.02675e-18)
(1.08944 -0.154444 6.3101e-17)
(1.07614 -0.162732 -5.9967e-18)
(1.0617 -0.172559 -1.95902e-17)
(1.04587 -0.181228 -2.26756e-17)
(1.02884 -0.189526 -2.39035e-17)
(1.01035 -0.197196 -2.65423e-17)
(0.990601 -0.204046 -1.23308e-17)
(0.969436 -0.209537 -3.54497e-18)
(0.94695 -0.213166 -1.81099e-19)
(0.923018 -0.214284 -1.28475e-17)
(0.897793 -0.211705 9.63152e-19)
(0.870833 -0.204139 9.01069e-18)
(0.842261 -0.189821 -2.90479e-18)
(0.812652 -0.168517 3.24339e-18)
(0.783416 -0.134219 -5.03468e-18)
(0.75823 -0.0949553 3.16916e-18)
(0.747566 -0.0359697 8.41906e-18)
(1.09177 -0.0959119 -6.23249e-18)
(1.0833 -0.112292 -4.82867e-18)
(1.07379 -0.116991 -1.62997e-17)
(1.06245 -0.127722 -3.22157e-17)
(1.05036 -0.133939 -3.37741e-17)
(1.03701 -0.140818 -1.06818e-16)
(1.02252 -0.146019 -4.99948e-17)
(1.00657 -0.15006 -6.63327e-17)
(0.989097 -0.152594 -1.418e-16)
(0.969874 -0.153386 -4.62922e-17)
(0.948922 -0.152242 -3.00444e-17)
(0.926331 -0.148901 -9.53951e-18)
(0.902475 -0.143098 -1.97282e-17)
(0.877904 -0.134666 1.57024e-17)
(0.85359 -0.123294 8.08784e-17)
(0.83045 -0.108933 -2.69973e-17)
(0.809401 -0.0906589 -1.70085e-17)
(0.790648 -0.0693353 -2.80646e-17)
(0.776111 -0.0431109 1.38137e-17)
(0.762046 -0.0147256 1.36781e-16)
(1.06941 -0.0689546 -1.28839e-17)
(1.06273 -0.0812334 -8.39005e-18)
(1.05537 -0.0845511 -1.33068e-17)
(1.04657 -0.0923317 -1.27395e-17)
(1.03731 -0.0968093 -1.34387e-17)
(1.02752 -0.101873 -2.61594e-17)
(1.01737 -0.105783 -1.04294e-16)
(1.00703 -0.10891 -1.00009e-16)
(0.996576 -0.111043 -1.15417e-16)
(0.986156 -0.111991 -1.14963e-16)
(0.975803 -0.111522 -8.84552e-17)
(0.965529 -0.109383 -1.48641e-17)
(0.95526 -0.105299 -8.73018e-17)
(0.944939 -0.0989733 -1.79593e-17)
(0.934534 -0.0902358 -1.02031e-16)
(0.924316 -0.0788766 -9.90625e-17)
(0.914775 -0.0651844 -1.5152e-17)
(0.907058 -0.0488308 -9.76005e-17)
(0.901828 -0.0308921 -1.83039e-17)
(0.900735 -0.0107618 -1.02135e-16)
(1.05119 -0.0557692 -3.37397e-17)
(1.04568 -0.0652446 -1.81099e-17)
(1.03951 -0.0675312 -4.16591e-17)
(1.03201 -0.0730793 -5.24754e-17)
(1.02399 -0.0757424 -5.05521e-17)
(1.01521 -0.0784956 -9.17503e-17)
(1.00573 -0.0800389 7.96183e-18)
(0.995497 -0.0806769 4.62648e-17)
(0.984537 -0.0803067 -5.70347e-17)
(0.972913 -0.0788822 1.69938e-17)
(0.960802 -0.076384 6.58347e-17)
(0.948469 -0.0727968 3.68869e-17)
(0.936294 -0.0681105 7.38066e-17)
(0.924703 -0.0623287 5.82659e-17)
(0.914132 -0.0554127 1.88003e-16)
(0.904864 -0.0474007 9.28867e-17)
(0.897069 -0.0381993 4.06749e-17)
(0.890612 -0.028077 7.44979e-17)
(0.885684 -0.0170124 5.15804e-17)
(0.882235 -0.00563645 1.88797e-16)
(1.03797 -0.0384231 -8.77507e-17)
(1.03391 -0.0457451 -2.44814e-17)
(1.02957 -0.0476929 -1.02303e-16)
(1.02437 -0.0522049 -1.28942e-16)
(1.01906 -0.054632 -9.34922e-17)
(1.01359 -0.0572135 -6.68865e-18)
(1.00814 -0.0589726 -7.06523e-17)
(1.00281 -0.0601152 1.01555e-16)
(0.997684 -0.0605228 6.05248e-18)
(0.992802 -0.0601128 -7.37718e-17)