/*--------------------------------*- C++ -*----------------------------------*\
  =========                 |
  \\      /  F ield         | OpenFOAM: The Open Source CFD Toolbox
   \\    /   O peration     | Website:  https://openfoam.org
    \\  /    A nd           | Version:  7
     \\/     M anipulation  |
\*---------------------------------------------------------------------------*/
FoamFile
{
    version     2.0;
    format      ascii;
    class       volScalarField;
    location    "20";
    object      p;
}
// * * * * * * * * * * * * * * * * * * * * * * * * * * * * * * * * * * * * * //

dimensions      [0 2 -2 0 0 0 0];

internalField   nonuniform List<scalar> 
75
(
0.00122218
6.93111e-05
-0.00154404
-0.0106322
-0.0242885
-0.000607154
-0.00245986
-0.00500536
-0.0135518
-0.0259378
-0.0475934
-0.0908267
-0.000406187
-0.00230164
-0.00491228
-0.0138705
-0.0268678
-0.049991
-0.0968491
-0.000242852
-0.00211644
-0.00470771
-0.0138498
-0.0270226
-0.0506435
-0.0986566
-6.43072e-05
-0.00190019
-0.0044363
-0.0137703
-0.027244
-0.0518169
-0.102683
0.000129819
-0.00164089
-0.00407632
-0.0135283
-0.0271401
-0.0523111
-0.105155
0.000335734
-0.00134452
-0.00364225
-0.0131599
-0.0268714
-0.052664
-0.108093
0.000550116
-0.00101872
-0.0031479
-0.0126641
-0.0263887
-0.0525914
-0.11019
0.000764731
-0.000680011
-0.00263088
-0.0120851
-0.0257922
-0.0522692
-0.111976
0.000966659
-0.00035052
-0.00213656
-0.0114698
-0.0251252
-0.0516091
-0.112688
0.00113508
-6.65679e-05
-0.00174234
-0.0109357
-0.0246155
-0.0511279
-0.113207
)
;

boundaryField
{
    inlet
    {
        type            zeroGradient;
    }
    outlet
    {
        type            fixedValue;
        value           uniform 0;
    }
    polygon
    {
        type            zeroGradient;
    }
    top
    {
        type            symmetryPlane;
    }
    bottom
    {
        type            symmetryPlane;
    }
    outside
    {
        type            slip;
    }
    procBoundary15to10
    {
        type            processor;
        value           nonuniform List<scalar> 5(-0.167303 -0.172828 -0.178776 -0.181487 -0.183296);
    }
    procBoundary15to11
    {
        type            processor;
        value           nonuniform List<scalar> 8(0.00124928 0.000115643 -0.00146783 -0.0104937 -0.0505123 -0.0240862 -0.0505123 -0.112503);
    }
    procBoundary15to14
    {
        type            processor;
        value           nonuniform List<scalar> 5(-0.129589 -0.141234 -0.144116 -0.154082 -0.158839);
    }
}


// ************************************************************************* //
