/*--------------------------------*- C++ -*----------------------------------*\
  =========                 |
  \\      /  F ield         | OpenFOAM: The Open Source CFD Toolbox
   \\    /   O peration     | Website:  https://openfoam.org
    \\  /    A nd           | Version:  7
     \\/     M anipulation  |
\*---------------------------------------------------------------------------*/
FoamFile
{
    version     2.0;
    format      ascii;
    class       volVectorField;
    location    "2";
    object      U;
}
// * * * * * * * * * * * * * * * * * * * * * * * * * * * * * * * * * * * * * //

dimensions      [0 1 -1 0 0 0 0];

internalField   nonuniform List<vector> 
125
(
(0.992543 4.70202e-05 5.67204e-19)
(0.992543 5.39003e-05 -3.26244e-19)
(0.992544 6.1773e-05 9.00731e-21)
(0.992544 7.07795e-05 -1.99816e-18)
(0.992544 8.10807e-05 -5.64894e-19)
(0.992544 9.28596e-05 -2.07029e-18)
(0.992545 0.000106325 -8.77498e-19)
(0.992545 0.000121713 -2.52552e-18)
(0.992545 0.000139295 -1.40098e-18)
(0.992545 0.000159377 -1.27272e-18)
(0.992545 0.000182307 -2.54094e-18)
(0.992545 0.000208481 -1.48391e-18)
(0.992545 0.000238349 -1.13832e-18)
(0.992545 3.08862e-05 -1.47464e-19)
(0.992546 3.54416e-05 3.92945e-20)
(0.992547 4.06591e-05 9.91267e-20)
(0.992548 4.66338e-05 -7.55972e-20)
(0.992549 5.34744e-05 -1.93197e-19)
(0.99255 6.13049e-05 -2.51835e-19)
(0.992551 7.02666e-05 -5.04174e-19)
(0.992552 8.05204e-05 -2.51905e-19)
(0.992553 9.22499e-05 -5.43991e-19)
(0.992555 0.000105664 -3.53312e-19)
(0.992557 0.000121 -6.24197e-19)
(0.992558 0.00013853 -3.21597e-19)
(0.99256 0.000158561 -5.30961e-19)
(0.992563 0.000181443 -5.79906e-19)
(0.992565 0.000207574 -3.62386e-19)
(0.992568 0.000237406 -5.0319e-19)
(0.992548 3.03121e-05 -3.85467e-19)
(0.99255 3.47944e-05 5.24867e-20)
(0.992551 3.99301e-05 -1.18046e-19)
(0.992552 4.58136e-05 -7.50651e-20)
(0.992554 5.25527e-05 -1.05431e-19)
(0.992555 6.02702e-05 -7.5347e-20)
(0.992557 6.91064e-05 -1.42144e-19)
(0.99256 7.92211e-05 -1.0787e-19)
(0.992562 9.07966e-05 -1.41956e-19)
(0.992565 0.000104041 -9.86039e-20)
(0.992568 0.00011919 -1.65543e-19)
(0.992572 0.000136513 -9.45577e-20)
(0.992576 0.000156318 -1.40761e-19)
(0.99258 0.000178953 -1.24249e-19)
(0.992585 0.000204814 -9.78127e-20)
(0.99259 0.000234354 -1.33469e-19)
(0.992551 2.94543e-05 -3.11997e-19)
(0.992553 3.38223e-05 -2.64797e-19)
(0.992555 3.88293e-05 -3.63742e-19)
(0.992557 4.45681e-05 -2.1608e-19)
(0.992559 5.11445e-05 -1.86532e-19)
(0.992561 5.86792e-05 -4.25213e-20)
(0.992564 6.73104e-05 -5.33353e-21)
(0.992567 7.71952e-05 -9.88839e-20)
(0.992571 8.85133e-05 -6.63457e-20)
(0.992575 0.000101469 -3.49132e-20)
(0.992579 0.000116297 -3.91558e-20)
(0.992584 0.000133262 -9.15264e-20)
(0.99259 0.000152666 -5.59268e-20)
(0.992597 0.000174857 -4.60042e-20)
(0.992604 0.000200224 -9.07063e-20)
(0.992612 0.000229216 -6.39614e-20)
(0.992554 2.83047e-05 -4.98228e-19)
(0.992556 3.25161e-05 -9.78264e-19)
(0.992558 3.73461e-05 -1.52591e-18)
(0.992561 4.2885e-05 -1.17654e-18)
(0.992563 4.92357e-05 -1.1556e-18)
(0.992567 5.6516e-05 -5.22737e-19)
(0.99257 6.48601e-05 8.30087e-20)
(0.992574 7.44218e-05 -1.43898e-19)
(0.992579 8.53761e-05 -5.82432e-20)
(0.992584 9.79231e-05 -6.33455e-20)
(0.99259 0.000112291 -6.51474e-20)
(0.992597 0.00012874 -1.08312e-19)
(0.992604 0.000147566 -7.69427e-20)
(0.992613 0.000169109 -1.21858e-19)
(0.992623 0.000193752 -1.29418e-19)
(0.992633 0.000221934 -1.17922e-19)
(0.992557 2.68821e-05 6.24715e-19)
(0.992559 3.08982e-05 -2.21046e-19)
(0.992562 3.55074e-05 3.84861e-19)
(0.992565 4.07965e-05 7.13258e-19)
(0.992568 4.68649e-05 -1.21372e-19)
(0.992572 5.38262e-05 7.13674e-19)
(0.992576 6.18103e-05 -6.45573e-19)
(0.992581 7.09656e-05 -1.40079e-19)
(0.992587 8.14619e-05 -2.42989e-19)
(0.992593 9.34928e-05 -3.32763e-19)
(0.9926 0.00010728 -1.48606e-19)
(0.992608 0.000123075 -3.77348e-19)
(0.992617 0.000141167 -2.66619e-19)
(0.992628 0.000161885 -2.3348e-19)
(0.992639 0.000185603 -4.53788e-19)
(0.992653 0.00021275 -3.98541e-19)
(0.992559 2.55189e-05 2.49731e-19)
(0.992561 2.93437e-05 1.72309e-19)
(0.992564 3.37357e-05 2.22571e-19)
(0.992568 3.87782e-05 -3.87402e-20)
(0.992572 4.45667e-05 -1.69123e-19)
(0.992576 5.12107e-05 -5.44939e-19)
(0.992581 5.8835e-05 -9.06626e-19)
(0.992587 6.75827e-05 -1.44821e-18)
(0.992593 7.76174e-05 -4.395e-19)
(0.9926 8.91261e-05 -1.56122e-18)
(0.992608 0.000102322 -1.03237e-19)
(0.992618 0.00011745 -1.18582e-18)
(0.992628 0.000134789 -1.45254e-18)
(0.99264 0.000154656 -2.84194e-19)
(0.992654 0.000177415 -1.39844e-18)
(0.992669 0.000203481 -1.81504e-18)
(0.99256 2.27986e-05 5.30017e-19)
(0.992563 2.62464e-05 7.67757e-19)
(0.992566 3.0211e-05 1.11398e-18)
(0.99257 3.47693e-05 6.2098e-20)
(0.992574 4.00096e-05 8.6242e-19)
(0.992579 4.60329e-05 -8.03283e-19)
(0.992584 5.29552e-05 -8.44134e-20)
(0.99259 6.09092e-05 -4.5829e-19)
(0.992597 7.00472e-05 -1.72768e-19)
(0.992605 8.05434e-05 -4.36331e-19)
(0.992614 9.25974e-05 -2.03284e-19)
(0.992624 0.000106438 -4.76525e-19)
(0.992635 0.000122325 -3.10067e-19)
(0.992648 0.000140559 -2.89268e-19)
(0.992663 0.000161482 -5.68672e-19)
(0.992679 0.000185484 -5.28736e-19)
)
;

boundaryField
{
    inlet
    {
        type            uniformFixedValue;
        uniformValue    constant (1 0 0);
        value           nonuniform 0();
    }
    outlet
    {
        type            pressureInletOutletVelocity;
        value           nonuniform 0();
    }
    polygon
    {
        type            fixedValue;
        value           nonuniform 0();
    }
    top
    {
        type            symmetryPlane;
    }
    bottom
    {
        type            symmetryPlane;
    }
    outside
    {
        type            zeroGradient;
    }
    procBoundary6to5
    {
        type            processor;
        value           nonuniform List<vector> 7((0.992571 0.000271452 -6.00885e-19) (0.992596 0.000268084 -1.33397e-19) (0.992622 0.000262341 -1.71972e-20) (0.992646 0.000254154 -9.59182e-20) (0.992668 0.00024381 -2.9352e-19) (0.992686 0.000233325 -6.3886e-19) (0.992698 0.000213012 -3.77998e-19));
    }
    procBoundary6to7
    {
        type            processor;
        value           nonuniform List<vector> 7((0.992545 2.69092e-05 1.87879e-19) (0.992548 2.64006e-05 6.53568e-19) (0.99255 2.56443e-05 -1.01148e-19) (0.992552 2.46333e-05 -2.32442e-19) (0.992555 2.3383e-05 3.71861e-19) (0.992557 2.21882e-05 2.29531e-19) (0.992558 1.98006e-05 3.68939e-19));
    }
    procBoundary6to13
    {
        type            processor;
        value           uniform (0.992545 0.00027242 -2.43711e-18);
    }
    procBoundary6to14
    {
        type            processor;
        value           nonuniform List<vector> 
17
(
(0.992539 4.69695e-05 -6.40701e-20)
(0.992538 5.38268e-05 -1.98999e-19)
(0.992538 6.16707e-05 -2.06614e-19)
(0.992537 7.06413e-05 -5.25601e-19)
(0.992536 8.08977e-05 -2.71978e-19)
(0.992535 9.26212e-05 -5.70489e-19)
(0.992534 0.000106018 -3.39707e-19)
(0.992533 0.000121323 -6.36043e-19)
(0.992532 0.000138803 -3.52975e-19)
(0.99253 0.00015876 -4.60934e-19)
(0.992528 0.000181539 -5.72195e-19)
(0.992526 0.000207531 -3.86434e-19)
(0.992523 0.000237178 -4.69773e-19)
(0.992542 3.11704e-05 6.9842e-20)
(0.992543 3.57573e-05 -5.77595e-19)
(0.992543 4.10087e-05 8.26734e-19)
(0.992543 4.10087e-05 8.26734e-19)
)
;
    }
}


// ************************************************************************* //
