/*--------------------------------*- C++ -*----------------------------------*\
  =========                 |
  \\      /  F ield         | OpenFOAM: The Open Source CFD Toolbox
   \\    /   O peration     | Website:  https://openfoam.org
    \\  /    A nd           | Version:  7
     \\/     M anipulation  |
\*---------------------------------------------------------------------------*/
FoamFile
{
    version     2.0;
    format      ascii;
    class       volVectorField;
    location    "42";
    object      U;
}
// * * * * * * * * * * * * * * * * * * * * * * * * * * * * * * * * * * * * * //

dimensions      [0 1 -1 0 0 0 0];

internalField   nonuniform List<vector> 
250
(
(1.1804 0.169301 3.93834e-17)
(1.17035 0.193409 1.34707e-17)
(1.1597 0.202003 -8.36919e-18)
(1.14592 0.220504 -3.18394e-17)
(1.13323 0.233884 -1.81462e-17)
(1.11713 0.250826 6.46357e-17)
(1.10103 0.266805 1.87442e-17)
(1.08138 0.284406 6.19427e-17)
(1.0596 0.302295 1.19292e-18)
(1.03327 0.320981 9.17317e-18)
(1.1881 0.174804 3.48854e-17)
(1.17863 0.198681 1.15209e-17)
(1.16829 0.207337 -3.09869e-18)
(1.15536 0.225777 -2.92068e-17)
(1.14337 0.239263 -1.61956e-17)
(1.12842 0.256458 2.55254e-17)
(1.11353 0.272696 2.02023e-17)
(1.09552 0.290944 1.8361e-17)
(1.07576 0.309684 3.11126e-17)
(1.05195 0.329665 4.56577e-17)
(1.19571 0.1803 2.08429e-17)
(1.18696 0.203825 8.77469e-18)
(1.17688 0.212476 -1.53837e-17)
(1.16495 0.230742 -1.50855e-17)
(1.15363 0.244257 -8.39489e-18)
(1.13993 0.261559 1.50296e-17)
(1.12622 0.277934 5.56426e-18)
(1.10983 0.296613 2.36183e-17)
(1.09189 0.316012 3.06029e-17)
(1.07027 0.337032 2.77127e-17)
(1.20327 0.185744 3.60023e-17)
(1.19522 0.20881 6.37546e-18)
(1.18542 0.217407 1.85771e-17)
(1.17442 0.23538 -3.4058e-17)
(1.16373 0.248845 -1.56543e-17)
(1.1512 0.266099 2.2302e-17)
(1.13863 0.282481 3.32963e-17)
(1.1238 0.30136 -1.94262e-18)
(1.10768 0.321176 1.43299e-17)
(1.08836 0.342854 5.07354e-17)
(1.2109 0.191162 3.02858e-17)
(1.20351 0.213685 1.24177e-17)
(1.19402 0.222212 -1.46442e-17)
(1.18389 0.239811 -2.66909e-17)
(1.17386 0.253169 9.56837e-18)
(1.16249 0.270259 -5.56474e-18)
(1.15108 0.286545 2.09855e-17)
(1.13788 0.305432 -9.3327e-18)
(1.12368 0.325441 3.67732e-17)
(1.10684 0.347436 4.15801e-17)
(1.08757 0.372303 7.29008e-18)
(1.00018 0.000314675 -1.05188e-17)
(1.00022 0.000390282 -1.27302e-17)
(1.00029 0.000413286 -2.30786e-17)
(1.00039 0.0004652 -1.37926e-17)
(1.00051 0.000499006 -5.53317e-17)
(1.00066 0.000534302 -1.12736e-17)
(1.00083 0.000562308 -1.18645e-17)
(1.00102 0.000581997 -2.29752e-17)
(1.00123 0.000592277 -1.41403e-17)
(0.999985 4.65397e-05 3.98408e-17)
(0.999918 0.000115298 4.13574e-17)
(0.999832 0.000105714 9.56241e-17)
(0.999705 0.000130986 2.05711e-17)
(0.999549 0.000113021 -8.76733e-17)
(0.999357 0.000105998 1.80148e-17)
(0.999133 8.28072e-05 3.99649e-17)
(0.998878 6.15998e-05 9.58846e-17)
(0.998599 3.81457e-05 2.20587e-17)
(0.998305 1.76596e-05 -8.82037e-17)
(1.00058 0.000841108 -1.06958e-16)
(1.00058 0.00104595 -9.21504e-17)
(1.00062 0.00110481 2.00874e-19)
(1.00069 0.00124224 -9.04194e-17)
(1.0008 0.00131853 -5.6011e-17)
(1.00095 0.00140351 -1.07244e-16)
(1.00113 0.00145983 -9.47968e-17)
(1.00134 0.00149714 9.95592e-20)
(1.00159 0.00150886 -9.17362e-17)
(1.00184 0.00149389 -5.53929e-17)
(1.00048 0.000711385 -1.621e-17)
(1.00033 0.000898526 -1.27907e-17)
(1.00014 0.000908503 -1.1927e-18)
(0.999899 0.000990525 -1.40566e-17)
(0.999613 0.00098812 -1.82197e-17)
(0.999279 0.00099397 -1.83745e-17)
(0.998899 0.000967705 -1.22498e-17)
(0.998477 0.000930377 -1.80493e-18)
(0.998022 0.000880973 -1.40277e-17)
(0.997548 0.000823799 -1.74867e-17)
(1.00138 0.00173469 -8.03108e-17)
(1.00129 0.00211721 -7.21392e-17)
(1.00126 0.00222885 -8.95447e-18)
(1.00125 0.00247646 -6.62805e-17)
(1.00128 0.00261335 -1.49845e-17)
(1.00137 0.0027569 -7.43354e-17)
(1.0015 0.00284978 -7.11468e-17)
(1.00168 0.00290388 -9.19856e-18)
(1.0019 0.00291135 -6.78552e-17)
(1.00215 0.00286922 -1.54668e-17)
(1.00153 0.00192867 -1.5084e-16)
(1.00123 0.00230187 -1.41633e-16)
(1.00088 0.00234506 -5.00201e-17)
(1.00043 0.0025162 -1.27243e-16)
(0.999921 0.00253961 -4.8224e-17)
(0.999339 0.00256389 -1.3756e-16)
(0.998689 0.00253021 -1.40199e-16)
(0.997978 0.00246463 -4.93969e-17)
(0.99722 0.00236824 -1.29762e-16)
(0.996435 0.0022463 -4.95436e-17)
(1.00287 0.00329186 -4.51247e-17)
(1.00262 0.00398358 -1.76955e-17)
(1.00243 0.00418182 1.37151e-17)
(1.00223 0.00461745 -3.34198e-18)
(1.00208 0.00485397 8.24492e-18)
(1.002 0.00509465 -3.28152e-17)
(1.00197 0.00524608 -1.60057e-17)
(1.00202 0.00532609 1.34519e-17)
(1.00213 0.00532337 -4.04454e-18)
(1.00229 0.00523296 8.53174e-18)
(1.00353 0.00420195 -4.35529e-17)
(1.00297 0.00492818 -1.1592e-16)
(1.00233 0.00503617 -1.20377e-16)
(1.00151 0.00538149 -1.19888e-16)
(1.00061 0.00546043 -1.0912e-16)
(0.999594 0.00552863 -4.76467e-17)
(0.998478 0.00548948 -1.15675e-16)
(0.997271 0.00538018 -1.20239e-16)
(0.995994 0.0052026 -1.21074e-16)
(0.994678 0.00496471 -1.10621e-16)
(1.00562 0.00611443 9.56963e-18)
(1.00507 0.00737342 -2.85324e-17)
(1.00455 0.00772363 -2.161e-17)
(1.00396 0.00850066 -3.70437e-17)
(1.00344 0.0089122 -2.47008e-17)
(1.00297 0.00932717 4.18522e-18)
(1.00259 0.00958185 -2.98578e-17)
(1.0023 0.00970829 -2.00459e-17)
(1.00212 0.00968797 -3.48985e-17)
(1.00201 0.00951283 -2.4155e-17)
(1.0073 0.00845989 -9.76581e-17)
(1.00628 0.00986524 -3.64364e-17)
(1.00512 0.0101071 -1.00063e-16)
(1.00366 0.0108015 -3.37304e-17)
(1.00207 0.0110055 -4.95735e-17)
(1.0003 0.0111819 -9.84051e-17)
(0.998376 0.0111559 -3.6142e-17)
(0.996312 0.0109864 -1.01881e-16)
(0.994138 0.0106749 -3.34376e-17)
(0.991905 0.0102331 -4.86111e-17)
(1.01076 0.0113194 -3.65275e-17)
(1.00962 0.013617 -1.94805e-17)
(1.00847 0.0142395 -3.23682e-17)
(1.00713 0.0156405 -2.00222e-18)
(1.00583 0.0163696 7.2407e-17)
(1.00459 0.0171078 -2.10171e-17)
(1.00345 0.0175581 -1.74579e-17)
(1.00245 0.0177813 -3.18843e-17)
(1.00158 0.0177449 -1.79822e-18)
(1.00086 0.0174339 7.32257e-17)
(1.01438 0.0163707 -1.12042e-17)
(1.01254 0.0190716 -6.49414e-18)
(1.01047 0.0195897 -9.64452e-18)
(1.00788 0.0209831 -4.34479e-18)
(1.00508 0.0214693 -2.00768e-18)
(1.002 0.0219085 -6.98073e-18)
(0.99868 0.0219661 -6.15587e-18)
(0.995129 0.0217426 -1.07613e-17)
(0.991396 0.0212335 -3.37043e-18)
(0.987552 0.0204539 -1.29547e-18)
(1.02034 0.0209297 -1.2466e-17)
(1.01812 0.0250863 -7.53509e-18)
(1.01579 0.0261965 -9.82582e-18)
(1.01304 0.0287254 7.28062e-18)
(1.01029 0.0300441 8.01525e-17)
(1.00754 0.0314 2.28746e-19)
(1.0049 0.0322529 -5.73528e-18)
(1.00242 0.0327163 -7.20786e-18)
(1.00014 0.0327287 1.00676e-17)
(0.998062 0.0322572 8.45651e-17)
(1.0275 0.0307477 1.96438e-17)
(1.02425 0.035875 7.94846e-18)
(1.0206 0.0369646 2.15399e-17)
(1.01611 0.0397553 1.4724e-17)
(1.01127 0.0408901 3.82837e-17)
(1.00597 0.0419819 2.65476e-17)
(1.00027 0.0423698 9.84576e-18)
(0.994168 0.0422301 2.28993e-17)
(0.987724 0.0415358 1.51084e-17)
(0.981031 0.0402953 4.03275e-17)
(1.03797 0.0384231 -7.35677e-17)
(1.03391 0.0457453 -1.19102e-17)
(1.02957 0.0476931 -7.21318e-17)
(1.02437 0.0522052 -4.3066e-18)
(1.01906 0.0546323 -2.12326e-17)
(1.01359 0.0572139 -7.28895e-17)
(1.00814 0.058973 -1.18974e-17)
(1.00281 0.0601156 -7.91195e-17)
(0.997684 0.0605232 -6.16358e-18)
(0.992802 0.0601132 -2.42126e-17)
(1.05119 0.0557696 -5.72869e-17)
(1.04568 0.0652452 -3.47425e-17)
(1.03951 0.0675319 -3.04478e-17)
(1.03201 0.0730802 -1.04411e-17)
(1.02399 0.0757433 6.45944e-17)
(1.01522 0.0784966 -4.62975e-17)
(1.00573 0.08004 -3.64263e-17)
(0.995498 0.080678 -3.19686e-17)
(0.984537 0.0803078 -1.00903e-17)
(0.972913 0.0788833 7.192e-17)
(1.06942 0.068955 7.17269e-17)
(1.06273 0.0812341 6.5238e-17)
(1.05537 0.0845519 4.74146e-18)
(1.04657 0.0923327 6.70903e-17)
(1.03731 0.0968104 1.41969e-17)
(1.02752 0.101874 8.19706e-17)
(1.01738 0.105784 7.67125e-17)
(1.00703 0.108911 7.41102e-18)
(0.996576 0.111044 7.78364e-17)
(0.986155 0.111992 1.5984e-17)
(1.09177 0.0959127 2.9643e-17)
(1.0833 0.112293 3.06265e-17)
(1.07379 0.116992 2.41908e-17)
(1.06245 0.127724 5.62605e-17)
(1.05036 0.133941 1.11795e-16)
(1.03701 0.14082 3.52009e-17)
(1.02252 0.146021 3.20424e-17)
(1.00657 0.150062 2.61845e-17)
(0.989097 0.152596 6.58326e-17)
(0.969873 0.153387 1.32802e-16)
(1.12154 0.117279 1.36915e-17)
(1.11227 0.136095 -1.98863e-18)
(1.10175 0.14162 -2.26378e-17)
(1.08944 0.154446 -9.00038e-18)
(1.07614 0.162735 -5.05746e-17)
(1.0617 0.172562 1.87797e-17)
(1.04587 0.181231 1.51472e-18)
(1.02884 0.189529 -1.23845e-17)
(1.01035 0.197199 -1.01059e-17)
(0.9906 0.204048 -7.18629e-17)
(1.15539 0.151653 -1.29058e-17)
(1.14427 0.176017 2.54175e-17)
(1.13251 0.184321 9.14029e-17)
(1.11808 0.202696 4.25028e-17)
(1.10366 0.215462 6.18599e-17)
(1.0868 0.231208 -2.78673e-17)
(1.06903 0.245829 1.94116e-17)
(1.0485 0.26052 6.3076e-17)
(1.02558 0.274636 2.77121e-17)
(0.999021 0.287661 7.66849e-17)
)
;

boundaryField
{
    inlet
    {
        type            uniformFixedValue;
        uniformValue    constant (1 0 0);
        value           uniform (1 0 0);
    }
    outlet
    {
        type            pressureInletOutletVelocity;
        value           nonuniform 0();
    }
    polygon
    {
        type            fixedValue;
        value           nonuniform 0();
    }
    top
    {
        type            symmetryPlane;
    }
    bottom
    {
        type            symmetryPlane;
    }
    outside
    {
        type            zeroGradient;
    }
    procBoundary12to8
    {
        type            processor;
        value           nonuniform List<vector> 
27
(
(1.00258 0.340065 3.53518e-17)
(1.02439 0.350647 -6.17309e-18)
(1.04522 0.359717 -1.79439e-18)
(1.06611 0.366812 3.5168e-18)
(1.06611 0.366812 3.5168e-18)
(1.06362 0.3983 1.14393e-17)
(1.00145 0.000591086 -5.53538e-17)
(1.00145 0.000591086 -5.53538e-17)
(0.998008 5.53196e-07 1.67432e-17)
(1.00211 0.00145061 -1.07196e-16)
(0.997072 0.000761224 -1.71865e-17)
(1.00242 0.00277592 -7.54455e-17)
(0.995651 0.00210322 -1.38833e-16)
(1.00248 0.00505272 -3.05775e-17)
(0.993367 0.00467384 -4.67933e-17)
(1.00196 0.00917902 3.61629e-18)
(0.989679 0.00967286 -1.01004e-16)
(1.00023 0.0168392 -1.99741e-17)
(0.9837 0.0194217 -8.42237e-18)
(0.996156 0.0312754 -8.19216e-20)
(0.974238 0.0385273 2.87277e-17)
(0.98816 0.0588035 -7.96377e-17)
(0.960801 0.0763851 -5.14729e-17)
(0.975803 0.111523 9.56195e-17)
(0.948921 0.152244 4.5218e-17)
(0.969435 0.20954 3.18761e-18)
(0.968526 0.299126 1.64506e-17)
)
;
    }
    procBoundary12to9
    {
        type            processor;
        value           uniform (1.10958 0.374998 7.43877e-18);
    }
    procBoundary12to13
    {
        type            processor;
        value           nonuniform List<vector> 10((1.21858 0.196472 2.15245e-17) (1.21184 0.218334 -1.0467e-17) (1.20272 0.226716 6.43689e-18) (1.19346 0.243799 -2.14601e-17) (1.18412 0.256913 6.35917e-18) (1.17393 0.273628 -2.76542e-18) (1.16373 0.289604 2.36718e-17) (1.15221 0.308166 2.18978e-17) (1.13997 0.328006 2.98228e-17) (1.1258 0.349803 3.25011e-17));
    }
}


// ************************************************************************* //
