/*--------------------------------*- C++ -*----------------------------------*\
  =========                 |
  \\      /  F ield         | OpenFOAM: The Open Source CFD Toolbox
   \\    /   O peration     | Website:  https://openfoam.org
    \\  /    A nd           | Version:  7
     \\/     M anipulation  |
\*---------------------------------------------------------------------------*/
FoamFile
{
    version     2.0;
    format      ascii;
    class       surfaceScalarField;
    location    "10";
    object      phi;
}
// * * * * * * * * * * * * * * * * * * * * * * * * * * * * * * * * * * * * * //

dimensions      [0 3 -1 0 0 0 0];

internalField   nonuniform List<scalar> 
226
(
0.00161991
2.27768e-05
-2.05652e-05
0.00162402
-3.92607e-05
3.51431e-05
0.00162377
-2.00741e-05
2.03301e-05
0.001613
0.000151876
-0.000141113
0.00160344
8.26102e-05
-7.30454e-05
0.00157504
0.000398228
-0.000369828
0.00154156
0.000249578
-0.000216094
0.00202364
-0.00186984
0.00161981
2.50836e-05
0.00162415
-4.36034e-05
0.00162352
-1.94458e-05
0.00161306
0.00016234
0.00160292
9.27489e-05
0.00157526
0.000425891
0.00153952
0.000285313
0.0021746
0.00161972
2.74791e-05
0.00162428
-4.81578e-05
0.0016233
-1.84653e-05
0.0016131
0.000172532
0.00160244
0.000103411
0.00157548
0.000452853
0.00153763
0.000323166
0.0023225
0.00161963
2.99632e-05
0.0016244
-5.29294e-05
0.00162306
-1.71243e-05
0.00161315
0.00160197
0.00157572
0.00153579
0.00161955
0.00162454
0.0019116
1.81849e-06
0.0019146
-2.99965e-06
0.00191744
-2.84061e-06
0.00190267
1.47713e-05
0.00189659
6.07758e-06
0.00185778
3.88062e-05
0.00184056
1.72283e-05
0.00164672
0.000193839
0.000172506
0.00191158
3.65268e-06
0.00191462
-6.03595e-06
0.00191739
-5.61627e-06
0.00190265
2.95127e-05
0.00189646
1.22725e-05
0.00185773
7.75311e-05
0.00183992
3.50417e-05
0.00164612
0.000387635
0.000348169
0.00191155
5.51772e-06
0.00191466
-9.14006e-06
0.00191732
-8.28104e-06
0.00190266
4.4177e-05
0.00189628
1.86496e-05
0.00185777
0.000116041
0.00183921
5.36057e-05
0.00164608
0.000580761
0.000526361
0.00191151
7.42825e-06
0.00191471
-1.23421e-05
0.00191722
-1.07908e-05
0.00190268
5.87196e-05
0.00189606
2.5269e-05
0.00185788
0.000154214
0.00183842
7.30674e-05
0.0016465
0.000772681
0.000706419
0.00191145
9.39823e-06
0.00191478
-1.56712e-05
0.00191709
-1.31029e-05
0.00190271
7.30973e-05
0.00189579
3.21877e-05
0.00185808
0.000191929
0.00183758
9.35632e-05
0.0016474
0.000962863
0.000887726
0.00191137
1.14407e-05
0.00191486
-1.91547e-05
0.00191693
-1.51771e-05
0.00190276
8.72687e-05
0.00189549
3.94589e-05
0.00185835
0.00022907
0.00183669
0.000115222
0.00164877
0.00115079
0.0010697
0.00191129
1.35675e-05
0.00191495
-2.28183e-05
0.00191675
-1.69752e-05
0.00190283
0.000101195
0.00189515
4.71314e-05
0.00185869
0.000265529
0.00183575
0.000138168
0.00165059
0.00133594
0.00125182
0.0019112
1.57893e-05
0.00191506
-2.66854e-05
0.00191655
-1.84621e-05
0.0019029
0.000114841
0.00189479
5.52485e-05
0.00185911
0.000301209
0.00183475
0.000162521
0.00165286
0.00151784
0.00143363
0.00191109
1.81154e-05
0.00191518
-3.0777e-05
0.00191633
-1.9606e-05
0.00190299
0.000128176
0.00189439
6.38483e-05
0.00185957
0.000336028
0.00183369
0.000188403
0.00165555
0.00169598
0.00161479
0.00191097
0.00191533
0.00191606
0.00190312
0.00189392
0.00186012
0.00183243
0.00165857
)
;

boundaryField
{
    inlet
    {
        type            calculated;
        value           nonuniform List<scalar> 
15
(
-0.00162212
-0.00162212
-0.00162212
-0.00162212
-0.00162212
-0.00191342
-0.00191342
-0.00191342
-0.00191342
-0.00191342
-0.00191342
-0.00191342
-0.00191342
-0.00191342
-0.00191342
)
;
    }
    outlet
    {
        type            calculated;
        value           nonuniform 0();
    }
    polygon
    {
        type            calculated;
        value           nonuniform 0();
    }
    top
    {
        type            symmetryPlane;
        value           uniform 0;
    }
    bottom
    {
        type            symmetryPlane;
        value           uniform 0;
    }
    outside
    {
        type            calculated;
        value           nonuniform 0();
    }
    procBoundary8to4
    {
        type            processor;
        value           nonuniform List<scalar> 9(5.06945e-12 -6.77976e-12 -6.2934e-12 1.40306e-11 2.35799e-11 -2.63366e-11 -6.6373e-12 2.05422e-12 1.17901e-12);
    }
    procBoundary8to9
    {
        type            processor;
        value           nonuniform List<scalar> 
15
(
0.00138776
0.00179501
0.00138856
0.00138973
0.00139122
0.00147421
0.00147046
0.00146789
0.00146644
0.00146609
0.00146679
0.00146847
0.00147105
0.00147439
0.00147835
)
;
    }
    procBoundary8to12
    {
        type            processor;
        value           nonuniform List<scalar> 9(0.000182443 0.000114595 0.000479098 0.000363098 0.00246707 3.25345e-05 -5.79221e-05 0.00162283 -1.54169e-05);
    }
}


// ************************************************************************* //
