/*--------------------------------*- C++ -*----------------------------------*\
  =========                 |
  \\      /  F ield         | OpenFOAM: The Open Source CFD Toolbox
   \\    /   O peration     | Website:  https://openfoam.org
    \\  /    A nd           | Version:  7
     \\/     M anipulation  |
\*---------------------------------------------------------------------------*/
FoamFile
{
    version     2.0;
    format      ascii;
    class       volVectorField;
    location    "34";
    object      U;
}
// * * * * * * * * * * * * * * * * * * * * * * * * * * * * * * * * * * * * * //

dimensions      [0 1 -1 0 0 0 0];

internalField   nonuniform List<vector> 
125
(
(-0.190793 -0.00321978 6.74146e-18)
(-0.18836 -0.00357948 1.31944e-18)
(-0.185728 -0.00403465 -1.16273e-17)
(-0.182855 -0.00460231 5.35981e-17)
(-0.205098 -0.00250459 1.54647e-17)
(-0.203309 -0.00258716 3.5522e-17)
(-0.201452 -0.00266152 2.20623e-17)
(-0.199534 -0.0027251 1.51287e-17)
(-0.197561 -0.00277872 1.14968e-17)
(-0.19554 -0.00282608 2.24755e-17)
(-0.193472 -0.00287325 1.66478e-17)
(-0.191356 -0.00292823 1.66627e-17)
(-0.189188 -0.0030005 1.19714e-17)
(-0.186958 -0.00310068 1.94471e-17)
(-0.184653 -0.00324022 -1.3268e-17)
(-0.182255 -0.00343126 9.85629e-18)
(-0.179741 -0.0036866 8.69267e-18)
(-0.177087 -0.00401981 7.78109e-18)
(-0.174261 -0.00444557 5.11705e-18)
(-0.17123 -0.00498013 8.43403e-20)
(-0.167958 -0.00564219 2.8228e-17)
(-0.194087 -0.00308315 3.30987e-17)
(-0.191991 -0.00318888 1.84489e-17)
(-0.189811 -0.00328361 2.89772e-17)
(-0.187558 -0.00336507 1.77305e-17)
(-0.185239 -0.0034348 1.437e-17)
(-0.18286 -0.00349753 1.92166e-17)
(-0.180423 -0.00356057 1.77585e-17)
(-0.177927 -0.00363329 1.79634e-17)
(-0.175366 -0.00372658 1.53922e-17)
(-0.172731 -0.00385248 4.41691e-17)
(-0.170008 -0.00402384 6.49125e-18)
(-0.167178 -0.00425409 1.33222e-17)
(-0.16422 -0.00455731 1.26562e-17)
(-0.161109 -0.00494829 1.3321e-17)
(-0.157818 -0.0054429 1.23329e-17)
(-0.154315 -0.00605863 9.28383e-18)
(-0.150568 -0.00681549 2.15496e-17)
(-0.181514 -0.00376306 1.58634e-17)
(-0.179056 -0.0038966 7.84328e-18)
(-0.176501 -0.00401544 5.27537e-17)
(-0.173858 -0.00411788 2.8001e-17)
(-0.171135 -0.00420645 2.49545e-17)
(-0.168339 -0.00428714 2.78832e-17)
(-0.165473 -0.00436874 2.62252e-17)
(-0.162533 -0.00446219 2.74936e-17)
(-0.159514 -0.00457995 2.51826e-17)
(-0.156406 -0.00473557 3.94577e-17)
(-0.153193 -0.00494332 2.28435e-17)
(-0.149858 -0.00521794 2.3884e-17)
(-0.14638 -0.00557466 2.51761e-17)
(-0.142735 -0.00602931 2.48465e-17)
(-0.138897 -0.0065987 2.47299e-17)
(-0.134838 -0.00730122 2.31604e-17)
(-0.130532 -0.00815774 2.82323e-17)
(-0.158672 -0.00513135 2.28279e-18)
(-0.155566 -0.00532225 -5.60809e-18)
(-0.152336 -0.00549355 5.53916e-17)
(-0.148996 -0.00564447 6.03573e-17)
(-0.145554 -0.005779 6.23607e-17)
(-0.142018 -0.00590505 6.326e-17)
(-0.138387 -0.00603353 6.33679e-17)
(-0.13466 -0.00617758 6.37041e-17)
(-0.130828 -0.00635186 6.27211e-17)
(-0.12688 -0.00657194 6.81926e-17)
(-0.1228 -0.00685393 6.3414e-17)
(-0.11857 -0.00721402 6.42707e-17)
(-0.11417 -0.00766864 6.46342e-17)
(-0.109578 -0.00823447 6.53681e-17)
(-0.104772 -0.00892878 6.53202e-17)
(-0.0997312 -0.00977009 6.6087e-17)
(-0.117485 -0.00760392 -8.61845e-18)
(-0.113154 -0.0079013 -4.71846e-17)
(-0.108658 -0.00816827 1.20726e-17)
(-0.104012 -0.00840575 2.48985e-17)
(-0.0992248 -0.00862044 2.78823e-17)
(-0.0942994 -0.00882343 2.69519e-17)
(-0.089234 -0.009029 2.60062e-17)
(-0.0840216 -0.00925363 2.65148e-17)
(-0.0786505 -0.009515 2.70981e-17)
(-0.0731057 -0.00983129 2.9666e-17)
(-0.0673693 -0.0102208 2.65157e-17)
(-0.0614221 -0.0107009 2.72184e-17)
(-0.0552444 -0.0112889 2.8578e-17)
(-0.0488173 -0.0120015 2.96246e-17)
(-0.0421236 -0.012855 3.02501e-17)
(-0.0351491 -0.0138663 2.7369e-17)
(-0.0657654 -0.0110871 -2.82534e-18)
(-0.0598504 -0.011522 -5.81612e-18)
(-0.0537245 -0.0119155 5.33034e-17)
(-0.0473973 -0.0122721 6.21628e-17)
(-0.0408725 -0.0126028 6.37343e-17)
(-0.0341472 -0.012923 6.5614e-17)
(-0.0272122 -0.0132509 6.35041e-17)
(-0.0200533 -0.0136065 6.51733e-17)
(-0.0126526 -0.0140101 6.50717e-17)
(-0.0049896 -0.0144816 6.64162e-17)
(0.00295771 -0.0150403 6.64839e-17)
(0.0112113 -0.0157037 6.5948e-17)
(0.0197918 -0.0164884 6.67695e-17)
(0.0287182 -0.0174091 6.78669e-17)
(0.0380064 -0.01848 6.83362e-17)
(0.0476685 -0.0197145 6.71841e-17)
(-0.00218678 -0.0158074 -5.25352e-19)
(0.00569245 -0.016416 1.83833e-18)
(0.0138434 -0.0169746 1.91736e-17)
(0.0222666 -0.0174939 1.49196e-17)
(0.0309688 -0.0179902 1.52277e-17)
(0.0399643 -0.0184837 1.48703e-17)
(0.0492732 -0.0189963 1.4558e-17)
(0.0589195 -0.0195511 1.49336e-17)
(0.0689301 -0.0201701 1.56881e-17)
(0.0793328 -0.0208743 1.58758e-17)
(0.0901558 -0.0216826 1.68354e-17)
(0.101427 -0.0226121 1.85915e-17)
(0.113171 -0.0236775 2.50979e-17)
(0.125414 -0.024892 1.75007e-17)
(0.138177 -0.0262673 1.56791e-17)
(0.151484 -0.0278143 1.65155e-17)
(0.0745316 -0.0220306 3.25116e-19)
(0.0847687 -0.0228584 7.30716e-18)
(0.0953641 -0.023636 5.09727e-17)
(0.106333 -0.0243816 6.42787e-18)
(0.117699 -0.0251169 2.16237e-18)
(0.129489 -0.025866 4.15012e-18)
)
;

boundaryField
{
    inlet
    {
        type            uniformFixedValue;
        uniformValue    constant (1 0 0);
        value           nonuniform 0();
    }
    outlet
    {
        type            pressureInletOutletVelocity;
        value           nonuniform 0();
    }
    polygon
    {
        type            fixedValue;
        value           nonuniform 0();
    }
    top
    {
        type            symmetryPlane;
    }
    bottom
    {
        type            symmetryPlane;
    }
    outside
    {
        type            zeroGradient;
    }
    procBoundary19to11
    {
        type            processor;
        value           nonuniform List<vector> 
17
(
(0.141737 -0.0266543 3.42602e-18)
(0.154478 -0.0275064 4.51911e-18)
(0.167749 -0.0284455 4.7013e-18)
(0.181586 -0.0294924 4.27705e-18)
(0.196027 -0.0306659 7.70273e-18)
(0.211108 -0.031982 1.59195e-17)
(0.226866 -0.033455 5.42418e-17)
(0.243341 -0.0350978 2.93073e-18)
(0.260574 -0.0369226 4.76561e-18)
(0.278615 -0.0389417 6.50192e-18)
(0.165395 -0.0300314 1.66247e-18)
(0.178383 -0.0311426 5.46872e-18)
(0.19185 -0.032218 1.12425e-17)
(0.205828 -0.033281 2.10923e-18)
(0.220357 -0.0343576 1.89049e-18)
(0.141737 -0.0266543 3.42602e-18)
(0.235478 -0.0354749 3.12354e-18)
)
;
    }
    procBoundary19to18
    {
        type            processor;
        value           nonuniform List<vector> 7((-0.146542 -0.00773711 3.41399e-17) (-0.12595 -0.00919275 3.37119e-17) (-0.0944352 -0.010779 6.71421e-17) (-0.0944352 -0.010779 6.71421e-17) (-0.0278838 -0.0150532 2.82039e-17) (0.0577122 -0.0211263 6.70433e-17) (0.165356 -0.0295437 1.82202e-17));
    }
    procBoundary19to20
    {
        type            processor;
        value           nonuniform List<vector> 8((-0.206811 -0.00242008 1.7967e-17) (-0.196093 -0.00297286 1.06958e-17) (-0.183863 -0.00362118 4.18934e-18) (-0.161642 -0.00492692 -6.97008e-18) (-0.121635 -0.00728104 -5.00954e-17) (-0.0714522 -0.0106116 -1.06498e-17) (-0.00978523 -0.0151454 -1.92597e-18) (0.0646465 -0.0211441 -1.12468e-19));
    }
    procBoundary19to26
    {
        type            processor;
        value           nonuniform List<vector> 2((-0.179696 -0.00530266 1.86654e-18) (-0.164403 -0.00645389 -7.65299e-18));
    }
    procBoundary19to27
    {
        type            processor;
        value           nonuniform List<vector> 
18
(
(-0.202339 -0.00253445 8.58014e-18)
(-0.200232 -0.0028313 1.97902e-19)
(-0.19793 -0.00320955 -3.27816e-17)
(-0.195389 -0.00368416 5.85696e-17)
(-0.214607 -0.00200796 5.50693e-18)
(-0.213079 -0.00207119 1.61839e-17)
(-0.211494 -0.0021285 2.39404e-17)
(-0.209859 -0.00217724 2.14753e-17)
(-0.208179 -0.00221772 1.30327e-17)
(-0.20646 -0.00225275 3.77623e-17)
(-0.204704 -0.00228731 2.34188e-17)
(-0.20291 -0.00232808 2.32821e-17)
(-0.201074 -0.00238314 1.41453e-17)
(-0.199187 -0.00246162 7.92157e-18)
(-0.197235 -0.00257352 1.15247e-17)
(-0.195202 -0.00272948 1.61946e-17)
(-0.193063 -0.00294085 6.89649e-18)
(-0.193063 -0.00294085 6.89649e-18)
)
;
    }
}


// ************************************************************************* //
