/*--------------------------------*- C++ -*----------------------------------*\
  =========                 |
  \\      /  F ield         | OpenFOAM: The Open Source CFD Toolbox
   \\    /   O peration     | Website:  https://openfoam.org
    \\  /    A nd           | Version:  7
     \\/     M anipulation  |
\*---------------------------------------------------------------------------*/
FoamFile
{
    version     2.0;
    format      ascii;
    class       volVectorField;
    location    "20";
    object      U;
}
// * * * * * * * * * * * * * * * * * * * * * * * * * * * * * * * * * * * * * //

dimensions      [0 1 -1 0 0 0 0];

internalField   nonuniform List<vector> 
175
(
(-0.163973 0.0137486 3.15192e-17)
(-0.156887 0.0119174 2.1816e-17)
(-0.150314 0.0109796 1.79892e-17)
(-0.144595 0.011296 1.1139e-17)
(-0.137446 0.0127856 -5.22438e-18)
(-0.130861 0.0157527 -9.51808e-19)
(-0.119795 0.0207609 1.11193e-17)
(-0.110006 0.0262385 9.60884e-18)
(-0.0916831 0.036872 -1.42546e-17)
(-0.0740056 0.0414415 -7.92151e-18)
(-0.0486584 0.0522926 -3.60047e-18)
(-0.0117318 0.0366893 -4.62206e-18)
(-0.168978 0.0124745 3.46538e-17)
(-0.161641 0.0108137 2.20659e-17)
(-0.154828 0.00995194 2.05121e-17)
(-0.148919 0.0102174 8.82465e-18)
(-0.141532 0.0115545 -6.22874e-18)
(-0.1347 0.014221 1.12648e-19)
(-0.123245 0.0187899 1.25526e-17)
(-0.112777 0.0237635 1.3755e-17)
(-0.0936914 0.0334545 -1.76733e-17)
(-0.0743861 0.0377261 -6.40271e-18)
(-0.0477817 0.0470545 -3.36355e-18)
(-0.0111875 0.032864 -5.54489e-18)
(-0.173433 0.0111419 3.21544e-17)
(-0.165862 0.00965453 2.39471e-17)
(-0.158823 0.00887392 1.56114e-17)
(-0.152732 0.00909084 6.61634e-18)
(-0.145127 0.0102733 -7.97674e-18)
(-0.138058 0.0126283 1.47405e-18)
(-0.126262 0.0167308 1.62085e-17)
(-0.115175 0.0211637 9.00645e-18)
(-0.0954286 0.0298514 -1.34779e-17)
(-0.0747167 0.0337609 -5.01731e-18)
(-0.0469747 0.0416963 -2.89591e-18)
(-0.010703 0.0291257 -7.36743e-18)
(-0.177336 0.00977107 2.46185e-17)
(-0.169551 0.0084622 1.78521e-17)
(-0.162307 0.00776659 1.18389e-17)
(-0.156047 0.00793653 4.99112e-18)
(-0.148245 0.00895847 -1.08892e-17)
(-0.140959 0.0109936 3.40757e-18)
(-0.128869 0.0145977 2.28206e-17)
(-0.117227 0.0184629 4.85379e-18)
(-0.0969156 0.026095 -2.10978e-18)
(-0.0749985 0.0295998 -4.12541e-18)
(-0.0462322 0.0363161 -2.83579e-18)
(-0.0102612 0.0255229 -1.08366e-17)
(-0.180682 0.00835832 2.02868e-17)
(-0.172709 0.00723474 1.32093e-17)
(-0.165285 0.00663036 9.11383e-18)
(-0.158874 0.006758 4.31673e-18)
(-0.150898 0.00761855 -1.643e-17)
(-0.14342 0.00933201 5.86371e-18)
(-0.131081 0.0124151 2.28414e-17)
(-0.118959 0.0156974 6.44573e-19)
(-0.0981696 0.02223 -1.81416e-18)
(-0.0752361 0.0252875 -3.58015e-18)
(-0.0455677 0.0308798 -2.81522e-18)
(-0.00986443 0.0218753 -1.62592e-17)
(-0.183469 0.00690582 2.00304e-17)
(-0.175337 0.00597354 1.08204e-17)
(-0.167758 0.00546652 7.23722e-18)
(-0.161218 0.0055573 3.43714e-18)
(-0.153097 0.00625732 -2.45329e-17)
(-0.145456 0.00764992 9.64859e-18)
(-0.132912 0.0101953 2.59597e-17)
(-0.120386 0.0128845 -4.2153e-18)
(-0.0992039 0.0182811 -2.26559e-18)
(-0.0754346 0.0208495 -4.06013e-18)
(-0.0449959 0.0253773 -2.97279e-18)
(-0.00951918 0.0181439 -1.43974e-17)
(-0.185695 0.00541895 1.27875e-17)
(-0.177434 0.00468343 8.39546e-18)
(-0.169731 0.00427925 6.14172e-18)
(-0.163087 0.00433845 2.63891e-18)
(-0.154849 0.0048792 -2.64185e-17)
(-0.147076 0.00595302 5.73894e-18)
(-0.13437 0.00794756 2.24774e-17)
(-0.12152 0.0100371 -1.0416e-17)
(-0.100028 0.0142688 -3.11956e-18)
(-0.0755967 0.016311 -4.23437e-18)
(-0.0445267 0.0198172 -3.08727e-18)
(-0.00923114 0.0143269 -1.52008e-17)
(-0.18736 0.00390433 8.38953e-18)
(-0.179003 0.00337057 7.18369e-18)
(-0.171207 0.00307401 5.63779e-18)
(-0.164485 0.00310626 2.35719e-18)
(-0.156159 0.00348954 -2.12338e-17)
(-0.148287 0.00424798 3.57499e-18)
(-0.135462 0.00568305 1.21821e-17)
(-0.12237 0.0071704 -8.79017e-18)
(-0.100647 0.0102162 -3.9467e-18)
(-0.0757224 0.0117017 -5.34908e-18)
(-0.0441671 0.0142126 -2.93764e-18)
(-0.0090059 0.0104152 -1.85805e-17)
(-0.188466 0.00236931 5.20802e-18)
(-0.180046 0.00204051 6.96075e-18)
(-0.172187 0.00185496 5.54775e-18)
(-0.165414 0.0018645 2.04698e-18)
(-0.15703 0.00209282 -9.50887e-18)
(-0.149095 0.00254065 3.19576e-18)
(-0.136191 0.00341179 1.51265e-17)
(-0.122938 0.00429823 -9.53431e-18)
(-0.101063 0.00614462 -4.94315e-18)
(-0.0758097 0.00704908 -6.58796e-18)
(-0.0439225 0.00857056 -2.3708e-18)
(-0.00884938 0.00638549 -1.56929e-17)
(-0.180566 0.000685945 7.09438e-18)
(-0.172677 0.000618093 6.39196e-18)
(-0.165879 0.000613994 2.09384e-18)
(-0.157466 0.000689685 6.77801e-19)
(-0.149498 0.000833309 4.39036e-18)
(-0.136556 0.00113033 2.03669e-17)
(-0.123223 0.00141964 -1.16631e-17)
(-0.101272 0.00204359 -5.77223e-18)
(-0.0758549 0.00234483 1.2107e-18)
(-0.0437976 0.00285498 8.59157e-18)
(-0.00876796 0.0021652 -5.65635e-18)
(-0.110402 0.0185468 8.71432e-18)
(-0.105102 0.0232903 4.07172e-18)
(-0.096416 0.0301854 -2.67478e-18)
(-0.0907512 0.0383333 1.31745e-17)
(-0.0775149 0.0515422 -6.91975e-19)
(-0.0710533 0.0568801 5.60754e-19)
(-0.0522044 0.0711028 2.81818e-19)
(-0.0158484 0.0372544 4.51183e-18)
(-0.139732 0.0171653 2.95259e-17)
(-0.133638 0.0150468 2.16771e-17)
(-0.127992 0.0142003 7.2567e-18)
(-0.12297 0.0150619 1.46951e-17)
(-0.116776 0.0174247 1.11796e-17)
(-0.11121 0.0218267 -2.4547e-18)
(-0.102002 0.0284274 4.48524e-19)
(-0.0954161 0.0361006 7.35422e-18)
(-0.0810075 0.0490632 1.2868e-18)
(-0.07192 0.0542795 -7.25052e-18)
(-0.0517878 0.067922 2.08823e-20)
(-0.0146116 0.0375081 3.38994e-18)
(-0.146477 0.0164314 3.20159e-17)
(-0.140135 0.0143502 2.34442e-17)
(-0.134263 0.0134494 1.18823e-17)
(-0.129073 0.0141525 1.61677e-17)
(-0.122643 0.0162924 1.47454e-17)
(-0.116811 0.0203397 -4.78928e-18)
(-0.107099 0.026606 3.3929e-18)
(-0.0996274 0.033762 7.7195e-18)
(-0.0841183 0.0463533 3.3329e-18)
(-0.0725774 0.0514414 -9.84418e-18)
(-0.0511775 0.0645033 -3.96015e-19)
(-0.0137036 0.0377545 2.44231e-18)
(-0.15276 0.015666 3.29084e-17)
(-0.146168 0.0136302 2.25342e-17)
(-0.140065 0.012683 1.14991e-17)
(-0.134702 0.0132306 1.42918e-17)
(-0.128033 0.0151443 9.12097e-18)
(-0.121939 0.0188222 -2.47893e-18)
(-0.111748 0.024715 6.38052e-18)
(-0.103438 0.0313105 4.03955e-18)
(-0.0869077 0.0434171 5.22448e-18)
(-0.0731029 0.0483554 -9.37825e-18)
(-0.0504223 0.0608494 1.00554e-19)
(-0.0129791 0.0381148 1.74203e-18)
(-0.15859 0.0148225 3.26884e-17)
(-0.151753 0.0128497 2.37676e-17)
(-0.145417 0.0118739 1.6662e-17)
(-0.139877 0.012275 1.43554e-17)
(-0.132969 0.0139605 4.38188e-18)
(-0.126624 0.0172581 -1.25122e-18)
(-0.115981 0.0227278 1.05982e-17)
(-0.106894 0.0287328 6.61613e-18)
(-0.0894234 0.0401997 -2.46143e-18)
(-0.0735593 0.0449666 -1.02889e-17)
(-0.0495525 0.0568023 -4.62953e-18)
(-0.0123298 0.0382858 -3.71575e-18)
)
;

boundaryField
{
    inlet
    {
        type            uniformFixedValue;
        uniformValue    constant (1 0 0);
        value           nonuniform 0();
    }
    outlet
    {
        type            pressureInletOutletVelocity;
        value           nonuniform 0();
    }
    polygon
    {
        type            fixedValue;
        value           uniform (0 0 0);
    }
    top
    {
        type            symmetryPlane;
    }
    bottom
    {
        type            symmetryPlane;
    }
    outside
    {
        type            zeroGradient;
    }
    procBoundary34to26
    {
        type            processor;
        value           nonuniform List<vector> 
11
(
(-0.180566 -0.000685797 9.14418e-18)
(-0.172677 -0.000617953 7.86119e-18)
(-0.165879 -0.000613876 1.90333e-18)
(-0.157466 -0.000689597 1.09714e-17)
(-0.149498 -0.000833252 6.07595e-18)
(-0.136556 -0.0011303 2.87459e-17)
(-0.123223 -0.00141963 -6.94084e-18)
(-0.101272 -0.00204359 -7.67563e-18)
(-0.0758549 -0.00234484 9.33438e-18)
(-0.0437976 -0.00285499 1.10947e-17)
(-0.00876796 -0.00216521 2.71502e-18)
)
;
    }
    procBoundary34to35
    {
        type            processor;
        value           nonuniform List<vector> 
11
(
(-0.172684 0.0164569 1.92444e-17)
(-0.177985 0.0149187 1.40753e-17)
(-0.182715 0.0133191 1.10991e-17)
(-0.186864 0.0116756 9.19259e-18)
(-0.190426 0.0099841 -2.05691e-18)
(-0.193395 0.00824752 -3.23857e-18)
(-0.195768 0.00647183 -5.35686e-18)
(-0.197543 0.00466394 2.85617e-18)
(-0.198722 0.00283293 1.13174e-17)
(-0.189016 0.000804222 2.61036e-18)
(-0.189016 0.000804222 2.61036e-18)
)
;
    }
    procBoundary34to42
    {
        type            processor;
        value           nonuniform List<vector> 
13
(
(-0.10349 0.019657 7.46954e-18)
(-0.0984456 0.0247261 6.47084e-18)
(-0.0902916 0.0318696 -6.37045e-18)
(-0.0855687 0.0404449 1.64094e-17)
(-0.0735636 0.05376 -3.49978e-18)
(-0.0698798 0.0592257 3.88235e-18)
(-0.0523636 0.0740019 -4.58893e-18)
(-0.0176276 0.0369763 6.12146e-18)
(-0.132514 0.0178574 2.51682e-17)
(-0.126665 0.0157158 2.15249e-17)
(-0.121235 0.0149353 3.07759e-18)
(-0.116369 0.0159621 9.59628e-18)
(-0.116369 0.0159621 9.59628e-18)
)
;
    }
    procBoundary34to43
    {
        type            processor;
        value           nonuniform List<vector> 4((-0.147224 0.0205377 1.28121e-17) (-0.154281 0.0196721 1.54839e-17) (-0.16087 0.0187678 1.5087e-17) (-0.167 0.0177687 1.65765e-17));
    }
}


// ************************************************************************* //
