/*--------------------------------*- C++ -*----------------------------------*\
  =========                 |
  \\      /  F ield         | OpenFOAM: The Open Source CFD Toolbox
   \\    /   O peration     | Website:  https://openfoam.org
    \\  /    A nd           | Version:  7
     \\/     M anipulation  |
\*---------------------------------------------------------------------------*/
FoamFile
{
    version     2.0;
    format      ascii;
    class       volScalarField;
    location    "70";
    object      p;
}
// * * * * * * * * * * * * * * * * * * * * * * * * * * * * * * * * * * * * * //

dimensions      [0 2 -2 0 0 0 0];

internalField   nonuniform List<scalar> 
125
(
0.535998
0.660227
0.489265
0.541986
0.677113
0.549332
0.547585
0.691784
0.601045
0.55205
0.703438
0.645545
0.555371
0.712179
0.68323
0.557486
0.718275
0.714521
0.558405
0.721927
-0.0927845
-0.147355
-0.134947
-0.0415128
-0.0849144
-0.140625
-0.141366
-0.0265341
-0.063665
-0.115055
-0.105933
-0.010454
-0.0452563
-0.0934674
-0.0811018
0.0086627
-0.0231664
-0.068129
-0.0561608
0.0297631
-0.000110039
-0.0422761
-0.0312313
0.0519376
0.0243504
-0.0144975
-0.0053747
0.097895
0.0720248
0.0464732
0.0122005
0.0199643
0.116348
0.0927613
0.0683982
0.0381968
0.0419887
0.1516
0.132701
0.111699
0.0841695
0.0712371
-0.0792733
-0.0989703
-0.109061
-0.121561
-0.104073
-0.0779095
-0.100898
-0.110762
-0.126238
-0.117954
-0.0785913
-0.105486
-0.117592
-0.137659
-0.13329
-0.107399
-0.126187
-0.148457
-0.151841
-0.107248
-0.135904
-0.158359
-0.17344
-0.10482
-0.144044
-0.167622
-0.197769
-0.0989045
-0.146869
-0.176508
-0.218874
-0.0874667
-0.141688
-0.18556
-0.236661
-0.071507
-0.130553
-0.196272
-0.24464
-0.0587387
-0.115978
-0.201433
-0.30379
0.458443
0.440865
0.423011
0.356909
0.47507
0.458154
0.458758
0.368978
0.491632
0.476862
0.50214
0.378409
0.507627
0.497102
0.553768
0.384398
0.522545
0.519006
0.613066
0.395297
)
;

boundaryField
{
    inlet
    {
        type            zeroGradient;
    }
    outlet
    {
        type            fixedValue;
        value           nonuniform 0();
    }
    polygon
    {
        type            zeroGradient;
    }
    top
    {
        type            symmetryPlane;
    }
    bottom
    {
        type            symmetryPlane;
    }
    outside
    {
        type            slip;
    }
    procBoundary25to16
    {
        type            processor;
        value           nonuniform List<scalar> 9(0.532529 0.532529 0.536049 0.539234 0.435566 0.443644 0.451685 0.459559 0.467054);
    }
    procBoundary25to17
    {
        type            processor;
        value           nonuniform List<scalar> 
28
(
-0.0499431
-0.0499431
-0.0499431
0.000507167
0.0133749
0.0276437
0.0439735
0.0621162
0.0808636
0.0808636
0.116469
0.133523
0.164738
-0.0583748
-0.0543274
-0.0514328
-0.0762518
-0.0762518
-0.0721209
-0.0653038
-0.0554565
-0.0416217
-0.0257277
-0.0152224
0.442171
0.424942
0.393576
0.34328
)
;
    }
    procBoundary25to18
    {
        type            processor;
        value           nonuniform List<scalar> 5(-0.0589197 -0.0599285 -0.0629184 -0.0673029 -0.0730551);
    }
    procBoundary25to24
    {
        type            processor;
        value           nonuniform List<scalar> 4(0.541752 0.543605 0.544793 0.545368);
    }
    procBoundary25to33
    {
        type            processor;
        value           nonuniform List<scalar> 4(0.739647 0.557853 0.739647 0.722842);
    }
}


// ************************************************************************* //
