/*--------------------------------*- C++ -*----------------------------------*\
  =========                 |
  \\      /  F ield         | OpenFOAM: The Open Source CFD Toolbox
   \\    /   O peration     | Website:  https://openfoam.org
    \\  /    A nd           | Version:  7
     \\/     M anipulation  |
\*---------------------------------------------------------------------------*/
FoamFile
{
    version     2.0;
    format      ascii;
    class       volVectorField;
    location    "5";
    object      U;
}
// * * * * * * * * * * * * * * * * * * * * * * * * * * * * * * * * * * * * * //

dimensions      [0 1 -1 0 0 0 0];

internalField   nonuniform List<vector> 
75
(
(1.0229 -0.00376805 -6.15778e-18)
(0.963823 0.00372593 -1.38282e-21)
(1.03923 -0.00137554 4.09204e-19)
(0.952649 -0.00460679 4.07548e-20)
(1.03333 0.0032223 7.80295e-19)
(0.99803 -0.000753415 1.59433e-19)
(1.005 -0.00287469 3.19744e-19)
(0.996432 0.00844293 5.70724e-21)
(1.00795 -0.0207738 1.8474e-19)
(1.00038 0.0213346 3.97833e-19)
(1.01289 -0.034934 -4.15067e-19)
(1.02079 0.00605082 -1.30171e-20)
(0.998634 -0.0019306 1.84512e-19)
(1.0052 -0.00142935 1.83964e-19)
(0.995575 0.00642573 1.46084e-19)
(1.00825 -0.0201581 -3.24689e-19)
(0.998956 0.0189539 1.28818e-18)
(1.01074 -0.0386646 -3.39234e-18)
(1.01682 0.00238413 -4.10601e-19)
(0.999143 -0.00252919 3.43211e-19)
(1.00522 -0.000482316 -1.59845e-19)
(0.99512 0.00542368 1.22072e-19)
(1.00811 -0.0195299 -9.90145e-19)
(0.997778 0.0179981 6.20514e-18)
(1.00868 -0.0394052 -2.74017e-17)
(1.01321 0.000928008 1.3728e-17)
(1.00016 -0.00369896 -1.00215e-19)
(1.00445 0.00121334 1.96624e-19)
(0.995459 0.00374736 2.63356e-19)
(1.00693 -0.0187138 -6.03131e-19)
(0.997062 0.0167632 2.03625e-18)
(1.00592 -0.0406731 -7.34611e-18)
(1.00769 -0.001559 2.61865e-17)
(1.00175 -0.00462868 -1.12487e-18)
(1.00233 0.00265893 3.11544e-18)
(0.997552 0.00237742 -8.54151e-19)
(1.00398 -0.0174238 -2.75011e-18)
(0.99724 0.0155039 -3.05142e-18)
(1.00329 -0.0402164 -2.11417e-18)
(1.00147 -0.00362011 6.03332e-18)
(1.00428 -0.00557896 -7.33606e-18)
(0.998264 0.00422789 2.90574e-17)
(1.00192 0.000896346 -1.68225e-17)
(0.998641 -0.0158556 -2.31528e-17)
(0.999131 0.0140665 -3.59288e-17)
(0.999493 -0.0388215 -2.96985e-18)
(0.994719 -0.00554593 -2.28864e-17)
(1.00786 -0.00618841 -2.29094e-17)
(0.991946 0.00536085 -2.60159e-18)
(1.00901 -0.000323734 -1.91344e-18)
(0.990321 -0.013655 -2.03109e-18)
(1.0036 0.0119178 -3.79599e-18)
(0.993818 -0.0352483 -9.15622e-19)
(0.989186 -0.00797668 -1.28653e-18)
(1.01238 -0.00636153 -1.66366e-18)
(0.983498 0.00598166 -5.4478e-19)
(1.01864 -0.0013717 -3.00839e-19)
(0.978718 -0.0110618 -3.40547e-19)
(1.01193 0.00945378 -1.7958e-19)
(0.983747 -0.0306382 6.61178e-20)
(0.988333 -0.00888042 3.94666e-19)
(1.01725 -0.00583765 -1.73661e-19)
(0.974146 0.00564509 -1.98738e-19)
(1.02922 -0.0017192 8.95422e-20)
(0.965439 -0.00846693 3.38706e-19)
(1.02305 0.00660185 -4.44781e-19)
(0.96969 -0.0239936 -4.6971e-19)
(0.993567 -0.0110795 1.65481e-18)
(1.02136 -0.00479615 -5.59834e-19)
(0.966313 0.00482331 3.36169e-20)
(1.03759 -0.00187859 2.26644e-20)
(0.954282 -0.00561448 -1.32784e-20)
(1.03348 0.0039665 -2.10585e-19)
(0.953383 -0.0169644 -1.37653e-19)
(1.00841 -0.0105413 3.24458e-19)
)
;

boundaryField
{
    inlet
    {
        type            uniformFixedValue;
        uniformValue    constant (1 0 0);
        value           uniform (1 0 0);
    }
    outlet
    {
        type            pressureInletOutletVelocity;
        value           nonuniform 0();
    }
    polygon
    {
        type            fixedValue;
        value           nonuniform 0();
    }
    top
    {
        type            symmetryPlane;
    }
    bottom
    {
        type            symmetryPlane;
    }
    outside
    {
        type            zeroGradient;
    }
    procBoundary0to1
    {
        type            processor;
        value           nonuniform List<vector> 5((1.03168 -0.047613 -1.04746e-18) (1.02779 -0.0617751 5.59623e-18) (1.02314 -0.0659467 2.31237e-17) (1.01744 -0.0751309 -3.3907e-19) (1.01035 -0.0803712 -2.65662e-17));
    }
    procBoundary0to4
    {
        type            processor;
        value           nonuniform List<vector> 8((1.02338 -0.00339317 -9.91191e-18) (0.963097 0.00331422 9.01268e-19) (1.03963 -0.00114488 3.32842e-19) (0.952379 -0.00424241 1.58394e-19) (0.952674 -0.014007 -1.63062e-18) (1.03295 0.00302714 9.28918e-19) (0.952674 -0.014007 -1.63062e-18) (1.006 -0.00798378 -3.7477e-18));
    }
    procBoundary0to5
    {
        type            processor;
        value           nonuniform List<vector> 5((1.0022 -0.0856179 -3.25081e-17) (0.992486 -0.0854988 -8.35516e-18) (0.977227 -0.0857898 -3.04754e-18) (0.956231 -0.0748806 -9.59899e-18) (0.915504 -0.0625207 -1.72172e-18));
    }
}


// ************************************************************************* //
