/*--------------------------------*- C++ -*----------------------------------*\
  =========                 |
  \\      /  F ield         | OpenFOAM: The Open Source CFD Toolbox
   \\    /   O peration     | Website:  https://openfoam.org
    \\  /    A nd           | Version:  7
     \\/     M anipulation  |
\*---------------------------------------------------------------------------*/
FoamFile
{
    version     2.0;
    format      ascii;
    class       volVectorField;
    location    "72";
    object      U;
}
// * * * * * * * * * * * * * * * * * * * * * * * * * * * * * * * * * * * * * //

dimensions      [0 1 -1 0 0 0 0];

internalField   nonuniform List<vector> 
125
(
(-0.19542 0.0031118 5.38333e-19)
(-0.194155 0.00278739 -7.80713e-19)
(-0.192939 0.00248761 -9.21152e-19)
(-0.191762 0.00221322 -1.69629e-18)
(-0.190617 0.00196473 -1.17397e-18)
(-0.189494 0.00174245 -7.85227e-20)
(-0.188384 0.00154658 -1.19223e-18)
(-0.187277 0.00137718 1.40945e-19)
(-0.186164 0.00123425 -6.98131e-19)
(-0.185036 0.00111771 3.87468e-19)
(-0.183885 0.00102743 4.59526e-18)
(-0.182701 0.000963262 9.72178e-19)
(-0.181476 0.000925312 5.34661e-18)
(-0.180202 0.000912998 1.92066e-19)
(-0.17887 0.00092618 5.4367e-19)
(-0.177473 0.000964331 3.14656e-18)
(-0.176002 0.00102752 1.39682e-18)
(-0.20373 0.00275902 3.68033e-19)
(-0.20254 0.00245366 9.14431e-19)
(-0.201418 0.00217016 -1.27911e-18)
(-0.200354 0.0019092 -3.45992e-19)
(-0.19934 0.00167129 -1.94415e-18)
(-0.198366 0.00145671 -3.2908e-19)
(-0.197423 0.00126565 -3.5006e-18)
(-0.196501 0.0010982 -2.44768e-19)
(-0.195593 0.000954364 -2.18577e-18)
(-0.194688 0.000834079 3.41807e-19)
(-0.193778 0.000737223 1.21366e-18)
(-0.192854 0.000663676 4.44568e-19)
(-0.191907 0.00061364 2.25117e-18)
(-0.190929 0.000586447 -1.80114e-18)
(-0.189911 0.000582781 -1.78998e-19)
(-0.188846 0.000601606 5.72527e-18)
(-0.187725 0.000642606 1.32724e-18)
(-0.211073 0.00241704 3.76688e-19)
(-0.209942 0.00213474 3.2014e-18)
(-0.208894 0.00187156 -2.64604e-18)
(-0.207921 0.00162814 9.89317e-19)
(-0.207013 0.00140494 -4.26573e-18)
(-0.206162 0.00120225 -4.34517e-19)
(-0.205358 0.00102028 -7.71608e-19)
(-0.204592 0.000859137 2.79995e-20)
(-0.203856 0.000718883 2.59995e-18)
(-0.203139 0.000599519 6.26118e-19)
(-0.202434 0.000500997 -1.20546e-18)
(-0.201731 0.000423271 -2.54431e-19)
(-0.201022 0.000366685 9.507e-19)
(-0.200297 0.000330941 -5.58174e-18)
(-0.199548 0.000314681 -5.70234e-19)
(-0.198768 0.000318195 2.60334e-18)
(-0.197948 0.000342055 1.46907e-18)
(-0.217467 0.00208377 5.71122e-19)
(-0.21638 0.00182964 1.03076e-18)
(-0.21539 0.001592 2.21311e-19)
(-0.214488 0.00137145 3.46642e-18)
(0.0193328 0.0125005 -2.00364e-19)
(0.0264813 0.013008 1.54447e-19)
(0.033985 0.0135686 -2.51795e-19)
(0.0418536 0.0141821 1.6673e-20)
(0.0500974 0.0148484 1.85421e-19)
(0.0587274 0.0155678 -2.72192e-20)
(-0.0813853 0.00805215 -6.75689e-20)
(-0.0783403 0.00785312 -5.60105e-18)
(-0.0751122 0.00770255 -1.1965e-18)
(-0.0716917 0.00760133 -6.27872e-18)
(-0.0680698 0.00754997 -2.02346e-18)
(-0.0642377 0.00754864 -2.01604e-19)
(-0.0601868 0.00759726 -9.60494e-19)
(-0.0559084 0.00769556 -2.10645e-19)
(-0.0513943 0.00784312 -4.95474e-19)
(-0.0466362 0.0080394 1.22209e-18)
(-0.041626 0.00828384 -7.38761e-19)
(-0.0363556 0.00857581 1.27215e-18)
(-0.0308169 0.00891478 -9.83553e-19)
(-0.0250016 0.00930022 1.25038e-20)
(-0.018901 0.00973181 5.98609e-19)
(-0.0125064 0.0102094 3.44162e-19)
(-0.120772 0.00626145 1.30267e-18)
(-0.118488 0.00596474 -7.06703e-19)
(-0.116097 0.0057099 -4.23631e-19)
(-0.113591 0.0054979 -1.43866e-18)
(-0.110959 0.00532932 -5.19946e-18)
(-0.108194 0.00520449 2.74422e-19)
(-0.105286 0.00512348 -4.88229e-18)
(-0.102226 0.0050862 4.18985e-19)
(-0.0990059 0.00509236 -4.66148e-18)
(-0.0956174 0.00514157 7.4769e-18)
(-0.0920522 0.00523333 -5.2566e-18)
(-0.0883025 0.0053671 7.38254e-18)
(-0.0843606 0.00554236 -5.86884e-18)
(-0.0802187 0.00575853 7.60766e-19)
(-0.0758692 0.00601518 1.92907e-18)
(-0.0713042 0.00631194 2.21389e-18)
(-0.153512 0.0048953 6.42975e-18)
(-0.151756 0.00455192 1.24723e-19)
(-0.149961 0.00424368 -2.62015e-19)
(-0.148118 0.00397154 -1.28855e-18)
(-0.146216 0.00373613 4.46258e-18)
(-0.144247 0.00353787 6.87285e-18)
(-0.142202 0.00337696 6.59766e-18)
(-0.140071 0.00325345 7.61539e-18)
(-0.137846 0.00316725 6.90507e-18)
(-0.135519 0.00311816 9.3006e-18)
(-0.133081 0.00310592 8.33034e-19)
(-0.130523 0.00313016 8.46903e-18)
(-0.127838 0.00319057 6.31048e-19)
(-0.125018 0.00328662 7.99598e-18)
(-0.122056 0.00341796 9.66574e-18)
(-0.118944 0.00358414 1.02561e-17)
(-0.180246 0.00380754 1.3394e-18)
(-0.178834 0.00346438 -4.72496e-18)
(-0.177438 0.00315018 -1.01749e-18)
(-0.17605 0.00286581 -5.80278e-18)
(-0.17466 0.00261183 -6.36681e-19)
(-0.17326 0.00238862 9.59745e-19)
(-0.17184 0.00219638 8.80488e-19)
(-0.17039 0.00203519 1.25031e-18)
(-0.168902 0.00190506 1.34782e-18)
(-0.167367 0.00180591 1.63941e-18)
(-0.165776 0.00173761 1.32684e-18)
(-0.16412 0.0017 1.92566e-18)
(-0.162392 0.00169304 1.66905e-18)
(-0.160583 0.00171625 1.53979e-18)
(-0.158686 0.00176967 1.98212e-18)
(-0.156693 0.00185267 2.72676e-18)
)
;

boundaryField
{
    inlet
    {
        type            uniformFixedValue;
        uniformValue    constant (1 0 0);
        value           nonuniform 0();
    }
    outlet
    {
        type            pressureInletOutletVelocity;
        value           nonuniform 0();
    }
    polygon
    {
        type            fixedValue;
        value           nonuniform 0();
    }
    top
    {
        type            symmetryPlane;
    }
    bottom
    {
        type            symmetryPlane;
    }
    outside
    {
        type            zeroGradient;
    }
    procBoundary44to36
    {
        type            processor;
        value           nonuniform List<vector> 
18
(
(-0.213666 0.00116838 -2.81661e-18)
(-0.212915 0.000983077 6.07107e-20)
(-0.212225 0.00081572 1.45387e-18)
(-0.211587 0.000666421 5.12624e-19)
(-0.210994 0.000535222 1.31042e-18)
(-0.210435 0.000422088 8.57415e-19)
(-0.209901 0.000326835 -4.78884e-18)
(-0.209384 0.000249421 -6.03755e-19)
(-0.208874 0.000190561 3.76074e-19)
(-0.208364 0.000148001 -4.47334e-18)
(-0.207844 0.000126425 -2.13415e-19)
(-0.207305 0.000121754 1.52124e-18)
(-0.20674 0.000132886 1.77377e-18)
(-0.222925 0.00175833 7.00031e-19)
(-0.221871 0.00153641 -6.93476e-19)
(-0.220925 0.00132837 3.00771e-18)
(-0.213666 0.00116838 -2.81661e-18)
(-0.220079 0.00113473 8.3493e-18)
)
;
    }
    procBoundary44to37
    {
        type            processor;
        value           nonuniform List<vector> 2((-0.212295 0.00271751 8.2189e-19) (-0.218658 0.00235356 1.52061e-18));
    }
    procBoundary44to43
    {
        type            processor;
        value           nonuniform List<vector> 9((-0.17445 0.00111582 7.12826e-18) (-0.154595 0.00196507 2.48287e-18) (-0.18654 0.000705794 3.24527e-18) (-0.197079 0.000386297 1.63445e-18) (0.0677552 0.0163408 1.12689e-19) (-0.0058084 0.0107331 5.17424e-19) (-0.0665159 0.00664872 2.27653e-18) (-0.115675 0.00378502 1.07085e-17) (-0.154595 0.00196507 2.48287e-18));
    }
    procBoundary44to45
    {
        type            processor;
        value           nonuniform List<vector> 6((-0.196743 0.00345975 5.42463e-19) (-0.204994 0.00308522 5.74677e-19) (-0.0842562 0.00829825 3.13404e-19) (-0.122959 0.00659864 1.27667e-18) (-0.155237 0.00527247 6.20025e-18) (-0.181684 0.00417845 1.2722e-18));
    }
    procBoundary44to52
    {
        type            processor;
        value           nonuniform List<vector> 
17
(
(0.0918983 0.0181428 1.75209e-19)
(0.10129 0.0189307 1.40794e-19)
(0.111134 0.0197789 -1.71322e-19)
(0.12144 0.0206877 6.26907e-20)
(0.132223 0.0216577 9.46521e-20)
(0.143495 0.0226897 -1.34435e-21)
(-0.0345467 0.0104408 -2.93898e-19)
(-0.0304704 0.0103968 -2.05022e-18)
(-0.0261258 0.0104078 -7.82014e-19)
(-0.021504 0.0104744 -2.17623e-18)
(-0.0165963 0.0105971 -5.09342e-19)
(-0.0113941 0.0107759 -2.87247e-20)
(-0.00588874 0.0110106 -2.52192e-19)
(-7.18773e-05 0.011301 -7.42085e-20)
(0.00606498 0.0116464 3.81843e-20)
(0.0125303 0.0120465 1.84605e-19)
(0.0125303 0.0120465 1.84605e-19)
)
;
    }
}


// ************************************************************************* //
