/*--------------------------------*- C++ -*----------------------------------*\
  =========                 |
  \\      /  F ield         | OpenFOAM: The Open Source CFD Toolbox
   \\    /   O peration     | Website:  https://openfoam.org
    \\  /    A nd           | Version:  7
     \\/     M anipulation  |
\*---------------------------------------------------------------------------*/
FoamFile
{
    version     2.0;
    format      ascii;
    class       volVectorField;
    location    "10";
    object      U;
}
// * * * * * * * * * * * * * * * * * * * * * * * * * * * * * * * * * * * * * //

dimensions      [0 1 -1 0 0 0 0];

internalField   nonuniform List<vector> 
50
(
(1.20102 0.347974 2.08494e-17)
(1.23927 0.365116 -2.08701e-17)
(1.12974 0.433805 6.39505e-18)
(1.09755 0.278998 5.2859e-17)
(1.21409 0.281265 -4.9988e-18)
(1.21373 0.349771 -3.28709e-17)
(1.23786 0.36623 -4.16853e-19)
(1.06691 0.410131 5.95758e-17)
(0.47843 0.214907 -3.3804e-17)
(1.22769 0.287371 -4.41649e-18)
(1.22693 0.346409 1.00281e-17)
(1.21145 0.349858 4.85503e-18)
(0.940007 0.35116 4.10861e-17)
(0.28175 0.0999032 -3.11342e-17)
(1.23776 0.289851 -3.97096e-19)
(1.22934 0.338253 7.11895e-18)
(1.16443 0.330494 1.08278e-17)
(0.756127 0.298698 3.09343e-17)
(0.0527256 0.0144965 -1.39276e-17)
(1.24645 0.290037 -7.99311e-18)
(1.22192 0.325562 1.37599e-17)
(1.09468 0.308053 1.07525e-17)
(0.557513 0.238711 1.7947e-17)
(-0.0515503 -0.00375777 -4.95214e-18)
(1.2471 0.285632 1.22275e-17)
(1.19962 0.309155 1.86968e-18)
(1.00036 0.283124 1.22598e-17)
(0.375908 0.183001 9.06807e-18)
(-0.136614 0.0469372 -1.12882e-18)
(1.24803 0.280514 -2.50502e-17)
(1.17392 0.291922 2.06821e-17)
(0.887204 0.253321 8.19131e-18)
(0.22349 0.140615 -3.19232e-18)
(-0.175196 0.109606 -2.13085e-18)
(1.23515 0.268259 -9.1494e-18)
(1.12442 0.270865 -1.31477e-17)
(0.756883 0.223237 1.37425e-17)
(0.0984849 0.142934 -4.8405e-17)
(-0.201413 0.160424 -7.81784e-18)
(1.22742 0.260224 -3.38013e-17)
(1.08581 0.254965 6.13574e-17)
(0.646908 0.196141 -1.17527e-17)
(-0.000781672 0.188418 -1.75124e-16)
(-0.22269 0.191689 -5.22859e-18)
(1.26433 0.248728 -8.19891e-18)
(1.19991 0.239454 -2.57113e-17)
(1.00037 0.223754 1.55549e-18)
(0.508097 0.169507 -2.60589e-17)
(-0.0834733 0.229554 -2.09094e-16)
(-0.22374 0.202496 -1.06297e-17)
)
;

boundaryField
{
    inlet
    {
        type            uniformFixedValue;
        uniformValue    constant (1 0 0);
        value           nonuniform 0();
    }
    outlet
    {
        type            pressureInletOutletVelocity;
        value           nonuniform 0();
    }
    polygon
    {
        type            fixedValue;
        value           uniform (0 0 0);
    }
    top
    {
        type            symmetryPlane;
    }
    bottom
    {
        type            symmetryPlane;
    }
    outside
    {
        type            zeroGradient;
    }
    procBoundary10to9
    {
        type            processor;
        value           nonuniform List<vector> 4((1.19126 0.342653 3.73462e-18) (1.22998 0.352919 -1.72156e-17) (1.21069 0.584662 1.43812e-17) (1.22034 0.445911 -2.58474e-17));
    }
    procBoundary10to11
    {
        type            processor;
        value           nonuniform List<vector> 5((0.995863 0.151739 -4.32575e-18) (0.585657 0.111478 1.07109e-18) (-0.0359012 0.0412388 -1.85633e-18) (-0.642894 0.0211361 6.40162e-18) (-0.769413 0.00856033 -6.68237e-18));
    }
    procBoundary10to14
    {
        type            processor;
        value           nonuniform List<vector> 
12
(
(1.20468 0.272717 5.40481e-18)
(1.20468 0.272717 5.40481e-18)
(1.21241 0.255471 2.44059e-17)
(1.22261 0.259137 2.01394e-17)
(1.23174 0.261262 1.44765e-17)
(1.24144 0.262925 8.50365e-18)
(1.24899 0.262431 6.75693e-18)
(1.25685 0.262025 -1.99862e-18)
(1.26089 0.258324 -4.40855e-18)
(1.26444 0.25575 -6.05578e-18)
(1.26444 0.25575 -6.05578e-18)
(1.27079 0.232443 2.85187e-18)
)
;
    }
    procBoundary10to15
    {
        type            processor;
        value           uniform (1.20967 0.181072 3.59307e-18);
    }
}


// ************************************************************************* //
