/*--------------------------------*- C++ -*----------------------------------*\
  =========                 |
  \\      /  F ield         | OpenFOAM: The Open Source CFD Toolbox
   \\    /   O peration     | Website:  https://openfoam.org
    \\  /    A nd           | Version:  7
     \\/     M anipulation  |
\*---------------------------------------------------------------------------*/
FoamFile
{
    version     2.0;
    format      ascii;
    class       volScalarField;
    location    "18";
    object      p;
}
// * * * * * * * * * * * * * * * * * * * * * * * * * * * * * * * * * * * * * //

dimensions      [0 2 -2 0 0 0 0];

internalField   nonuniform List<scalar> 
4000
(
0.460453
0.47119
0.47512
0.481962
0.485852
0.490286
0.493042
0.495692
0.496462
0.496934
0.494143
0.491567
0.481676
0.474084
0.449676
0.422395
0.36081
0.2486
0.0855858
-0.425731
0.450071
0.460508
0.464227
0.470462
0.473893
0.477615
0.479637
0.481193
0.480676
0.479223
0.474266
0.468196
0.454282
0.43745
0.405094
0.371403
0.317545
0.304519
0.221293
0.439826
0.440318
0.450715
0.45428
0.460182
0.463168
0.4663
0.467459
0.467771
0.465671
0.461855
0.454081
0.443213
0.423849
0.398588
0.359788
0.320045
0.26672
0.21544
0.167255
0.0291348
0.430938
0.441208
0.444542
0.450087
0.452559
0.454989
0.455176
0.454147
0.450409
0.444367
0.433517
0.417885
0.393798
0.363535
0.324985
0.292835
0.257481
0.260782
0.203985
0.317683
0.421775
0.4318
0.434828
0.439963
0.441899
0.443622
0.442897
0.440636
0.43535
0.427001
0.413193
0.393611
0.365942
0.333393
0.298686
0.274931
0.251923
0.226658
0.222605
0.202182
0.412827
0.422551
0.425245
0.429932
0.431297
0.432249
0.430529
0.426982
0.419785
0.408753
0.392031
0.369469
0.340359
0.309379
0.28292
0.269446
0.250667
0.257479
0.237929
0.287496
0.404129
0.413524
0.415886
0.420122
0.420952
0.421198
0.418614
0.413992
0.405528
0.393022
0.374744
0.35061
0.321319
0.293415
0.273955
0.263881
0.252853
0.248366
0.251751
0.25983
0.39571
0.404748
0.406786
0.410546
0.410851
0.410363
0.406914
0.40087
0.390503
0.375731
0.355263
0.329723
0.301706
0.27904
0.265848
0.259441
0.253108
0.263708
0.262505
0.288908
0.387568
0.396209
0.397955
0.401224
0.40109
0.399961
0.395899
0.389229
0.378582
0.364108
0.344627
0.320618
0.294375
0.274701
0.263438
0.25949
0.258568
0.266781
0.271178
0.287541
0.379732
0.387934
0.389448
0.392194
0.391684
0.389918
0.385101
0.377318
0.365034
0.348311
0.325941
0.298566
0.270589
0.250407
0.24366
0.250389
0.261308
0.277192
0.283676
0.305155
0.566705
0.584871
0.591608
0.607024
0.617266
0.632801
0.646355
0.66372
0.681915
0.704161
0.729319
0.760175
0.79516
0.838774
0.886128
0.946532
1.00238
1.08799
1.1335
1.27495
0.556282
0.574024
0.580191
0.594957
0.604199
0.618675
0.630727
0.646338
0.662105
0.681475
0.702727
0.729425
0.758649
0.796571
0.833733
0.889398
0.927025
1.01293
1.02866
1.16483
0.545896
0.562939
0.568663
0.58245
0.590806
0.603992
0.614609
0.628454
0.64204
0.658976
0.677146
0.700836
0.726179
0.761981
0.795596
0.851346
0.887749
0.973171
0.994097
1.11334
0.535538
0.551826
0.557187
0.570068
0.577636
0.589655
0.598962
0.611186
0.622705
0.637245
0.652114
0.672329
0.692284
0.723904
0.748725
0.801805
0.824284
0.914099
0.920562
1.0516
0.525067
0.540596
0.545604
0.557614
0.564409
0.57527
0.583258
0.593808
0.603166
0.615137
0.626472
0.642937
0.657454
0.684437
0.702243
0.749488
0.767852
0.844624
0.860217
0.966873
0.514443
0.5292
0.53387
0.545
0.551054
0.560741
0.567447
0.576329
0.583573
0.592992
0.600887
0.613548
0.622856
0.644836
0.655619
0.697706
0.706277
0.787751
0.790075
0.942101
0.503717
0.517684
0.522059
0.532302
0.537686
0.54621
0.551738
0.559011
0.564275
0.571139
0.575752
0.584296
0.588506
0.603861
0.607927
0.638173
0.640956
0.687366
0.699962
0.772721
0.492929
0.506095
0.51024
0.519616
0.524436
0.531838
0.536336
0.542107
0.54558
0.55026
0.552039
0.55733
0.556318
0.567093
0.563293
0.592758
0.584492
0.663764
0.643567
0.883557
0.482137
0.494493
0.498495
0.507009
0.511373
0.517685
0.521338
0.525738
0.527876
0.53078
0.53028
0.532209
0.526831
0.529857
0.517649
0.527021
0.505563
0.493516
0.456987
0.406106
0.471302
0.482845
0.4868
0.494487
0.498564
0.503854
0.506907
0.510234
0.511467
0.512993
0.510819
0.510546
0.502392
0.502686
0.488426
0.505917
0.505897
0.598906
0.606306
0.935917
0.471302
0.482845
0.4868
0.494487
0.498565
0.503854
0.506907
0.510234
0.511467
0.512993
0.510819
0.510546
0.502392
0.502686
0.488426
0.505917
0.505897
0.598906
0.606306
0.935917
0.482137
0.494493
0.498495
0.507009
0.511373
0.517685
0.521338
0.525738
0.527876
0.53078
0.53028
0.53221
0.526831
0.529857
0.517649
0.527021
0.505563
0.493516
0.456987
0.406107
0.492929
0.506095
0.51024
0.519616
0.524436
0.531838
0.536336
0.542107
0.54558
0.55026
0.552039
0.55733
0.556318
0.567093
0.563293
0.592758
0.584493
0.663764
0.643567
0.883557
0.503717
0.517685
0.522059
0.532302
0.537686
0.54621
0.551738
0.559012
0.564275
0.571139
0.575752
0.584296
0.588506
0.603861
0.607927
0.638173
0.640956
0.687366
0.699962
0.772721
0.514443
0.5292
0.53387
0.545
0.551055
0.560741
0.567447
0.576329
0.583573
0.592992
0.600887
0.613548
0.622856
0.644836
0.655619
0.697706
0.706277
0.787751
0.790075
0.942101
0.525067
0.540596
0.545604
0.557614
0.564409
0.57527
0.583258
0.593808
0.603167
0.615137
0.626472
0.642937
0.657454
0.684437
0.702243
0.749488
0.767852
0.844624
0.860218
0.966873
0.535538
0.551826
0.557187
0.570068
0.577636
0.589655
0.598962
0.611186
0.622705
0.637245
0.652114
0.672329
0.692284
0.723904
0.748725
0.801805
0.824284
0.914099
0.920562
1.0516
0.545897
0.562939
0.568663
0.582451
0.590806
0.603992
0.61461
0.628454
0.64204
0.658976
0.677146
0.700837
0.726179
0.761981
0.795596
0.851346
0.887749
0.973171
0.994097
1.11334
0.556282
0.574024
0.580191
0.594957
0.604199
0.618675
0.630727
0.646339
0.662105
0.681475
0.702727
0.729425
0.758649
0.796571
0.833733
0.889398
0.927025
1.01293
1.02866
1.16483
0.566705
0.584871
0.591608
0.607024
0.617267
0.632801
0.646355
0.66372
0.681915
0.704161
0.729319
0.760175
0.79516
0.838774
0.886128
0.946532
1.00238
1.08799
1.1335
1.27495
0.379732
0.387934
0.389448
0.392194
0.391684
0.389918
0.385101
0.377318
0.365034
0.348311
0.325941
0.298566
0.270589
0.250407
0.24366
0.250389
0.261308
0.277192
0.283676
0.305155
0.387568
0.396209
0.397955
0.401224
0.40109
0.399961
0.395899
0.389229
0.378582
0.364108
0.344627
0.320618
0.294375
0.274701
0.263438
0.25949
0.258568
0.266781
0.271178
0.287541
0.39571
0.404748
0.406786
0.410546
0.410851
0.410363
0.406914
0.40087
0.390504
0.375731
0.355263
0.329723
0.301706
0.27904
0.265848
0.259441
0.253108
0.263708
0.262505
0.288908
0.404129
0.413524
0.415886
0.420122
0.420952
0.421198
0.418614
0.413992
0.405528
0.393023
0.374745
0.35061
0.321319
0.293415
0.273955
0.263881
0.252853
0.248366
0.251751
0.25983
0.412827
0.422551
0.425245
0.429932
0.431297
0.432249
0.430529
0.426982
0.419785
0.408753
0.392031
0.369469
0.340359
0.309379
0.28292
0.269446
0.250667
0.257479
0.237929
0.287496
0.421775
0.4318
0.434828
0.439963
0.441899
0.443622
0.442898
0.440636
0.43535
0.427001
0.413193
0.393611
0.365942
0.333393
0.298686
0.274931
0.251923
0.226658
0.222605
0.202182
0.430938
0.441208
0.444542
0.450087
0.45256
0.454989
0.455176
0.454147
0.450409
0.444367
0.433517
0.417885
0.393798
0.363535
0.324985
0.292835
0.257481
0.260782
0.203985
0.317683
0.440318
0.450715
0.45428
0.460182
0.463169
0.4663
0.46746
0.467771
0.465671
0.461855
0.454081
0.443213
0.423849
0.398588
0.359788
0.320045
0.26672
0.21544
0.167255
0.0291349
0.450071
0.460508
0.464227
0.470462
0.473893
0.477615
0.479637
0.481193
0.480676
0.479223
0.474266
0.468196
0.454282
0.43745
0.405094
0.371403
0.317545
0.304519
0.221293
0.439826
0.460453
0.47119
0.47512
0.481962
0.485852
0.490286
0.493042
0.495692
0.496462
0.496934
0.494143
0.491567
0.481676
0.474084
0.449676
0.422396
0.36081
0.2486
0.0855858
-0.425731
0.60012
0.618702
0.627471
0.642339
0.655186
0.67028
0.685912
0.703273
0.722416
0.743885
0.768119
0.795817
0.827633
0.864253
0.905709
0.952269
1.00203
1.05627
1.10617
1.15485
0.64384
0.660402
0.66915
0.68318
0.696425
0.711615
0.728077
0.746165
0.765966
0.787645
0.81127
0.836864
0.864296
0.893331
0.923521
0.954292
0.984082
1.01375
1.0355
1.05703
0.680477
0.694972
0.702596
0.714613
0.725848
0.738377
0.751619
0.765756
0.780835
0.796896
0.813939
0.8319
0.850658
0.869961
0.889455
0.908451
0.926478
0.942048
0.954269
0.961848
0.708028
0.720069
0.726637
0.736985
0.746753
0.757637
0.76909
0.781173
0.793819
0.806938
0.82041
0.834085
0.847756
0.86118
0.874033
0.885993
0.89654
0.905354
0.911618
0.915204
0.729054
0.738434
0.743465
0.751352
0.758683
0.766766
0.775173
0.783933
0.792994
0.802283
0.811711
0.82116
0.830487
0.839509
0.84802
0.855755
0.86248
0.867857
0.871685
0.873688
0.744956
0.752449
0.756523
0.762907
0.768856
0.775387
0.78212
0.789056
0.796121
0.80323
0.810293
0.817207
0.823857
0.830124
0.835873
0.840972
0.845274
0.848658
0.850987
0.852185
0.756328
0.761759
0.764702
0.769307
0.773586
0.778262
0.783064
0.78799
0.792987
0.797994
0.802948
0.807776
0.812398
0.816728
0.820676
0.824149
0.827062
0.829328
0.830885
0.831678
0.765037
0.769339
0.771663
0.775301
0.77866
0.782315
0.786037
0.789821
0.793618
0.797377
0.801045
0.804568
0.807892
0.810961
0.813721
0.816118
0.818103
0.819635
0.820676
0.821203
0.771065
0.774056
0.775685
0.778234
0.780597
0.783168
0.785788
0.788453
0.791128
0.793776
0.796361
0.798843
0.801184
0.803344
0.805283
0.806964
0.808355
0.809425
0.810152
0.81052
0.775739
0.778115
0.779392
0.781391
0.783226
0.785212
0.787222
0.78925
0.791269
0.79325
0.795167
0.796991
0.798695
0.800254
0.801642
0.802838
0.803821
0.804574
0.805083
0.80534
0.778908
0.78052
0.781396
0.782772
0.784043
0.785425
0.786827
0.788247
0.789665
0.791059
0.792412
0.793701
0.794908
0.796014
0.797
0.797849
0.798548
0.799083
0.799445
0.799628
0.781404
0.782695
0.783387
0.784469
0.785459
0.786527
0.787604
0.788686
0.789759
0.790808
0.791817
0.792773
0.793663
0.794473
0.795191
0.795808
0.796312
0.796698
0.796958
0.79709
0.783062
0.783924
0.784389
0.785126
0.785803
0.786541
0.787286
0.78804
0.788791
0.789527
0.790239
0.790915
0.791546
0.792122
0.792634
0.793074
0.793435
0.79371
0.793897
0.793991
0.784396
0.785099
0.785473
0.78606
0.786594
0.78717
0.787749
0.78833
0.788904
0.789464
0.790002
0.79051
0.790982
0.79141
0.79179
0.792115
0.79238
0.792583
0.79272
0.792789
0.785259
0.785724
0.78597
0.786369
0.78673
0.787127
0.787526
0.78793
0.788332
0.788725
0.789105
0.789465
0.789801
0.790107
0.790379
0.790612
0.790803
0.790949
0.791047
0.791097
0.785976
0.786366
0.78657
0.786895
0.787187
0.787504
0.787822
0.788141
0.788456
0.788762
0.789057
0.789334
0.789592
0.789826
0.790033
0.79021
0.790355
0.790465
0.790539
0.790577
0.786417
0.786677
0.78681
0.787034
0.787233
0.787456
0.787678
0.787904
0.788129
0.788349
0.788561
0.788763
0.78895
0.789122
0.789273
0.789404
0.78951
0.789592
0.789647
0.789675
0.786784
0.78701
0.787128
0.787319
0.78749
0.787678
0.787865
0.788054
0.788241
0.788423
0.788598
0.788764
0.788917
0.789056
0.78918
0.789285
0.789372
0.789437
0.789482
0.789504
0.786971
0.787124
0.787197
0.787337
0.787454
0.787594
0.787731
0.787874
0.788015
0.788155
0.788291
0.78842
0.788541
0.788652
0.78875
0.788834
0.788903
0.788956
0.788992
0.789009
0.787164
0.787305
0.787387
0.787519
0.787643
0.787779
0.787918
0.788059
0.7882
0.788338
0.788471
0.788597
0.788715
0.788822
0.788917
0.788998
0.789065
0.789115
0.78915
0.789167
0.00261437
0.00348688
0.00379221
0.00420726
0.00450815
0.00478471
0.00503026
0.00525035
0.00545139
0.00563644
0.00580772
0.00596687
0.00611483
0.00625176
0.00637708
0.00648932
0.00658599
0.00666366
0.00671846
0.0067469
0.0087476
0.0104971
0.0111605
0.0121095
0.0128479
0.0135445
0.0141842
0.0147694
0.0153066
0.0157983
0.0162455
0.0166486
0.0170077
0.0173228
0.0175935
0.0178194
0.0180005
0.0181363
0.0182269
0.0182723
0.0156916
0.0181337
0.0191707
0.0206086
0.0217791
0.0228894
0.0239194
0.0248703
0.0257489
0.0265576
0.0272973
0.0279683
0.0285701
0.0291017
0.0295619
0.0299492
0.0302617
0.0304979
0.0306563
0.0307358
0.0231315
0.0261069
0.0274171
0.0292402
0.0307522
0.032203
0.0335616
0.0348262
0.0360006
0.0370847
0.0380772
0.0389761
0.0397795
0.0404855
0.0410924
0.0415988
0.0420041
0.0423077
0.0425099
0.0426108
0.0311453
0.0346372
0.0362164
0.0384185
0.0402708
0.0420604
0.043748
0.0453281
0.0468025
0.0481694
0.0494254
0.0505667
0.0515896
0.0524907
0.0532668
0.0539155
0.0544351
0.0548247
0.0550841
0.0552137
0.0395312
0.0434889
0.0453084
0.0478449
0.0499993
0.0520906
0.0540737
0.0559393
0.0576867
0.0593114
0.0608073
0.062168
0.063388
0.0644619
0.0653858
0.0661566
0.0667727
0.0672335
0.0675398
0.0676926
0.048374
0.0528109
0.0548762
0.0577527
0.0602178
0.0626181
0.0649047
0.0670643
0.0690939
0.0709868
0.0727342
0.0743273
0.0757581
0.0770194
0.0781054
0.0790118
0.0797363
0.0802781
0.080638
0.0808174
0.0575476
0.0624466
0.0647564
0.0679579
0.0707239
0.0734206
0.0759995
0.0784426
0.080745
0.0828974
0.084888
0.0867056
0.0883396
0.0897807
0.0910214
0.0920567
0.0928835
0.0935013
0.0939112
0.0941155
0.0671088
0.0724932
0.0750599
0.0785987
0.0816813
0.0846887
0.0875746
0.0903165
0.092907
0.0953343
0.0975839
0.0996416
0.101494
0.103129
0.104538
0.105714
0.106652
0.107353
0.107818
0.10805
0.076975
0.0828454
0.0856806
0.0895573
0.0929628
0.0962843
0.0994813
0.102526
0.105409
0.108116
0.110629
0.112932
0.115007
0.11684
0.11842
0.119738
0.120791
0.121576
0.122097
0.122356
0.0871742
0.0935577
0.0966796
0.100911
0.104661
0.108316
0.111845
0.115214
0.118411
0.121419
0.124217
0.126784
0.1291
0.131149
0.132916
0.13439
0.135567
0.136445
0.137027
0.137316
0.0976441
0.104551
0.107979
0.112574
0.116685
0.120689
0.124563
0.128273
0.131799
0.135124
0.138222
0.141069
0.143642
0.145919
0.147884
0.149524
0.150833
0.15181
0.152456
0.152777
0.108386
0.115843
0.119599
0.124577
0.129074
0.133452
0.137698
0.141774
0.145658
0.149326
0.152752
0.155905
0.158759
0.161287
0.16347
0.165293
0.166747
0.167832
0.168549
0.168905
0.119339
0.127358
0.131468
0.136841
0.141748
0.146521
0.151162
0.155629
0.159895
0.163933
0.167712
0.171196
0.174354
0.177155
0.179575
0.181597
0.18321
0.184412
0.185207
0.185602
0.130477
0.139077
0.143567
0.149352
0.154697
0.159894
0.164959
0.169849
0.17453
0.178972
0.183137
0.186985
0.190478
0.19358
0.196263
0.198505
0.200294
0.201627
0.202508
0.202945
0.141726
0.15091
0.155807
0.162015
0.167822
0.173469
0.178986
0.184329
0.189459
0.194338
0.198923
0.203169
0.20703
0.210464
0.213436
0.215921
0.217904
0.219381
0.220356
0.22084
0.153026
0.162794
0.168122
0.174763
0.181057
0.187182
0.193182
0.199013
0.204629
0.209985
0.215032
0.219716
0.223983
0.227784
0.231078
0.233833
0.236031
0.237668
0.238749
0.239284
0.164274
0.174602
0.180385
0.187457
0.194256
0.200884
0.207394
0.213746
0.219884
0.225757
0.231307
0.236472
0.241186
0.245392
0.249041
0.252095
0.254532
0.256346
0.257543
0.258136
0.175366
0.186212
0.192465
0.19996
0.207271
0.214424
0.22147
0.228376
0.235076
0.241509
0.247609
0.2533
0.258508
0.263162
0.267204
0.27059
0.273293
0.275304
0.27663
0.277286
0.186156
0.19744
0.204166
0.212057
0.219871
0.22756
0.235162
0.242647
0.249944
0.25698
0.263674
0.26994
0.275688
0.280836
0.285312
0.289065
0.292061
0.29429
0.295758
0.296484
0.196481
0.208076
0.215262
0.223499
0.231792
0.240011
0.248177
0.256263
0.264189
0.271868
0.279204
0.286095
0.292434
0.298123
0.303078
0.307235
0.310554
0.313023
0.314648
0.315452
0.206131
0.217845
0.225445
0.233946
0.242663
0.251382
0.260103
0.268795
0.277371
0.285727
0.293747
0.301311
0.308291
0.31457
0.320047
0.324646
0.32832
0.331052
0.33285
0.333738
0.214866
0.22642
0.234342
0.24299
0.252029
0.261186
0.270428
0.279715
0.28895
0.298007
0.30675
0.315031
0.3227
0.329617
0.335661
0.340742
0.344803
0.347822
0.349807
0.350787
0.222389
0.233389
0.241466
0.250103
0.259295
0.268777
0.278469
0.288309
0.298187
0.307954
0.317443
0.326478
0.334879
0.342479
0.349134
0.354736
0.359215
0.362545
0.364735
0.365815
0.228351
0.238261
0.246221
0.254624
0.263725
0.273353
0.28337
0.293681
0.304155
0.314616
0.324861
0.334675
0.343845
0.352169
0.359476
0.365636
0.370567
0.374235
0.376646
0.377835
0.232334
0.240423
0.247851
0.255676
0.264375
0.273878
0.284018
0.294658
0.305636
0.31674
0.327724
0.33833
0.348296
0.357383
0.365385
0.372146
0.377566
0.381602
0.384257
0.385566
0.233899
0.239235
0.245378
0.252204
0.260079
0.269058
0.279018
0.289768
0.301098
0.312752
0.324434
0.335825
0.346612
0.356503
0.36525
0.372663
0.378619
0.383061
0.385988
0.387432
0.232335
0.23403
0.237772
0.24288
0.249346
0.257277
0.266615
0.277146
0.2886
0.300662
0.312972
0.325139
0.336779
0.347535
0.357104
0.365251
0.371823
0.37674
0.379989
0.381595
0.225604
0.222968
0.223415
0.225856
0.230157
0.236417
0.244597
0.254485
0.265766
0.278057
0.290916
0.303863
0.31642
0.328144
0.338655
0.347659
0.354955
0.360434
0.364063
0.365896
0.21331
0.203963
0.200734
0.199419
0.200443
0.204142
0.210455
0.219144
0.229865
0.242165
0.255501
0.269276
0.28289
0.295781
0.307467
0.317569
0.325841
0.332093
0.336262
0.338309
0.19408
0.175294
0.167882
0.161136
0.157692
0.157806
0.16137
0.168197
0.177934
0.190042
0.20385
0.218608
0.233549
0.247948
0.261176
0.272713
0.282187
0.289412
0.294264
0.296695
0.166477
0.135389
0.123305
0.108912
0.0996723
0.0949872
0.0947191
0.0988813
0.107171
0.118933
0.133335
0.149415
0.166164
0.182619
0.197949
0.211486
0.222732
0.231367
0.237203
0.240141
0.128065
0.0820688
0.0648232
0.0402997
0.0243378
0.0136453
0.00866761
0.00963575
0.0162445
0.0277059
0.042988
0.0608779
0.0801109
0.0994505
0.117702
0.133957
0.147554
0.158054
0.165188
0.168796
0.0762965
0.0139731
-0.00867893
-0.0452158
-0.0681275
-0.0859035
-0.0959961
-0.0983544
-0.0933821
-0.081971
-0.0653337
-0.0449525
-0.0223433
0.000671552
0.0226234
0.0423142
0.0588639
0.071694
0.0804433
0.0848815
0.0102726
-0.0683909
-0.0959792
-0.144524
-0.17269
-0.197101
-0.211118
-0.21605
-0.212308
-0.200718
-0.182627
-0.159579
-0.133642
-0.106794
-0.080905
-0.0575228
-0.0377798
-0.022423
-0.011922
-0.00658357
-0.067495
-0.158946
-0.188629
-0.245797
-0.27538
-0.30443
-0.319911
-0.326655
-0.323985
-0.312707
-0.294056
-0.269641
-0.241513
-0.21188
-0.182926
-0.15652
-0.13407
-0.116523
-0.104484
-0.0983498
-0.145544
-0.243714
-0.270848
-0.331823
-0.358983
-0.390641
-0.405575
-0.414173
-0.412532
-0.402612
-0.384997
-0.361177
-0.332978
-0.302629
-0.272457
-0.244569
-0.220622
-0.201772
-0.188775
-0.182134
-0.207631
-0.312175
-0.332919
-0.396475
-0.419188
-0.452782
-0.465961
-0.476183
-0.474879
-0.46643
-0.450336
-0.428035
-0.401059
-0.371544
-0.34175
-0.313875
-0.289703
-0.27054
-0.257262
-0.250459
-0.260914
-0.362604
-0.377576
-0.44108
-0.458278
-0.493212
-0.503651
-0.514593
-0.512627
-0.505169
-0.489846
-0.469005
-0.443489
-0.415486
-0.386965
-0.360104
-0.336649
-0.317959
-0.30496
-0.298285
-0.30407
-0.391488
-0.405003
-0.460011
-0.477375
-0.507093
-0.517664
-0.526701
-0.52474
-0.51742
-0.502821
-0.483399
-0.459386
-0.433279
-0.406552
-0.381357
-0.359262
-0.341611
-0.329302
-0.322975
-0.331109
-0.398693
-0.412256
-0.45494
-0.472027
-0.495301
-0.505599
-0.512097
-0.510427
-0.502851
-0.489372
-0.471155
-0.449239
-0.425292
-0.40091
-0.377891
-0.35769
-0.341524
-0.330236
-0.324431
-0.337788
-0.385506
-0.398566
-0.42873
-0.444336
-0.460953
-0.469885
-0.473935
-0.471834
-0.464327
-0.451762
-0.435081
-0.4153
-0.393809
-0.372061
-0.351564
-0.333603
-0.319224
-0.309184
-0.304021
-0.32285
-0.352678
-0.364373
-0.383451
-0.396093
-0.406981
-0.413477
-0.415443
-0.412708
-0.405378
-0.393952
-0.379071
-0.361704
-0.342974
-0.324139
-0.306437
-0.290952
-0.278558
-0.269907
-0.265458
-0.288828
-0.304668
-0.313632
-0.323952
-0.332252
-0.338279
-0.341729
-0.34173
-0.338217
-0.331176
-0.320903
-0.308025
-0.29324
-0.277497
-0.261782
-0.247079
-0.234247
-0.223986
-0.216827
-0.213145
-0.239304
-0.245261
-0.250498
-0.254687
-0.258304
-0.260186
-0.260554
-0.258659
-0.254385
-0.247655
-0.238675
-0.22787
-0.215766
-0.203074
-0.190533
-0.178874
-0.168737
-0.160647
-0.155008
-0.15211
-0.17935
-0.179479
-0.18092
-0.180454
-0.179872
-0.178071
-0.175546
-0.171806
-0.166785
-0.160354
-0.152618
-0.14385
-0.134353
-0.12464
-0.115192
-0.106497
-0.0989815
-0.0930037
-0.0888451
-0.0867103
-0.115691
-0.11184
-0.110261
-0.106177
-0.102144
-0.097126
-0.0920104
-0.0865669
-0.08084
-0.0746919
-0.06813
-0.0612217
-0.0542318
-0.0473193
-0.0407684
-0.034841
-0.029776
-0.0257761
-0.0230054
-0.0215863
-0.0537045
-0.0465833
-0.0426465
-0.0356308
-0.0288453
-0.0211326
-0.0137853
-0.0068062
-0.000388857
0.00556891
0.0111347
0.0163561
0.0212084
0.0256581
0.0296496
0.0331205
0.0360055
0.0382425
0.0397748
0.0405549
0.00425793
0.0138412
0.0194549
0.0284796
0.0372769
0.0470145
0.0561172
0.0643753
0.0713871
0.0771797
0.081854
0.0855844
0.0885194
0.0908176
0.0925958
0.0939447
0.0949441
0.0956535
0.0961109
0.0963361
0.0569332
0.0678453
0.0745417
0.0847221
0.0947762
0.105798
0.116181
0.125473
0.133026
0.138794
0.142867
0.145519
0.147042
0.147673
0.147656
0.147272
0.146731
0.146194
0.145777
0.145552
0.103793
0.114991
0.122109
0.132597
0.143123
0.154615
0.165629
0.175533
0.183401
0.189043
0.192507
0.194122
0.19428
0.193385
0.191925
0.190181
0.188449
0.186952
0.185861
0.185288
0.144786
0.155445
0.162416
0.172461
0.182705
0.193912
0.204886
0.214953
0.223037
0.228729
0.23202
0.233205
0.232735
0.231149
0.22879
0.22613
0.223561
0.221386
0.219822
0.219006
0.180298
0.189873
0.196211
0.205177
0.214386
0.224471
0.234498
0.243863
0.251465
0.256629
0.259265
0.259669
0.258331
0.255775
0.252624
0.249406
0.246396
0.243904
0.242132
0.241215
0.211042
0.2193
0.224718
0.23226
0.239972
0.248428
0.256973
0.265182
0.272129
0.27712
0.279856
0.280507
0.279474
0.277222
0.274321
0.270993
0.267926
0.265368
0.263567
0.262638
0.237973
0.244884
0.249169
0.255035
0.2608
0.267007
0.273181
0.279059
0.283854
0.286943
0.288024
0.287269
0.28526
0.282433
0.279063
0.275971
0.273159
0.270953
0.269445
0.268693
0.262416
0.268252
0.271436
0.275735
0.279595
0.283595
0.287412
0.291009
0.294061
0.296296
0.297443
0.297432
0.296444
0.294738
0.292612
0.290071
0.287793
0.285995
0.284812
0.284255
0.285545
0.290635
0.292802
0.295672
0.297576
0.299032
0.299678
0.299523
0.298411
0.296325
0.293359
0.289854
0.286279
0.283253
0.280703
0.278842
0.277571
0.276965
0.276781
0.276948
0.308854
0.313734
0.315239
0.317234
0.317837
0.317692
0.316461
0.314282
0.311279
0.307982
0.305048
0.30284
0.301077
0.299425
0.297866
0.296235
0.294863
0.294293
0.294215
0.294625
0.333673
0.338742
0.339564
0.340516
0.339368
0.336733
0.332072
0.325358
0.31651
0.305793
0.293948
0.282694
0.27395
0.268603
0.26632
0.266454
0.268035
0.27194
0.275237
0.279558
0.361426
0.368262
0.369561
0.371111
0.370139
0.367281
0.36194
0.35436
0.344852
0.334893
0.327683
0.324981
0.324914
0.321787
0.314112
0.307463
0.302271
0.30008
0.299087
0.301453
0.787164
0.787305
0.787387
0.787519
0.787643
0.787779
0.787918
0.788059
0.7882
0.788338
0.788471
0.788597
0.788715
0.788822
0.788917
0.788998
0.789065
0.789115
0.78915
0.789167
0.786971
0.787124
0.787197
0.787337
0.787454
0.787594
0.787731
0.787874
0.788015
0.788155
0.788291
0.78842
0.788541
0.788652
0.78875
0.788834
0.788903
0.788956
0.788992
0.789009
0.786784
0.78701
0.787128
0.787319
0.78749
0.787678
0.787865
0.788054
0.788241
0.788423
0.788598
0.788764
0.788917
0.789056
0.78918
0.789285
0.789372
0.789437
0.789482
0.789504
0.786417
0.786677
0.78681
0.787034
0.787233
0.787456
0.787678
0.787904
0.788129
0.788349
0.788561
0.788763
0.78895
0.789122
0.789273
0.789404
0.78951
0.789592
0.789647
0.789675
0.785976
0.786366
0.78657
0.786894
0.787187
0.787504
0.787822
0.788141
0.788456
0.788762
0.789057
0.789334
0.789592
0.789826
0.790033
0.79021
0.790355
0.790465
0.790539
0.790577
0.785259
0.785724
0.78597
0.786369
0.78673
0.787126
0.787526
0.78793
0.788332
0.788725
0.789105
0.789465
0.789801
0.790107
0.790379
0.790612
0.790803
0.790949
0.791047
0.791097
0.784396
0.785099
0.785473
0.78606
0.786594
0.78717
0.787749
0.788329
0.788904
0.789464
0.790001
0.79051
0.790982
0.79141
0.79179
0.792115
0.79238
0.792583
0.79272
0.792789
0.783062
0.783924
0.784389
0.785126
0.785803
0.78654
0.787286
0.78804
0.788791
0.789527
0.790239
0.790915
0.791546
0.792122
0.792634
0.793074
0.793435
0.79371
0.793897
0.793991
0.781404
0.782695
0.783387
0.784469
0.785459
0.786527
0.787604
0.788686
0.789759
0.790808
0.791817
0.792773
0.793663
0.794473
0.795191
0.795808
0.796312
0.796698
0.796958
0.79709
0.778908
0.78052
0.781396
0.782772
0.784043
0.785425
0.786827
0.788247
0.789665
0.791059
0.792411
0.793701
0.794908
0.796014
0.797
0.797849
0.798548
0.799083
0.799445
0.799628
0.775739
0.778115
0.779392
0.781391
0.783226
0.785212
0.787221
0.78925
0.791269
0.79325
0.795167
0.796991
0.798695
0.800254
0.801642
0.802838
0.803821
0.804574
0.805083
0.80534
0.771065
0.774056
0.775685
0.778234
0.780597
0.783168
0.785788
0.788453
0.791128
0.793776
0.796361
0.798843
0.801184
0.803344
0.805283
0.806964
0.808355
0.809425
0.810152
0.81052
0.765037
0.769339
0.771663
0.775301
0.778659
0.782315
0.786037
0.789821
0.793618
0.797376
0.801045
0.804568
0.807892
0.810961
0.813721
0.816118
0.818103
0.819635
0.820676
0.821203
0.756328
0.761759
0.764702
0.769307
0.773586
0.778262
0.783064
0.78799
0.792987
0.797994
0.802948
0.807775
0.812398
0.816728
0.820676
0.824149
0.827062
0.829328
0.830885
0.831678
0.744956
0.752449
0.756522
0.762907
0.768856
0.775387
0.78212
0.789056
0.796121
0.80323
0.810293
0.817206
0.823857
0.830124
0.835873
0.840972
0.845274
0.848658
0.850987
0.852185
0.729054
0.738434
0.743465
0.751352
0.758683
0.766766
0.775173
0.783933
0.792994
0.802283
0.811711
0.821159
0.830486
0.839509
0.84802
0.855755
0.86248
0.867857
0.871685
0.873688
0.708028
0.720069
0.726637
0.736985
0.746753
0.757637
0.76909
0.781173
0.793819
0.806938
0.82041
0.834085
0.847756
0.86118
0.874033
0.885993
0.89654
0.905354
0.911618
0.915204
0.680477
0.694972
0.702596
0.714613
0.725848
0.738377
0.751618
0.765756
0.780835
0.796896
0.813939
0.8319
0.850658
0.86996
0.889455
0.908451
0.926478
0.942048
0.954269
0.961848
0.64384
0.660402
0.669149
0.68318
0.696425
0.711615
0.728077
0.746165
0.765966
0.787645
0.81127
0.836864
0.864296
0.893331
0.92352
0.954292
0.984082
1.01375
1.0355
1.05703
0.60012
0.618702
0.627471
0.642339
0.655186
0.67028
0.685912
0.703273
0.722416
0.743885
0.768119
0.795817
0.827633
0.864253
0.905708
0.952269
1.00203
1.05627
1.10617
1.15485
0.361426
0.368262
0.369561
0.371111
0.370139
0.367281
0.36194
0.35436
0.344852
0.334893
0.327683
0.324981
0.324914
0.321787
0.314112
0.307463
0.302271
0.30008
0.299087
0.301453
0.333673
0.338742
0.339564
0.340516
0.339368
0.336733
0.332072
0.325359
0.31651
0.305794
0.293948
0.282695
0.273951
0.268603
0.26632
0.266454
0.268035
0.27194
0.275237
0.279558
0.308855
0.313734
0.315239
0.317235
0.317837
0.317692
0.316461
0.314282
0.311279
0.307982
0.305048
0.30284
0.301077
0.299425
0.297866
0.296235
0.294863
0.294293
0.294215
0.294625
0.285545
0.290635
0.292802
0.295672
0.297577
0.299032
0.299678
0.299523
0.298411
0.296325
0.293359
0.289854
0.286279
0.283253
0.280703
0.278842
0.277571
0.276965
0.276781
0.276948
0.262416
0.268252
0.271436
0.275735
0.279595
0.283595
0.287412
0.291009
0.294062
0.296297
0.297443
0.297432
0.296444
0.294738
0.292612
0.290072
0.287793
0.285995
0.284812
0.284255
0.237973
0.244884
0.249169
0.255035
0.2608
0.267008
0.273181
0.27906
0.283854
0.286943
0.288024
0.287269
0.28526
0.282433
0.279063
0.275971
0.273159
0.270953
0.269445
0.268693
0.211042
0.2193
0.224718
0.232261
0.239972
0.248428
0.256973
0.265182
0.272129
0.27712
0.279856
0.280507
0.279474
0.277222
0.274321
0.270993
0.267926
0.265368
0.263567
0.262638
0.180298
0.189873
0.196211
0.205177
0.214386
0.224471
0.234498
0.243863
0.251465
0.256629
0.259265
0.259669
0.258331
0.255775
0.252624
0.249406
0.246396
0.243904
0.242132
0.241215
0.144786
0.155445
0.162416
0.172461
0.182706
0.193912
0.204886
0.214953
0.223037
0.22873
0.23202
0.233205
0.232736
0.231149
0.22879
0.22613
0.223561
0.221386
0.219822
0.219006
0.103793
0.114991
0.122109
0.132598
0.143123
0.154615
0.16563
0.175533
0.183401
0.189043
0.192508
0.194122
0.194281
0.193386
0.191925
0.190181
0.188449
0.186952
0.185861
0.185288
0.0569335
0.0678457
0.0745421
0.0847225
0.0947765
0.105798
0.116181
0.125474
0.133027
0.138794
0.142868
0.145519
0.147042
0.147673
0.147656
0.147273
0.146731
0.146194
0.145777
0.145552
0.00425832
0.0138416
0.0194552
0.0284799
0.0372773
0.0470148
0.0561176
0.0643756
0.0713874
0.07718
0.0818543
0.0855846
0.0885197
0.0908178
0.092596
0.0939449
0.0949442
0.0956536
0.096111
0.0963361
-0.0537041
-0.0465829
-0.0426461
-0.0356304
-0.0288449
-0.0211322
-0.013785
-0.00680586
-0.000388532
0.00556921
0.011135
0.0163563
0.0212086
0.0256583
0.0296498
0.0331207
0.0360056
0.0382426
0.0397748
0.0405549
-0.11569
-0.11184
-0.110261
-0.106177
-0.102144
-0.0971256
-0.09201
-0.0865665
-0.0808396
-0.0746916
-0.0681297
-0.0612215
-0.0542315
-0.0473191
-0.0407682
-0.0348408
-0.0297759
-0.025776
-0.0230053
-0.0215863
-0.17935
-0.179479
-0.180919
-0.180453
-0.179872
-0.17807
-0.175546
-0.171806
-0.166784
-0.160353
-0.152618
-0.143849
-0.134352
-0.124639
-0.115192
-0.106497
-0.0989814
-0.0930036
-0.0888451
-0.0867103
-0.239303
-0.245261
-0.250497
-0.254687
-0.258304
-0.260186
-0.260553
-0.258658
-0.254384
-0.247655
-0.238675
-0.22787
-0.215766
-0.203073
-0.190532
-0.178874
-0.168737
-0.160647
-0.155008
-0.15211
-0.288828
-0.304668
-0.313631
-0.323951
-0.332252
-0.338278
-0.341729
-0.34173
-0.338217
-0.331176
-0.320902
-0.308025
-0.29324
-0.277497
-0.261781
-0.247078
-0.234247
-0.223986
-0.216827
-0.213145
-0.322849
-0.352678
-0.364372
-0.38345
-0.396093
-0.40698
-0.413477
-0.415442
-0.412708
-0.405378
-0.393951
-0.37907
-0.361704
-0.342974
-0.324139
-0.306437
-0.290952
-0.278558
-0.269907
-0.265458
-0.337788
-0.385506
-0.398566
-0.428729
-0.444336
-0.460953
-0.469884
-0.473935
-0.471834
-0.464327
-0.451762
-0.43508
-0.4153
-0.393808
-0.372061
-0.351564
-0.333603
-0.319224
-0.309184
-0.304021
-0.331108
-0.398693
-0.412256
-0.45494
-0.472027
-0.4953
-0.505599
-0.512097
-0.510427
-0.502851
-0.489371
-0.471154
-0.449239
-0.425292
-0.400909
-0.377891
-0.35769
-0.341524
-0.330236
-0.324431
-0.30407
-0.391487
-0.405003
-0.46001
-0.477375
-0.507093
-0.517664
-0.5267
-0.52474