/*--------------------------------*- C++ -*----------------------------------*\
  =========                 |
  \\      /  F ield         | OpenFOAM: The Open Source CFD Toolbox
   \\    /   O peration     | Website:  https://openfoam.org
    \\  /    A nd           | Version:  7
     \\/     M anipulation  |
\*---------------------------------------------------------------------------*/
FoamFile
{
    version     2.0;
    format      ascii;
    class       volScalarField;
    location    "15";
    object      p;
}
// * * * * * * * * * * * * * * * * * * * * * * * * * * * * * * * * * * * * * //

dimensions      [0 2 -2 0 0 0 0];

internalField   nonuniform List<scalar> 
50
(
-0.0543902
-0.00804908
0.0552116
0.130795
0.220605
-0.0224908
0.00531506
0.0382169
0.0620043
0.0899115
-0.0348842
-0.0204155
-0.00730533
0.0053284
0.013568
-0.0365574
-0.0294207
-0.0224681
-0.0178711
-0.0148903
-0.0456635
-0.0419019
-0.0388651
-0.0363415
-0.0350502
-0.0460944
-0.0441402
-0.0423715
-0.0412483
-0.0406099
-0.0501843
-0.049183
-0.0483985
-0.0477835
-0.0474787
-0.0494275
-0.0488482
-0.0482956
-0.0479671
-0.047774
-0.0516918
-0.0514039
-0.0511891
-0.0509922
-0.0509139
-0.0504584
-0.0501831
-0.0499436
-0.0497805
-0.0496905
)
;

boundaryField
{
    inlet
    {
        type            zeroGradient;
    }
    outlet
    {
        type            fixedValue;
        value           nonuniform 0();
    }
    polygon
    {
        type            zeroGradient;
    }
    top
    {
        type            symmetryPlane;
    }
    bottom
    {
        type            symmetryPlane;
    }
    outside
    {
        type            slip;
    }
    procBoundary4to0
    {
        type            processor;
        value           nonuniform List<scalar> 10(-0.0901032 -0.0501287 -0.048085 -0.0449011 -0.0494471 -0.0485325 -0.051229 -0.0502482 -0.0519872 -0.0508111);
    }
    procBoundary4to5
    {
        type            processor;
        value           nonuniform List<scalar> 5(-0.0961367 -0.0439777 0.0650406 0.143547 0.357457);
    }
    procBoundary4to8
    {
        type            processor;
        value           nonuniform List<scalar> 10(0.220605 0.0899115 0.013568 -0.0148903 -0.0350502 -0.0406099 -0.0474787 -0.047774 -0.0509139 -0.0496905);
    }
}


// ************************************************************************* //
