/*--------------------------------*- C++ -*----------------------------------*\
  =========                 |
  \\      /  F ield         | OpenFOAM: The Open Source CFD Toolbox
   \\    /   O peration     | Website:  https://openfoam.org
    \\  /    A nd           | Version:  7
     \\/     M anipulation  |
\*---------------------------------------------------------------------------*/
FoamFile
{
    version     2.0;
    format      ascii;
    class       volScalarField;
    location    "10";
    object      p;
}
// * * * * * * * * * * * * * * * * * * * * * * * * * * * * * * * * * * * * * //

dimensions      [0 2 -2 0 0 0 0];

internalField   nonuniform List<scalar> 
50
(
-0.229154
-0.218753
-0.221118
-0.215773
-0.226751
-0.223922
-0.220861
-0.209198
-0.211417
-0.204466
-0.214334
-0.212531
-0.199493
-0.201194
-0.192223
-0.200211
-0.204161
-0.189722
-0.19053
-0.179287
-0.184187
-0.195857
-0.17999
-0.179642
-0.165866
-0.166899
-0.187703
-0.170362
-0.168678
-0.152215
-0.148955
-0.179658
-0.160744
-0.157576
-0.138203
-0.13045
-0.171386
-0.150813
-0.145904
-0.123258
-0.110395
-0.162444
-0.140352
-0.133377
-0.107379
-0.0884703
-0.153207
-0.130234
-0.121562
-0.0938718
)
;

boundaryField
{
    inlet
    {
        type            zeroGradient;
    }
    outlet
    {
        type            fixedValue;
        value           nonuniform 0();
    }
    polygon
    {
        type            zeroGradient;
    }
    top
    {
        type            symmetryPlane;
    }
    bottom
    {
        type            symmetryPlane;
    }
    outside
    {
        type            slip;
    }
    procBoundary1to0
    {
        type            processor;
        value           nonuniform List<scalar> 4(-0.100832 -0.0761601 -0.0630472 -0.0387128);
    }
    procBoundary1to2
    {
        type            processor;
        value           nonuniform List<scalar> 6(-0.237422 -0.228001 -0.230139 -0.225654 -0.236343 -0.234183);
    }
    procBoundary1to5
    {
        type            processor;
        value           nonuniform List<scalar> 
12
(
-0.26583
-0.209177
-0.209177
-0.190987
-0.170618
-0.14781
-0.123687
-0.0985331
-0.0716882
-0.0423782
-0.0705385
-0.0705385
)
;
    }
}


// ************************************************************************* //
