/*--------------------------------*- C++ -*----------------------------------*\
  =========                 |
  \\      /  F ield         | OpenFOAM: The Open Source CFD Toolbox
   \\    /   O peration     | Website:  https://openfoam.org
    \\  /    A nd           | Version:  7
     \\/     M anipulation  |
\*---------------------------------------------------------------------------*/
FoamFile
{
    version     2.0;
    format      ascii;
    class       volVectorField;
    location    "10";
    object      U;
}
// * * * * * * * * * * * * * * * * * * * * * * * * * * * * * * * * * * * * * //

dimensions      [0 1 -1 0 0 0 0];

internalField   nonuniform List<vector> 
225
(
(1.04762 -0.000436533 -1.57421e-18)
(0.948656 0.00134898 -9.78212e-18)
(1.05653 2.34959e-05 6.2779e-18)
(0.944004 -0.00387797 -1.15931e-19)
(1.04599 -0.002036 -2.81837e-19)
(0.93037 -0.00895477 -1.01284e-17)
(1.02041 -0.00643881 1.40056e-17)
(0.898038 -0.0462585 -6.56595e-18)
(0.882949 -0.0498314 -1.50885e-18)
(1.04736 -0.000409568 -1.21059e-18)
(0.94907 0.00128298 -1.10675e-17)
(1.05599 6.21736e-05 5.17999e-18)
(0.944815 -0.0037896 -1.26967e-18)
(1.04505 -0.00192673 1.3413e-18)
(0.931657 -0.00873929 -1.02606e-17)
(1.01862 -0.00610097 1.42652e-17)
(0.900263 -0.0450453 -7.04723e-18)
(0.877373 -0.0479486 -4.18011e-19)
(1.04709 -0.000383647 -1.03951e-18)
(0.949484 0.00121886 -1.13792e-17)
(1.05546 9.69593e-05 4.12711e-18)
(0.94562 -0.00369822 -2.44304e-18)
(1.04412 -0.00182115 3.0231e-18)
(0.932927 -0.00851765 -1.07047e-17)
(1.01687 -0.00577269 1.52021e-17)
(0.90244 -0.0438036 -7.93248e-18)
(0.871964 -0.0460529 -3.08638e-18)
(1.04682 -0.000358847 -9.9513e-19)
(0.949897 0.00115678 -1.2073e-17)
(1.05493 0.000128487 3.38241e-18)
(0.946418 -0.00360354 -3.72627e-18)
(1.04321 -0.00171911 3.2429e-18)
(0.934178 -0.00828884 -1.14126e-17)
(1.01515 -0.00545076 1.44704e-17)
(0.904568 -0.0425303 -7.4223e-18)
(0.866722 -0.0441222 -1.67233e-18)
(1.04655 -0.000335125 -9.81498e-19)
(0.950308 0.00109665 -1.19204e-17)
(1.05441 0.000156867 2.54126e-18)
(0.947206 -0.00350584 -5.04755e-18)
(1.04231 -0.00162073 1.84983e-18)
(0.935407 -0.00805396 -1.11481e-17)
(1.01348 -0.00513784 1.43311e-17)
(0.906645 -0.0412328 -5.67993e-18)
(0.861646 -0.0421906 -4.0476e-19)
(1.04981 -0.000715671 -3.95949e-18)
(0.945219 0.00201753 -8.71263e-18)
(1.06124 -0.000486325 1.34348e-17)
(0.936797 -0.00452355 3.09113e-18)
(1.05481 -0.00325403 -2.01719e-18)
(0.91824 -0.0106232 -5.00498e-18)
(1.03889 -0.0105273 2.26876e-17)
(0.875612 -0.0565558 1.55426e-18)
(0.949144 -0.0729924 -1.87039e-17)
(1.04962 -0.000685122 -4.43304e-18)
(0.945527 0.00194564 -8.37149e-18)
(1.06079 -0.000425505 1.35791e-17)
(0.937479 -0.004467 3.36691e-18)
(1.05393 -0.00311954 -1.00274e-18)
(0.919416 -0.0104695 -5.39998e-18)
(1.03693 -0.0100742 2.33862e-17)
(0.877819 -0.0555872 1.44331e-18)
(0.94129 -0.0707768 -1.72049e-17)
(1.04941 -0.000654807 -5.06917e-18)
(0.945845 0.00187372 -8.12056e-18)
(1.06034 -0.00036377 1.41244e-17)
(0.938174 -0.00441181 3.63161e-18)
(1.05305 -0.00298359 -4.91481e-21)
(0.92061 -0.0103175 -5.79437e-18)
(1.03499 -0.00961727 2.29637e-17)
(0.880064 -0.0546018 1.03067e-18)
(0.93377 -0.0682334 -1.60844e-17)
(1.04921 -0.000625016 -4.88099e-18)
(0.946172 0.00180299 -8.11076e-18)
(1.05988 -0.00030559 1.51024e-17)
(0.938879 -0.00435578 3.94502e-18)
(1.05217 -0.00285293 -4.51616e-19)
(0.921816 -0.0101704 -6.17711e-18)
(1.03308 -0.00918478 2.09635e-17)
(0.88233 -0.0536593 6.30249e-19)
(0.926557 -0.0658697 -1.55101e-17)
(1.04899 -0.000595971 -4.74879e-18)
(0.946507 0.00173392 -8.14091e-18)
(1.05941 -0.000250566 1.41676e-17)
(0.939593 -0.00429688 3.13039e-18)
(1.05128 -0.00272659 -1.07e-18)
(0.923031 -0.010018 -6.6014e-18)
(1.03119 -0.00876567 1.96862e-17)
(0.884606 -0.0526967 -4.9933e-20)
(0.919629 -0.0635705 -1.53507e-17)
(1.04878 -0.000567701 -3.61986e-18)
(0.94685 0.00166647 -8.19351e-18)
(1.05894 -0.000198193 1.36317e-17)
(0.940314 -0.00423501 3.32377e-18)
(1.0504 -0.00260369 -1.64771e-18)
(0.924252 -0.00985854 -7.12512e-18)
(1.02933 -0.00835522 1.89472e-17)
(0.886882 -0.0517003 -8.84687e-19)
(0.912964 -0.0612648 -1.55917e-17)
(1.04856 -0.000540204 -3.91412e-18)
(0.947198 0.00160058 -8.5117e-18)
(1.05847 -0.000148446 1.22655e-17)
(0.941041 -0.00417037 2.49299e-18)
(1.04951 -0.0024842 -2.28564e-18)
(0.925475 -0.00969289 -7.68169e-18)
(1.02749 -0.00795424 1.7003e-17)
(0.889149 -0.0506768 -1.92291e-18)
(0.906545 -0.0589594 -1.65503e-17)
(1.04833 -0.000513483 -3.15643e-18)
(0.947551 0.00153621 -8.88071e-18)
(1.05799 -0.000101338 1.12228e-17)
(0.94177 -0.00410317 1.62968e-18)
(1.04863 -0.00236817 -3.01353e-18)
(0.926697 -0.0095221 -8.35457e-18)
(1.02569 -0.00756327 1.54246e-17)
(0.8914 -0.0496333 -3.20573e-18)
(0.900354 -0.0566606 -1.40637e-17)
(1.0481 -0.000487533 -2.50358e-18)
(0.947908 0.00147331 -9.37244e-18)
(1.05751 -5.68857e-05 1.05815e-17)
(0.942502 -0.00403363 1.92724e-18)
(1.04776 -0.00225536 -2.49886e-18)
(0.927914 -0.00934713 -9.18154e-18)
(1.02391 -0.00718049 1.45643e-17)
(0.893628 -0.0485742 -4.62289e-18)
(0.894376 -0.0543455 -8.02573e-18)
(1.04787 -0.000462401 -1.91592e-18)
(0.948269 0.00141201 -1.00339e-17)
(1.05704 -1.59588e-05 8.94885e-18)
(0.943233 -0.00396093 1.00311e-18)
(1.04689 -0.00214562 -2.12165e-18)
(0.929123 -0.00916443 -1.01522e-17)
(1.02217 -0.00680418 1.40564e-17)
(0.895828 -0.0474749 -6.26232e-18)
(0.888597 -0.0520104 -2.50304e-18)
(0.985579 0.00700894 -5.30612e-19)
(1.01888 -0.0052039 -5.2313e-19)
(0.983999 0.0113648 5.39086e-20)
(1.02381 -0.0280665 6.43721e-19)
(0.984681 0.0142969 4.15236e-19)
(1.03288 -0.0330058 -7.40581e-20)
(1.00137 0.0068537 4.44326e-20)
(1.0513 -0.0609726 -5.27712e-19)
(1.04918 -0.0101668 5.98449e-18)
(0.985243 0.00541625 -1.08757e-19)
(1.02044 -0.00348174 -2.26071e-19)
(0.981668 0.0085872 5.14766e-19)
(1.02632 -0.0264756 -9.91943e-20)
(0.980208 0.0104539 3.88905e-19)
(1.03609 -0.0352444 -2.35513e-18)
(0.991777 0.00233747 -1.92006e-19)
(1.0544 -0.0746315 3.68917e-18)
(1.03875 -0.0156302 -6.96719e-18)
(0.985023 0.00445477 -1.88892e-19)
(1.02195 -0.0022898 -3.48522e-19)
(0.979626 0.00710006 -2.30445e-19)
(1.02874 -0.0249683 -9.68758e-19)
(0.974805 0.00838215 4.04507e-18)
(1.03969 -0.0347863 -2.76169e-17)
(0.981097 0.000262798 1.79729e-17)
(1.05653 -0.0787586 2.29345e-17)
(1.02498 -0.0174463 2.93794e-18)
(0.98742 0.00277383 2.27606e-19)
(1.02045 -0.000161135 4.3848e-21)
(0.980806 0.00448773 8.18641e-19)
(1.02743 -0.0225733 -6.57024e-19)
(0.972007 0.00486918 9.39753e-19)
(1.03905 -0.0339469 -6.02004e-18)
(0.970097 -0.00389745 2.73189e-17)
(1.05608 -0.0871926 2.892e-19)
(1.00533 -0.0210365 1.25009e-17)
(0.994334 0.00127714 -1.02754e-18)
(1.01333 0.00169524 1.77102e-18)
(0.988727 0.00238523 -5.90587e-19)
(1.01896 -0.0194272 -1.39105e-18)
(0.976324 0.00165188 -2.3624e-18)
(1.03032 -0.0311091 -1.41372e-18)
(0.966218 -0.00768173 4.1595e-18)
(1.04692 -0.0896175 -2.49079e-17)
(0.986754 -0.0265003 -1.99151e-18)
(1.0068 -0.00031443 -5.42224e-18)
(0.998867 0.00359712 2.92918e-17)
(1.00509 9.27809e-05 -2.06698e-17)
(1.00079 -0.0157974 -2.40298e-17)
(0.992042 -0.00183478 -3.63313e-17)
(1.00864 -0.0272995 -2.27399e-18)
(0.976515 -0.0117623 -2.7172e-17)
(1.02224 -0.0911562 -2.97719e-17)
(0.975889 -0.031108 -4.52129e-19)
(1.0233 -0.0012708 -2.50125e-17)
(0.97847 0.00440027 -1.97414e-18)
(1.02803 -0.00101368 -1.62005e-18)
(0.974292 -0.0123825 -1.31962e-18)
(1.01834 -0.00437988 -2.92787e-18)
(0.974073 -0.0223359 2.18429e-19)
(1.00403 -0.01622 -1.14547e-18)
(0.97805 -0.0843972 -5.42789e-18)
(0.981946 -0.0457362 2.92492e-17)
(1.03942 -0.00181019 -1.68323e-18)
(0.957617 0.00465332 -3.2956e-20)
(1.051 -0.00185498 -4.53622e-19)
(0.946445 -0.00926169 -2.95467e-19)
(1.04762 -0.00596598 -1.38593e-19)
(0.933764 -0.0183001 -3.39081e-19)
(1.04178 -0.0178398 7.81294e-19)
(0.915726 -0.0805752 -2.57602e-18)
(1.02082 -0.0545899 6.35705e-18)
(1.05002 -0.00131553 3.99644e-20)
(0.943824 0.0032525 3.08328e-19)
(1.06529 -0.000671361 1.40202e-19)
(0.929256 -0.00800881 1.43082e-19)
(1.06532 -0.00469414 3.36855e-19)
(0.907656 -0.0159833 6.06497e-20)
(1.06317 -0.0162508 1.89232e-18)
(0.87045 -0.0698689 -7.88706e-18)
(1.02425 -0.0699926 5.22449e-17)
(1.05194 -0.00106473 -3.50702e-19)
(0.941865 0.00280858 -1.77802e-18)
(1.06615 -0.00101038 2.09014e-18)
(0.929501 -0.00513872 4.87886e-19)
(1.06408 -0.00449075 4.06888e-19)
(0.906269 -0.011812 -1.47892e-18)
(1.05871 -0.0141754 3.41556e-18)
(0.854766 -0.0625304 1.236e-18)
(1.02526 -0.0789471 -2.42205e-18)
)
;

boundaryField
{
    inlet
    {
        type            uniformFixedValue;
        uniformValue    constant (1 0 0);
        value           uniform (1 0 0);
    }
    outlet
    {
        type            pressureInletOutletVelocity;
        value           nonuniform 0();
    }
    polygon
    {
        type            fixedValue;
        value           nonuniform 0();
    }
    top
    {
        type            symmetryPlane;
    }
    bottom
    {
        type            symmetryPlane;
    }
    outside
    {
        type            zeroGradient;
    }
    procBoundary0to1
    {
        type            processor;
        value           nonuniform List<vector> 5((1.08867 -0.0783013 1.42698e-18) (1.09329 -0.105858 4.66886e-19) (1.09516 -0.126168 1.09483e-17) (1.10053 -0.158648 -1.806e-19) (1.09642 -0.194088 -1.33111e-17));
    }
    procBoundary0to4
    {
        type            processor;
        value           nonuniform List<vector> 9((1.04629 -0.000312456 -1.12142e-18) (0.950715 0.00103839 -1.20056e-17) (1.05389 0.000182179 2.07638e-18) (0.947983 -0.00340527 -5.37115e-18) (1.04143 -0.00152599 2.0924e-18) (0.936611 -0.00781343 -9.82943e-18) (1.01186 -0.00483458 1.45943e-17) (0.908667 -0.0399133 -4.38601e-18) (0.856734 -0.0402663 5.04909e-18));
    }
    procBoundary0to5
    {
        type            processor;
        value           nonuniform List<vector> 
20
(
(0.799441 -0.374064 3.89503e-18)
(0.797574 -0.362856 2.96549e-18)
(0.795652 -0.351565 2.48766e-18)
(0.79372 -0.340363 4.62929e-18)
(0.791808 -0.329168 3.77615e-18)
(0.818853 -0.463308 -1.1853e-18)
(0.816987 -0.454533 2.15693e-19)
(0.814979 -0.445733 1.28456e-18)
(0.812915 -0.436976 2.08541e-18)
(0.810845 -0.428213 2.66302e-18)
(0.8088 -0.419421 3.27438e-18)
(0.806802 -0.410607 3.72962e-18)
(0.804861 -0.401828 4.25764e-18)
(0.802986 -0.393121 4.82394e-18)
(0.801183 -0.384115 5.4505e-18)
(1.09335 -0.249483 -1.22483e-17)
(1.06036 -0.284864 5.27849e-18)
(1.00892 -0.378834 -1.07518e-18)
(0.92789 -0.370536 8.0397e-18)
(0.832325 -0.535841 -3.28538e-18)
)
;
    }
}


// ************************************************************************* //
