/*--------------------------------*- C++ -*----------------------------------*\
  =========                 |
  \\      /  F ield         | OpenFOAM: The Open Source CFD Toolbox
   \\    /   O peration     | Website:  https://openfoam.org
    \\  /    A nd           | Version:  7
     \\/     M anipulation  |
\*---------------------------------------------------------------------------*/
FoamFile
{
    version     2.0;
    format      ascii;
    class       volScalarField;
    location    "90";
    object      p;
}
// * * * * * * * * * * * * * * * * * * * * * * * * * * * * * * * * * * * * * //

dimensions      [0 2 -2 0 0 0 0];

internalField   nonuniform List<scalar> 
4000
(
0.00985176
0.0197971
0.0233308
0.0294795
0.0327859
0.0365891
0.0387145
0.0407085
0.0408242
0.0406306
0.0371484
0.0339546
0.0233924
0.0150685
-0.0100756
-0.0381719
-0.101081
-0.214741
-0.37915
-0.898331
-2.92953e-05
0.00954555
0.0128259
0.018331
0.0211291
0.0241642
0.0254902
0.0263044
0.0250406
0.0228643
0.0172055
0.0103217
-0.00444647
-0.0221601
-0.0557031
-0.0905381
-0.145825
-0.159916
-0.244618
-0.0235352
-0.00927958
0.000152815
0.00320772
0.00828996
0.010565
0.01289
0.0132424
0.0127141
0.00975749
0.00512204
-0.00347707
-0.015354
-0.0357571
-0.0621114
-0.102257
-0.143309
-0.197809
-0.249756
-0.298309
-0.438276
-0.0181322
-0.00893304
-0.00617597
-0.00154614
0.000129054
0.00163975
0.000908423
-0.00105565
-0.00570873
-0.0128319
-0.0247662
-0.0414703
-0.066707
-0.098233
-0.138165
-0.171376
-0.207364
-0.204046
-0.261768
-0.147002
-0.0267302
-0.0178823
-0.0154944
-0.0113752
-0.0103317
-0.00964495
-0.0114006
-0.0147095
-0.021073
-0.0306595
-0.0456822
-0.0664992
-0.0954835
-0.129428
-0.16541
-0.189729
-0.212895
-0.238518
-0.242761
-0.26362
-0.0350724
-0.0266387
-0.0246547
-0.0210934
-0.0207257
-0.020936
-0.0237694
-0.0286129
-0.0371496
-0.0495527
-0.0676206
-0.0915905
-0.122109
-0.154459
-0.181787
-0.195281
-0.214159
-0.207424
-0.227541
-0.177794
-0.0431222
-0.0351389
-0.0335653
-0.0305796
-0.0308701
-0.0319333
-0.0357654
-0.0418561
-0.0518082
-0.065847
-0.0856211
-0.111307
-0.142041
-0.171184
-0.19104
-0.200902
-0.212144
-0.21689
-0.213856
-0.205816
-0.0508521
-0.0433524
-0.04219
-0.0398134
-0.0407639
-0.0426902
-0.0476803
-0.0553793
-0.0674239
-0.0839841
-0.106128
-0.133328
-0.162696
-0.186259
-0.199386
-0.205662
-0.212191
-0.201664
-0.203137
-0.176514
-0.0582581
-0.0512867
-0.0505164
-0.0487751
-0.0503238
-0.0530569
-0.058886
-0.0673803
-0.0798831
-0.0963238
-0.11753
-0.143171
-0.17062
-0.190956
-0.202031
-0.206006
-0.207036
-0.198929
-0.194614
-0.177824
-0.065313
-0.0589179
-0.0584987
-0.0574383
-0.0595538
-0.0631695
-0.0699603
-0.0797913
-0.0942026
-0.113181
-0.137368
-0.166368
-0.195304
-0.216011
-0.222863
-0.215976
-0.204847
-0.188511
-0.181788
-0.15953
0.112981
0.130676
0.137207
0.152157
0.162226
0.177253
0.190595
0.207579
0.22556
0.247556
0.272589
0.303349
0.338364
0.382072
0.429634
0.4903
0.546472
0.632464
0.678221
0.820251
0.102738
0.119977
0.125937
0.140203
0.149253
0.163198
0.175023
0.190225
0.205756
0.22484
0.245932
0.272491
0.301685
0.339629
0.376918
0.432807
0.470669
0.557003
0.572886
0.709676
0.0925642
0.109077
0.114587
0.127854
0.135984
0.14862
0.158979
0.172378
0.185688
0.20229
0.220247
0.243742
0.269005
0.304789
0.338501
0.394457
0.431111
0.516968
0.538089
0.657985
0.0824394
0.0981701
0.103302
0.115635
0.12295
0.13439
0.143405
0.155147
0.166351
0.180514
0.195127
0.215088
0.234914
0.266454
0.291297
0.344555
0.367177
0.457507
0.46406
0.595938
0.0722242
0.0871664
0.0919272
0.103361
0.109879
0.12013
0.127796
0.137829
0.146832
0.158376
0.169401
0.185546
0.199863
0.226686
0.244431
0.291764
0.310258
0.387407
0.403249
0.510637
0.061883
0.0760224
0.080425
0.0909489
0.0967007
0.105746
0.112093
0.120418
0.127254
0.136182
0.143712
0.155959
0.165018
0.186712
0.197403
0.23946
0.248099
0.330048
0.332425
0.485772
0.0514699
0.0647882
0.0688738
0.0784832
0.0835305
0.0913881
0.0965129
0.103185
0.107981
0.114276
0.118467
0.126595
0.130386
0.145449
0.149268
0.179368
0.182055
0.228571
0.241307
0.314881
0.0410292
0.0535113
0.0573419
0.0660548
0.0704946
0.077208
0.0812511
0.0863731
0.0893493
0.0935058
0.0947988
0.0996187
0.0981239
0.108475
0.104209
0.133531
0.124922
0.204731
0.184055
0.426682
0.0306227
0.0422606
0.0459198
0.0537492
0.0576784
0.0632988
0.0664363
0.0701767
0.0718156
0.0741503
0.0730923
0.0744838
0.0685582
0.0710336
0.0581674
0.0670796
0.045076
0.0324754
-0.0046393
-0.0558186
0.0202174
0.0310027
0.0345824
0.041565
0.0451315
0.049744
0.05221
0.0548973
0.055538
0.0564199
0.05361
0.0527656
0.0439771
0.0437164
0.0287161
0.0457054
0.045089
0.138659
0.1454
0.478387
0.0202175
0.0310027
0.0345825
0.041565
0.0451315
0.049744
0.0522101
0.0548973
0.055538
0.05642
0.05361
0.0527656
0.0439771
0.0437164
0.0287161
0.0457055
0.045089
0.138659
0.1454
0.478387
0.0306227
0.0422606
0.0459198
0.0537492
0.0576784
0.0632988
0.0664363
0.0701767
0.0718156
0.0741503
0.0730923
0.0744838
0.0685582
0.0710336
0.0581674
0.0670797
0.045076
0.0324754
-0.00463929
-0.0558186
0.0410292
0.0535114
0.0573419
0.0660548
0.0704946
0.077208
0.0812511
0.0863731
0.0893493
0.0935058
0.0947988
0.0996187
0.0981239
0.108475
0.104209
0.133531
0.124922
0.204731
0.184055
0.426682
0.0514699
0.0647882
0.0688738
0.0784832
0.0835305
0.0913882
0.0965129
0.103185
0.107981
0.114276
0.118467
0.126595
0.130386
0.145449
0.149268
0.179368
0.182055
0.228571
0.241307
0.314881
0.061883
0.0760225
0.080425
0.0909489
0.0967007
0.105746
0.112093
0.120418
0.127254
0.136182
0.143712
0.155959
0.165018
0.186712
0.197403
0.23946
0.248099
0.330048
0.332425
0.485772
0.0722242
0.0871664
0.0919272
0.103361
0.109879
0.12013
0.127796
0.137829
0.146832
0.158376
0.169401
0.185546
0.199863
0.226686
0.244431
0.291764
0.310258
0.387407
0.403249
0.510637
0.0824394
0.0981701
0.103302
0.115635
0.12295
0.13439
0.143405
0.155147
0.166351
0.180514
0.195127
0.215088
0.234914
0.266454
0.291297
0.344555
0.367177
0.457507
0.46406
0.595938
0.0925642
0.109077
0.114587
0.127854
0.135984
0.14862
0.158979
0.172378
0.185688
0.20229
0.220247
0.243742
0.269005
0.304789
0.338501
0.394457
0.431111
0.516968
0.538089
0.657985
0.102738
0.119977
0.125937
0.140203
0.149253
0.163198
0.175023
0.190225
0.205756
0.22484
0.245932
0.272491
0.301685
0.339629
0.376918
0.432807
0.470669
0.557003
0.572886
0.709676
0.112981
0.130676
0.137207
0.152157
0.162226
0.177253
0.190595
0.207579
0.22556
0.247556
0.272589
0.303349
0.338364
0.382072
0.429634
0.4903
0.546472
0.632464
0.678221
0.820251
-0.065313
-0.0589178
-0.0584987
-0.0574383
-0.0595538
-0.0631695
-0.0699603
-0.0797913
-0.0942026
-0.113181
-0.137368
-0.166368
-0.195304
-0.216011
-0.222863
-0.215976
-0.204847
-0.188511
-0.181788
-0.15953
-0.0582581
-0.0512867
-0.0505163
-0.048775
-0.0503238
-0.0530569
-0.0588859
-0.0673803
-0.079883
-0.0963237
-0.11753
-0.143171
-0.17062
-0.190956
-0.202031
-0.206006
-0.207036
-0.198929
-0.194614
-0.177824
-0.0508521
-0.0433524
-0.04219
-0.0398134
-0.0407639
-0.0426902
-0.0476803
-0.0553792
-0.0674239
-0.0839841
-0.106128
-0.133328
-0.162696
-0.186259
-0.199386
-0.205662
-0.212191
-0.201664
-0.203137
-0.176514
-0.0431222
-0.0351389
-0.0335653
-0.0305796
-0.03087
-0.0319333
-0.0357654
-0.0418561
-0.0518082
-0.065847
-0.0856211
-0.111307
-0.142041
-0.171184
-0.19104
-0.200902
-0.212144
-0.21689
-0.213856
-0.205816
-0.0350724
-0.0266387
-0.0246547
-0.0210934
-0.0207257
-0.020936
-0.0237694
-0.0286128
-0.0371496
-0.0495527
-0.0676205
-0.0915905
-0.122109
-0.154459
-0.181787
-0.195281
-0.214159
-0.207424
-0.227541
-0.177794
-0.0267302
-0.0178823
-0.0154944
-0.0113752
-0.0103317
-0.00964493
-0.0114006
-0.0147095
-0.021073
-0.0306594
-0.0456822
-0.0664992
-0.0954835
-0.129428
-0.16541
-0.189729
-0.212895
-0.238518
-0.242761
-0.26362
-0.0181322
-0.00893302
-0.00617595
-0.00154612
0.000129074
0.00163977
0.000908442
-0.00105564
-0.00570871
-0.0128319
-0.0247662
-0.0414703
-0.066707
-0.098233
-0.138165
-0.171376
-0.207364
-0.204046
-0.261768
-0.147002
-0.00927956
0.000152836
0.00320774
0.00828998
0.010565
0.0128901
0.0132424
0.0127141
0.00975751
0.00512205
-0.00347705
-0.015354
-0.0357571
-0.0621114
-0.102257
-0.143309
-0.197809
-0.249756
-0.298309
-0.438276
-2.92743e-05
0.00954557
0.0128259
0.0183311
0.0211291
0.0241642
0.0254902
0.0263045
0.0250406
0.0228643
0.0172055
0.0103217
-0.00444646
-0.0221601
-0.0557031
-0.0905381
-0.145825
-0.159916
-0.244618
-0.0235352
0.00985178
0.0197971
0.0233308
0.0294795
0.0327859
0.0365891
0.0387145
0.0407085
0.0408242
0.0406306
0.0371484
0.0339546
0.0233924
0.0150685
-0.0100756
-0.0381719
-0.101081
-0.214741
-0.37915
-0.898331
0.145898
0.164142
0.172745
0.187335
0.199996
0.21482
0.230235
0.247372
0.266322
0.287622
0.311722
0.33933
0.371113
0.407765
0.449319
0.496044
0.546014
0.600494
0.650649
0.699555
0.189074
0.205388
0.214013
0.227856
0.240938
0.255961
0.272273
0.290239
0.309938
0.331545
0.355128
0.380709
0.408156
0.437229
0.467477
0.498321
0.528186
0.557943
0.579743
0.601346
0.225407
0.239751
0.2473
0.259194
0.270325
0.282747
0.295886
0.309927
0.324915
0.340896
0.357875
0.375788
0.394517
0.413808
0.433309
0.452326
0.470385
0.485988
0.49824
0.50584
0.252729
0.264651
0.271161
0.28142
0.291121
0.301936
0.313329
0.32536
0.337961
0.351043
0.364487
0.378141
0.391799
0.405216
0.418066
0.430028
0.440578
0.449399
0.455667
0.459257
0.273641
0.282948
0.287943
0.295772
0.303053
0.31108
0.319434
0.328143
0.337156
0.346402
0.355792
0.365209
0.374511
0.383515
0.392015
0.399742
0.406463
0.411839
0.415667
0.417671
0.289441
0.29688
0.300926
0.307271
0.313188
0.319686
0.326389
0.333298
0.340338
0.347425
0.354468
0.361365
0.368001
0.374256
0.379994
0.385086
0.389381
0.392761
0.395088
0.396284
0.300764
0.30616
0.309083
0.313659
0.317911
0.322558
0.327332
0.33223
0.337201
0.342184
0.347115
0.351923
0.356529
0.360844
0.364782
0.368245
0.371151
0.373412
0.374966
0.375758
0.30943
0.313705
0.316015
0.319634
0.322976
0.326615
0.330321
0.334091
0.337873
0.341618
0.345274
0.348787
0.352101
0.355161
0.357912
0.360303
0.362283
0.363811
0.364849
0.365375
0.315435
0.318405
0.320024
0.322556
0.324905
0.327459
0.330064
0.332714
0.335374
0.338008
0.34058
0.343051
0.345382
0.347532
0.349464
0.351139
0.352524
0.35359
0.354315
0.354682
0.320087
0.322449
0.32372
0.325709
0.327535
0.329512
0.331513
0.333533
0.335544
0.337518
0.339427
0.341245
0.342943
0.344496
0.34588
0.347071
0.348051
0.348801
0.349309
0.349565
0.323244
0.324843
0.325714
0.327081
0.328344
0.329716
0.33111
0.332522
0.333931
0.335317
0.336662
0.337945
0.339146
0.340246
0.341227
0.342073
0.342768
0.343301
0.343661
0.343843
0.325728
0.327013
0.327701
0.328778
0.329763
0.330827
0.331898
0.332977
0.334045
0.335089
0.336095
0.337047
0.337933
0.33874
0.339456
0.340069
0.340572
0.340957
0.341216
0.341347
0.327379
0.328235
0.328697
0.329428
0.330101
0.330833
0.331574
0.332323
0.333069
0.3338
0.334508
0.33518
0.335807
0.33638
0.336889
0.337326
0.337685
0.337959
0.338145
0.338238
0.328707
0.329407
0.329779
0.330363
0.330894
0.331468
0.332044
0.332623
0.333195
0.333752
0.334288
0.334794
0.335264
0.335691
0.336069
0.336392
0.336657
0.336859
0.336995
0.337064
0.329567
0.330028
0.330272
0.330668
0.331026
0.33142
0.331816
0.332217
0.332616
0.333007
0.333384
0.333742
0.334076
0.33438
0.33465
0.334881
0.335071
0.335216
0.335314
0.335364
0.33028
0.330668
0.330871
0.331194
0.331486
0.331802
0.332118
0.332435
0.332749
0.333054
0.333347
0.333624
0.33388
0.334113
0.334319
0.334496
0.33464
0.33475
0.334824
0.334861
0.33072
0.330977
0.331109
0.331332
0.331529
0.331749
0.33197
0.332194
0.332417
0.332635
0.332846
0.333046
0.333233
0.333403
0.333553
0.333683
0.333789
0.33387
0.333924
0.333952
0.331085
0.33131
0.331427
0.331618
0.331788
0.331975
0.332161
0.332349
0.332535
0.332717
0.332891
0.333056
0.333208
0.333347
0.33347
0.333575
0.333661
0.333727
0.333771
0.333793
0.331274
0.331424
0.331496
0.331634
0.331749
0.331887
0.332023
0.332164
0.332304
0.332443
0.332578
0.332706
0.332826
0.332935
0.333033
0.333116
0.333185
0.333237
0.333273
0.333291
0.331464
0.331603
0.331686
0.331816
0.33194
0.332075
0.332213
0.332354
0.332494
0.332631
0.332764
0.33289
0.333007
0.333114
0.333208
0.333289
0.333356
0.333406
0.33344
0.333457
-0.000541304
-0.000902959
-0.00104593
-0.000991626
-0.000742106
-0.000240479
0.000569243
0.00173396
0.00329405
0.0052758
0.00768325
0.0104939
0.0136553
0.0170859
0.0206751
0.0242801
0.0277162
0.0307442
0.033061
0.0343366
-0.00236648
-0.00325698
-0.00377849
-0.0041388
-0.0044316
-0.00465631
-0.00481425
-0.00490922
-0.00493453
-0.0048695
-0.00468154
-0.0043295
-0.00376908
-0.00296184
-0.00188781
-0.000556129
0.000973868
0.00255992
0.00394392
0.00477385
-0.00494451
-0.00621493
-0.0068338
-0.00708287
-0.00697423
-0.00642772
-0.00538396
-0.00379983
-0.00164414
0.00109163
0.00438559
0.00817492
0.0123534
0.0167733
0.0212487
0.0255625
0.0294748
0.0327356
0.0351006
0.036355
-0.00841252
-0.0103772
-0.0114814
-0.0123297
-0.0129298
-0.013222
-0.0131793
-0.0127753
-0.0119769
-0.0107535
-0.0090878
-0.00698277
-0.00447112
-0.00162444
0.00144243
0.00456989
0.00755397
0.0101506
0.0120983
0.0131353
-0.0128581
-0.0154758
-0.0168164
-0.0178259
-0.018413
-0.0184595
-0.017922
-0.0167652
-0.0149671
-0.0125344
-0.00951197
-0.00598598
-0.00207888
0.00205563
0.00623757
0.010267
0.013929
0.0170046
0.019244
0.0204387
-0.0185369
-0.022173
-0.024121
-0.0259109
-0.0273365
-0.0282875
-0.0287295
-0.0286144
-0.0278928
-0.0265378
-0.024555
-0.0219916
-0.0189429
-0.0155512
-0.0120004
-0.00850914
-0.00531955
-0.00266653
-0.000752168
0.000245541
-0.0255222
-0.0301975
-0.0326229
-0.0350109
-0.0369307
-0.0382751
-0.0390064
-0.0390705
-0.0384302
-0.0370823
-0.0350615
-0.0324436
-0.0293391
-0.0258893
-0.0222623
-0.0186568
-0.0152788
-0.0124249
-0.0103022
-0.00915688
-0.0339979
-0.0399604
-0.0430828
-0.0464536
-0.0493456
-0.0516861
-0.0534226
-0.0544589
-0.0547211
-0.0541793
-0.0528485
-0.0507986
-0.0481525
-0.0450775
-0.0417759
-0.0384821
-0.0354217
-0.0328215
-0.0309502
-0.0299605
-0.0439955
-0.0512607
-0.0550279
-0.0593478
-0.0631037
-0.066274
-0.068795
-0.0705451
-0.0714496
-0.0714863
-0.070677
-0.0690914
-0.0668405
-0.0640702
-0.0609625
-0.0577272
-0.054646
-0.051955
-0.0499473
-0.048867
-0.0555317
-0.0641813
-0.0686755
-0.0741091
-0.0789057
-0.0830967
-0.0865886
-0.089207
-0.0908567
-0.0915104
-0.091195
-0.0899991
-0.088061
-0.0855556
-0.082684
-0.079684
-0.0767703
-0.074228
-0.0723242
-0.0712981
-0.0685108
-0.0784493
-0.0836002
-0.0900785
-0.0958002
-0.100877
-0.105185
-0.108522
-0.110802
-0.11201
-0.112185
-0.111416
-0.109837
-0.10761
-0.104941
-0.102044
-0.0991999
-0.0966839
-0.0947853
-0.0937589
-0.0827778
-0.0938945
-0.0996644
-0.107144
-0.113713
-0.119582
-0.124575
-0.128471
-0.131203
-0.132775
-0.133252
-0.132747
-0.131406
-0.129401
-0.126937
-0.124223
-0.12152
-0.119105
-0.117269
-0.116271
-0.0980423
-0.110099
-0.116354
-0.124641
-0.131835
-0.138271
-0.143727
-0.147996
-0.15104
-0.152885
-0.153613
-0.153344
-0.152224
-0.150425
-0.148131
-0.145571
-0.142996
-0.140681
-0.138916
-0.137955
-0.113942
-0.126675
-0.133276
-0.142152
-0.149732
-0.15649
-0.162158
-0.16657
-0.16972
-0.171665
-0.172508
-0.172378
-0.17142
-0.1698
-0.167694
-0.165316
-0.162903
-0.160724
-0.159056
-0.158147
-0.130021
-0.143111
-0.149873
-0.159063
-0.166757
-0.173587
-0.179247
-0.183631
-0.18676
-0.188718
-0.189617
-0.189585
-0.188763
-0.1873
-0.185367
-0.183165
-0.180917
-0.178879
-0.177317
-0.176465
-0.145795
-0.158934
-0.165682
-0.174912
-0.182473
-0.189145
-0.194602
-0.198799
-0.201788
-0.203669
-0.204561
-0.204585
-0.20387
-0.202556
-0.200798
-0.19878
-0.19671
-0.194829
-0.193385
-0.192597
-0.160777
-0.173681
-0.180243
-0.189271
-0.196492
-0.202833
-0.207959
-0.211874
-0.21466
-0.216423
-0.217276
-0.217332
-0.216708
-0.215524
-0.213929
-0.212084
-0.210187
-0.20846
-0.207133
-0.206409
-0.174528
-0.186971
-0.193211
-0.201846
-0.208578
-0.21447
-0.219181
-0.222758
-0.225303
-0.226921
-0.227716
-0.227788
-0.227238
-0.226177
-0.224732
-0.223054
-0.221323
-0.219744
-0.218531
-0.217869
-0.186682
-0.198511
-0.204327
-0.212448
-0.218603
-0.223994
-0.228254
-0.23148
-0.233777
-0.235243
-0.235971
-0.236048
-0.235559
-0.234603
-0.233291
-0.231762
-0.230183
-0.22874
-0.227633
-0.227029
-0.196964
-0.208106
-0.213441
-0.220995
-0.226538
-0.231421
-0.235226
-0.238112
-0.240167
-0.241486
-0.242147
-0.242222
-0.241785
-0.240919
-0.239725
-0.238329
-0.236885
-0.235565
-0.234553
-0.234001
-0.205189
-0.215659
-0.220493
-0.227494
-0.232431
-0.23684
-0.240215
-0.242791
-0.244624
-0.245808
-0.246404
-0.246474
-0.246076
-0.245285
-0.244191
-0.24291
-0.241585
-0.240369
-0.239443
-0.238937
-0.211262
-0.221153
-0.225493
-0.232012
-0.236374
-0.240374
-0.243356
-0.245661
-0.247296
-0.24836
-0.248896
-0.248958
-0.24859
-0.247864
-0.246851
-0.245669
-0.244443
-0.243326
-0.24247
-0.242004
-0.215164
-0.224642
-0.228514
-0.234675
-0.238504
-0.242187
-0.244812
-0.246895
-0.248352
-0.249315
-0.249794
-0.249845
-0.2495
-0.248822
-0.247882
-0.246781
-0.245641
-0.244603
-0.243808
-0.243376
-0.216927
-0.22623
-0.229661
-0.235637
-0.238963
-0.242452
-0.244731
-0.246667
-0.247948
-0.248838
-0.249256
-0.249298
-0.248969
-0.248331
-0.247448
-0.246416
-0.24535
-0.244381
-0.24364
-0.243238
-0.216581
-0.226041
-0.229055
-0.235079
-0.23791
-0.241361
-0.243273
-0.24517
-0.246238
-0.24709
-0.247451
-0.247477
-0.247161
-0.246554
-0.245721
-0.244749
-0.243748
-0.24284
-0.242149
-0.241774
-0.214098
-0.224198
-0.226803
-0.233202
-0.235492
-0.239113
-0.240602
-0.24253
-0.243421
-0.244221
-0.244534
-0.244543
-0.244235
-0.243655
-0.242867
-0.241951
-0.241011
-0.240162
-0.239516
-0.239167
-0.209474
-0.220959
-0.223049
-0.230262
-0.231875
-0.235877
-0.236966
-0.238897
-0.239659
-0.240394
-0.240666
-0.240656
-0.240353
-0.2398
-0.239055
-0.238195
-0.237316
-0.236525
-0.235926
-0.235602
-0.20329
-0.216863
-0.218203
-0.226428
-0.227547
-0.23169
-0.232618
-0.234432
-0.235124
-0.23577
-0.236006
-0.235976
-0.23568
-0.235155
-0.234457
-0.233656
-0.232843
-0.232113
-0.231562
-0.231265
-0.197402
-0.211941
-0.213331
-0.221691
-0.222852
-0.22679
-0.227715
-0.229331
-0.229978
-0.230523
-0.230722
-0.230672
-0.230385
-0.229893
-0.229248
-0.228515
-0.227773
-0.227111
-0.226612
-0.226344
-0.191591
-0.206562
-0.208256
-0.216452
-0.217793
-0.221435
-0.222386
-0.223786
-0.224381
-0.224827
-0.224986
-0.224919
-0.224645
-0.224194
-0.223611
-0.222953
-0.222291
-0.221704
-0.221262
-0.221025
-0.185823
-0.201052
-0.203029
-0.210987
-0.212498
-0.215837
-0.216789
-0.217984
-0.21851
-0.218862
-0.218977
-0.218897
-0.218643
-0.218241
-0.217728
-0.217155
-0.216583
-0.216076
-0.215697
-0.215494
-0.180058
-0.195475
-0.197681
-0.205432
-0.20707
-0.210151
-0.211077
-0.21209
-0.212533
-0.212801
-0.212873
-0.212786
-0.212559
-0.212213
-0.21178
-0.2113
-0.210824
-0.210405
-0.210092
-0.209925
-0.174432
-0.189982
-0.192373
-0.199939
-0.201676
-0.204535
-0.205416
-0.20627
-0.206626
-0.206818
-0.206851
-0.206762
-0.206568
-0.206285
-0.205938
-0.205558
-0.205183
-0.204854
-0.204609
-0.204479
-0.169093
-0.184658
-0.187217
-0.194604
-0.196437
-0.199107
-0.199948
-0.200664
-0.20094
-0.201066
-0.201067
-0.200983
-0.200827
-0.200613
-0.200356
-0.200078
-0.199806
-0.199568
-0.199391
-0.199297
-0.164262
-0.17966
-0.182381
-0.189555
-0.191493
-0.193994
-0.194806
-0.195406
-0.195613
-0.195684
-0.195663
-0.195589
-0.195476
-0.195331
-0.195164
-0.194987
-0.194815
-0.194665
-0.194554
-0.194495
-0.160112
-0.175093
-0.177976
-0.184878
-0.186938
-0.189287
-0.190089
-0.190599
-0.190753
-0.190782
-0.190747
-0.190689
-0.19062
-0.190545
-0.190465
-0.190383
-0.190305
-0.190238
-0.190188
-0.190161
-0.156807
-0.171091
-0.174122
-0.180672
-0.18286
-0.185068
-0.185874
-0.186326
-0.186441
-0.186443
-0.186403
-0.186365
-0.18634
-0.18633
-0.186329
-0.186334
-0.18634
-0.186346
-0.18635
-0.186352
-0.154432
-0.167739
-0.170888
-0.177001
-0.17931
-0.181384
-0.182213
-0.182631
-0.182728
-0.182718
-0.182681
-0.182665
-0.182682
-0.182729
-0.182797
-0.182876
-0.182955
-0.183022
-0.183072
-0.183098
-0.153028
-0.165115
-0.168328
-0.173926
-0.176324
-0.178272
-0.179135
-0.179537
-0.179636
-0.179627
-0.179602
-0.179609
-0.179662
-0.179757
-0.179882
-0.180021
-0.180157
-0.180275
-0.180361
-0.180406
-0.152559
-0.163245
-0.166448
-0.171474
-0.173909
-0.175738
-0.176637
-0.177043
-0.17716
-0.177166
-0.177158
-0.177188
-0.177271
-0.177403
-0.177571
-0.177754
-0.177932
-0.178086
-0.178198
-0.178258
-0.152947
-0.162129
-0.165237
-0.169654
-0.172058
-0.173777
-0.174699
-0.175127
-0.175276
-0.175307
-0.175323
-0.175375
-0.175481
-0.175639
-0.175835
-0.176047
-0.176253
-0.176429
-0.176558
-0.176627
-0.154055
-0.161713
-0.164641
-0.168441
-0.17074
-0.172356
-0.173285
-0.173746
-0.173934
-0.174001
-0.174044
-0.174117
-0.17424
-0.174413
-0.174623
-0.174849
-0.175066
-0.175253
-0.17539
-0.175462
-0.155724
-0.161919
-0.16459
-0.167787
-0.169921
-0.171428
-0.17235
-0.172846
-0.173082
-0.173193
-0.173269
-0.173365
-0.173501
-0.17368
-0.173893
-0.174119
-0.174337
-0.174524
-0.174661
-0.174733
-0.157769
-0.162626
-0.164984
-0.167622
-0.169547
-0.170933
-0.171834
-0.172361
-0.172647
-0.172804
-0.172916
-0.173032
-0.173176
-0.173354
-0.173559
-0.173775
-0.173982
-0.174159
-0.174289
-0.174357
-0.160009
-0.163697
-0.165713
-0.167857
-0.169543
-0.170803
-0.171673
-0.172229
-0.172569
-0.172781
-0.172938
-0.173084
-0.173242
-0.173418
-0.173612
-0.173812
-0.174002
-0.174165
-0.174283
-0.174346
-0.162261
-0.164973
-0.166652
-0.168375
-0.169822
-0.170959
-0.171795
-0.172373
-0.172762
-0.173025
-0.17322
-0.173384
-0.173542
-0.173712
-0.173889
-0.174065
-0.174231
-0.174371
-0.174473
-0.174526
-0.164358
-0.166294
-0.167664
-0.169047
-0.170288
-0.17132
-0.172132
-0.17274
-0.173191
-0.173527
-0.173788
-0.174008
-0.174207
-0.174376
-0.174541
-0.174698
-0.174841
-0.174961
-0.175047
-0.175092
-0.166146
-0.167493
-0.168603
-0.169732
-0.170818
-0.17178
-0.172586
-0.173227
-0.17373
-0.174114
-0.174401
-0.174621
-0.174789
-0.174952
-0.175098
-0.175228
-0.175341
-0.175433
-0.175498
-0.175532
-0.167484
-0.168405
-0.169314
-0.17028
-0.171282
-0.172234
-0.17309
-0.173818
-0.17443
-0.174941
-0.175357
-0.175697
-0.175973
-0.176175
-0.176319
-0.176437
-0.176531
-0.176604
-0.176654
-0.176679
-0.168221
-0.168848
-0.169621
-0.17051
-0.171507
-0.172515
-0.173474
-0.17431
-0.175006
-0.175557
-0.175967
-0.176249
-0.176437
-0.176575
-0.176699
-0.176783
-0.17684
-0.17688
-0.176905
-0.176917
-0.168188
-0.168623
-0.169341
-0.170237
-0.171326
-0.172496
-0.173684
-0.174781
-0.175753
-0.176593
-0.177297
-0.177857
-0.178287
-0.178605
-0.178745
-0.178839
-0.178886
-0.178909
-0.178919
-0.178922
-0.167191
-0.167519
-0.168241
-0.169209
-0.170463
-0.171868
-0.173349
-0.174729
-0.175894
-0.176786
-0.177416
-0.177804
-0.178021
-0.178097
-0.178201
-0.178233
-0.178227
-0.178202
-0.178175
-0.178158
-0.165036
-0.165266
-0.166049
-0.167157
-0.168688
-0.170485
-0.172486
-0.174487
-0.176338
-0.177933
-0.179255
-0.180288
-0.181038
-0.181564
-0.181804
-0.181872
-0.181865
-0.181814
-0.181761
-0.181727
-0.161381
-0.161485
-0.162358
-0.163637
-0.165489
-0.167717
-0.170262
-0.172821
-0.175112
-0.176856
-0.178017
-0.178677
-0.178966
-0.179027
-0.179025
-0.179006
-0.178901
-0.178768
-0.178648
-0.178577
-0.15579
-0.155755
-0.156778
-0.158304
-0.160614
-0.163494
-0.166944
-0.170697
-0.174463
-0.177847
-0.180629
-0.182767
-0.184261
-0.185199
-0.185717
-0.18572
-0.185595
-0.18535
-0.185129
-0.184982
-0.147776
-0.147486
-0.148636
-0.150352
-0.153076
-0.156526
-0.160707
-0.165257
-0.169745
-0.173499
-0.17608
-0.177493
-0.178117
-0.178283
-0.17817
-0.178193
-0.177967
-0.177644
-0.177322
-0.177103
-0.136946
-0.136222
-0.137448
-0.139309
-0.142577
-0.146973
-0.152621
-0.159259
-0.166543
-0.173759
-0.180067
-0.184907
-0.188289
-0.190242
-0.191237
-0.191148
-0.190585
-0.189593
-0.188699
-0.187976
-0.122762
-0.121319
-0.122425
-0.124094
-0.127405
-0.131957
-0.137926
-0.145045
-0.152909
-0.160494
-0.166462
-0.170074
-0.171713
-0.172634
-0.173164
-0.173707
-0.173875
-0.173348
-0.172634
-0.171811
-0.104561
-0.10216
-0.103308
-0.105125
-0.109183
-0.115078
-0.123211
-0.133545
-0.146016
-0.160018
-0.174358
-0.186888
-0.195706
-0.20054
-0.202334
-0.201705
-0.199496
-0.19489
-0.19106
-0.186386
-0.0815754
-0.0768673
-0.0770283
-0.0775605
-0.0807017
-0.085961
-0.0938031
-0.10399
-0.116141
-0.128699
-0.138167
-0.142023
-0.141884
-0.144136
-0.151377
-0.157981
-0.163204
-0.165423
-0.166278
-0.163773
0.331464
0.331603
0.331686
0.331816
0.33194
0.332075
0.332213
0.332354
0.332494
0.332631
0.332764
0.33289
0.333007
0.333114
0.333208
0.333289
0.333356
0.333406
0.33344
0.333457
0.331274
0.331424
0.331496
0.331634
0.331749
0.331887
0.332023
0.332164
0.332304
0.332443
0.332578
0.332706
0.332826
0.332935
0.333033
0.333116
0.333185
0.333237
0.333273
0.333291
0.331085
0.33131
0.331427
0.331618
0.331788
0.331975
0.332161
0.332349
0.332535
0.332717
0.332891
0.333056
0.333208
0.333347
0.33347
0.333575
0.333661
0.333727
0.333771
0.333793
0.33072
0.330977
0.331109
0.331332
0.331529
0.331749
0.33197
0.332194
0.332417
0.332635
0.332846
0.333046
0.333233
0.333403
0.333553
0.333683
0.333789
0.33387
0.333924
0.333952
0.33028
0.330668
0.330871
0.331194
0.331486
0.331802
0.332118
0.332435
0.332749
0.333054
0.333347
0.333624
0.33388
0.334113
0.334319
0.334496
0.33464
0.33475
0.334824
0.334861
0.329567
0.330028
0.330272
0.330668
0.331026
0.331419
0.331816
0.332217
0.332616
0.333007
0.333384
0.333742
0.334076
0.33438
0.33465
0.334881
0.335071
0.335216
0.335314
0.335364
0.328707
0.329407
0.329779
0.330363
0.330894
0.331468
0.332044
0.332623
0.333195
0.333752
0.334288
0.334794
0.335264
0.335691
0.336069
0.336392
0.336657
0.336859
0.336995
0.337064
0.327379
0.328235
0.328697
0.329428
0.330101
0.330833
0.331574
0.332323
0.333069
0.3338
0.334508
0.33518
0.335807
0.33638
0.336889
0.337326
0.337685
0.337959
0.338145
0.338238
0.325728
0.327013
0.327701
0.328778
0.329763
0.330827
0.331898
0.332977
0.334045
0.335089
0.336095
0.337047
0.337933
0.33874
0.339456
0.340069
0.340572
0.340957
0.341216
0.341347
0.323244
0.324843
0.325714
0.327081
0.328344
0.329716
0.33111
0.332522
0.333931
0.335317
0.336662
0.337945
0.339146
0.340246
0.341227
0.342073
0.342768
0.343301
0.343661
0.343843
0.320087
0.322449
0.32372
0.325709
0.327535
0.329512
0.331513
0.333533
0.335544
0.337518
0.339427
0.341245
0.342943
0.344496
0.34588
0.347071
0.348051
0.348801
0.349309
0.349565
0.315435
0.318405
0.320024
0.322556
0.324905
0.327459
0.330064
0.332714
0.335374
0.338008
0.34058
0.343051
0.345382
0.347532
0.349464
0.351139
0.352524
0.35359
0.354315
0.354682
0.30943
0.313705
0.316015
0.319634
0.322976
0.326615
0.330321
0.334091
0.337873
0.341618
0.345274
0.348787
0.352101
0.355161
0.357912
0.360303
0.362283
0.363811
0.364849
0.365375
0.300764
0.30616
0.309083
0.313659
0.317911
0.322558
0.327332
0.33223
0.337201
0.342184
0.347115
0.351923
0.356529
0.360844
0.364782
0.368245
0.371151
0.373412
0.374966
0.375758
0.289441
0.29688
0.300926
0.307271
0.313188
0.319686
0.326389
0.333298
0.340338
0.347425
0.354468
0.361365
0.368001
0.374256
0.379994
0.385086
0.389381
0.392761
0.395088
0.396284
0.273641
0.282948
0.287943
0.295772
0.303053
0.31108
0.319434
0.328143
0.337156
0.346402
0.355792
0.365209
0.374511
0.383515
0.392015
0.399742
0.406463
0.411839
0.415667
0.417671
0.252729
0.264651
0.271161
0.28142
0.291121
0.301936
0.313329
0.32536
0.337961
0.351043
0.364487
0.378141
0.391799
0.405216
0.418066
0.430028
0.440578
0.449399
0.455667
0.459257
0.225407
0.239751
0.2473
0.259194
0.270325
0.282747
0.295886
0.309927
0.324915
0.340896
0.357875
0.375788
0.394517
0.413808
0.433309
0.452326
0.470385
0.485988
0.49824
0.50584
0.189074
0.205388
0.214013
0.227856
0.240938
0.255961
0.272273
0.290239
0.309938
0.331545
0.355128
0.380709
0.408156
0.437229
0.467477
0.498321
0.528186
0.557943
0.579743
0.601346
0.145898
0.164142
0.172745
0.187335
0.199996
0.21482
0.230235
0.247372
0.266322
0.287622
0.311722
0.33933
0.371113
0.407765
0.449319
0.496044
0.546014
0.600494
0.650649
0.699555
-0.0815755
-0.0768673
-0.0770283
-0.0775605
-0.0807018
-0.0859611
-0.0938031
-0.10399
-0.116141
-0.128699
-0.138167
-0.142023
-0.141884
-0.144136
-0.151377
-0.157981
-0.163204
-0.165423
-0.166278
-0.163773
-0.104561
-0.10216
-0.103308
-0.105125
-0.109183
-0.115078
-0.123211
-0.133545
-0.146016
-0.160018
-0.174358
-0.186888
-0.195706
-0.20054
-0.202334
-0.201705
-0.199496
-0.19489
-0.19106
-0.186386
-0.122762
-0.121319
-0.122425
-0.124095
-0.127405
-0.131957
-0.137926
-0.145045
-0.152909
-0.160494
-0.166462
-0.170074
-0.171713
-0.172634
-0.173164
-0.173707
-0.173875
-0.173348
-0.172634
-0.171811
-0.136946
-0.136222
-0.137448
-0.139309
-0.142577
-0.146973
-0.152621
-0.15926
-0.166543
-0.173759
-0.180068
-0.184907
-0.188289
-0.190242
-0.191237
-0.191148
-0.190585
-0.189593
-0.188699
-0.187976
-0.147776
-0.147486
-0.148636
-0.150352
-0.153076
-0.156526
-0.160707
-0.165257
-0.169746
-0.173499
-0.176081
-0.177493
-0.178117
-0.178283
-0.17817
-0.178193
-0.177967
-0.177644
-0.177322
-0.177103
-0.15579
-0.155755
-0.156778
-0.158304
-0.160614
-0.163494
-0.166944
-0.170697
-0.174463
-0.177847
-0.180629
-0.182767
-0.184261
-0.185199
-0.185717
-0.18572
-0.185595
-0.18535
-0.185129
-0.184982
-0.161381
-0.161485
-0.162358
-0.163637
-0.165489
-0.167717
-0.170262
-0.172822
-0.175112
-0.176856
-0.178017
-0.178677
-0.178966
-0.179027
-0.179025
-0.179006
-0.178901
-0.178768
-0.178648
-0.178577
-0.165036
-0.165266
-0.166049
-0.167157
-0.168688
-0.170485
-0.172486
-0.174487
-0.176338
-0.177933
-0.179255
-0.180288
-0.181038
-0.181564
-0.181804
-0.181872
-0.181865
-0.181814
-0.181761
-0.181727
-0.167191
-0.167519
-0.168241
-0.169209
-0.170463
-0.171868
-0.173349
-0.17473
-0.175894
-0.176786
-0.177416
-0.177804
-0.178021
-0.178097
-0.178201
-0.178233
-0.178227
-0.178202
-0.178175
-0.178158
-0.168188
-0.168623
-0.169341
-0.170237
-0.171326
-0.172496
-0.173684
-0.174781
-0.175753
-0.176593
-0.177297
-0.177857
-0.178287
-0.178605
-0.178745
-0.178839
-0.178886
-0.178909
-0.178919
-0.178922
-0.168221
-0.168848
-0.169621
-0.170509
-0.171507
-0.172515
-0.173474
-0.17431
-0.175006
-0.175558
-0.175967
-0.176249
-0.176437
-0.176575
-0.176699
-0.176783
-0.17684
-0.17688
-0.176905