/*--------------------------------*- C++ -*----------------------------------*\
  =========                 |
  \\      /  F ield         | OpenFOAM: The Open Source CFD Toolbox
   \\    /   O peration     | Website:  https://openfoam.org
    \\  /    A nd           | Version:  7
     \\/     M anipulation  |
\*---------------------------------------------------------------------------*/
FoamFile
{
    version     2.0;
    format      ascii;
    class       volVectorField;
    location    "90";
    object      U;
}
// * * * * * * * * * * * * * * * * * * * * * * * * * * * * * * * * * * * * * //

dimensions      [0 1 -1 0 0 0 0];

internalField   nonuniform List<vector> 
4000
(
(1.25701 0.22211 4.67465e-18)
(1.25267 0.240248 1.62536e-18)
(1.24534 0.247959 -8.23905e-20)
(1.23965 0.262055 -1.85569e-18)
(1.23316 0.27349 9.16047e-19)
(1.22776 0.28759 2.00761e-18)
(1.22192 0.301451 7.77145e-18)
(1.21663 0.317207 5.74855e-18)
(1.2111 0.334344 8.50732e-18)
(1.20613 0.352765 1.34339e-17)
(1.20047 0.374909 7.80831e-18)
(1.19611 0.397726 6.23585e-18)
(1.18973 0.42916 -2.10386e-18)
(1.18843 0.459865 5.51664e-18)
(1.18194 0.505415 9.39715e-18)
(1.18766 0.536457 1.52411e-17)
(1.14822 0.551111 5.76898e-18)
(1.0656 0.472772 3.21341e-18)
(0.717402 0.246716 9.67673e-19)
(0.397532 0.00318106 3.86618e-18)
(1.26428 0.227122 3.71582e-18)
(1.25974 0.245054 1.07545e-18)
(1.25273 0.253094 -1.2283e-19)
(1.24731 0.267319 6.60133e-19)
(1.24119 0.279064 1.09637e-18)
(1.23611 0.293512 2.76635e-18)
(1.23069 0.307897 6.5871e-18)
(1.22591 0.3243 5.26405e-18)
(1.22119 0.342213 8.16641e-18)
(1.2172 0.36198 1.01375e-17)
(1.21325 0.385481 6.37571e-18)
(1.21114 0.410957 2.86475e-18)
(1.20964 0.444158 1.47141e-18)
(1.21269 0.477287 8.65279e-18)
(1.20443 0.513385 7.52528e-18)
(1.16845 0.516645 1.05728e-17)
(1.03314 0.476091 4.80674e-18)
(0.755734 0.340807 -5.7562e-18)
(0.335887 0.226976 -3.92844e-17)
(-0.0932918 0.0981557 -3.02064e-18)
(1.27102 0.231888 2.75907e-18)
(1.26623 0.24969 9.79763e-19)
(1.25951 0.257936 4.1969e-19)
(1.25426 0.272292 7.50661e-19)
(1.24859 0.28435 1.23773e-18)
(1.244 0.299195 2.92866e-18)
(1.23943 0.314132 5.88249e-18)
(1.23576 0.331159 5.32549e-18)
(1.23242 0.349702 8.35289e-18)
(1.23003 0.37038 8.70494e-18)
(1.22831 0.394547 5.231e-18)
(1.22912 0.421037 4.01763e-18)
(1.22998 0.452035 1.76746e-18)
(1.22537 0.475574 3.11948e-18)
(1.18445 0.481229 -4.09029e-18)
(1.06893 0.431718 5.63179e-18)
(0.819264 0.322612 -1.6437e-17)
(0.460715 0.158979 -4.18312e-17)
(0.061906 0.0133993 -2.28138e-17)
(-0.00566838 -0.027373 -1.38319e-17)
(1.27744 0.236421 2.59077e-18)
(1.27253 0.254128 3.89259e-19)
(1.26613 0.262485 -6.86046e-19)
(1.2611 0.276919 6.08918e-19)
(1.25585 0.28914 1.45584e-18)
(1.25167 0.304136 3.62281e-18)
(1.24761 0.319233 5.17372e-18)
(1.24441 0.336495 4.7392e-18)
(1.2417 0.355427 5.85404e-18)
(1.24068 0.376867 4.38035e-18)
(1.24155 0.401446 1.2573e-18)
(1.24416 0.426926 -2.25436e-18)
(1.23976 0.450199 -7.98292e-19)
(1.209 0.454693 5.00759e-18)
(1.10854 0.425024 -2.41035e-18)
(0.899012 0.336204 1.12167e-19)
(0.565542 0.212535 -2.29826e-17)
(0.191457 0.079528 -2.60326e-17)
(-0.0384784 0.0816038 -5.4175e-17)
(-0.0934399 0.0640599 -1.29689e-17)
(1.28364 0.240696 8.69459e-19)
(1.27875 0.258296 7.30821e-19)
(1.2727 0.266695 2.22077e-18)
(1.26798 0.281196 1.26523e-18)
(1.26326 0.293588 1.81311e-18)
(1.25973 0.308873 2.20936e-18)
(1.25668 0.324453 4.54079e-18)
(1.25501 0.342373 4.39636e-18)
(1.25456 0.361765 7.03802e-18)
(1.25602 0.383012 6.78569e-18)
(1.25796 0.405511 2.90632e-18)
(1.25563 0.425242 8.66772e-18)
(1.23177 0.434304 1.17036e-17)
(1.15534 0.413796 -5.66594e-18)
(0.980561 0.350736 -7.99385e-18)
(0.689674 0.237583 -7.29532e-18)
(0.327365 0.118627 -1.75686e-17)
(0.0457817 0.0550186 -9.39401e-18)
(-0.097927 0.0550682 -1.19073e-17)
(-0.0314735 0.0229943 -3.60628e-17)
(1.28962 0.244727 3.54226e-18)
(1.28482 0.262208 3.58058e-19)
(1.27913 0.270609 -8.76471e-19)
(1.27476 0.285133 -3.63249e-19)
(1.27053 0.297542 6.97068e-19)
(1.2675 0.312789 5.36895e-18)
(1.26488 0.328128 4.19254e-18)
(1.2635 0.345492 5.09992e-18)
(1.26319 0.364012 2.58591e-18)
(1.26422 0.384105 3.02953e-18)
(1.26322 0.403669 1.80167e-18)
(1.24928 0.415365 -8.50706e-18)
(1.19487 0.406708 -7.79992e-18)
(1.06133 0.361047 3.27419e-18)
(0.813898 0.274859 7.57521e-18)
(0.475853 0.160679 2.89742e-17)
(0.15342 0.0890836 1.72711e-17)
(-0.0508773 0.0708188 -4.71402e-18)
(-0.0980642 0.0908629 5.25837e-18)
(-0.0529652 0.0495241 -4.32642e-18)
(1.29537 0.248494 3.4428e-18)
(1.29071 0.265801 2.58912e-19)
(1.28539 0.274128 -3.23515e-20)
(1.28142 0.28863 -1.30436e-18)
(1.27774 0.301066 7.66189e-19)
(1.27541 0.316493 2.31411e-18)
(1.27396 0.3322 3.16069e-18)
(1.2745 0.35011 4.5551e-19)
(1.27674 0.368886 8.66523e-18)
(1.27886 0.38733 7.2411e-18)
(1.27179 0.400065 -6.53085e-18)
(1.23547 0.397309 1.71738e-18)
(1.13544 0.367532 1.17757e-17)
(0.937398 0.301197 -3.4177e-18)
(0.633026 0.20544 -1.39763e-17)
(0.295321 0.112508 2.03131e-17)
(0.0393295 0.0824123 -2.79466e-18)
(-0.0816455 0.0893305 -2.83701e-17)
(-0.105866 0.0926246 2.85897e-17)
(-0.0349053 0.0380617 3.17255e-18)
(1.30088 0.252038 1.01663e-18)
(1.29639 0.269174 1.42708e-20)
(1.29144 0.277451 -2.10021e-18)
(1.28789 0.291929 1.79965e-18)
(1.2847 0.304277 1.39085e-18)
(1.28291 0.319456 1.15288e-18)
(1.28192 0.334403 2.05893e-18)
(1.28222 0.350625 4.7333e-18)
(1.28197 0.366139 6.84746e-18)
(1.27646 0.379026 -5.7073e-19)
(1.25219 0.383 -6.98155e-18)
(1.18437 0.367929 -5.7126e-18)
(1.03732 0.322665 -3.32525e-18)
(0.786079 0.243752 -7.70141e-18)
(0.456934 0.15247 -4.06139e-18)
(0.158378 0.0936002 1.98936e-17)
(-0.0261971 0.0952094 -5.59135e-20)
(-0.108955 0.103081 -9.33392e-18)
(-0.101631 0.102004 1.09184e-18)
(-0.0439585 0.0442285 -2.47253e-18)
(1.30613 0.25531 4.71815e-18)
(1.30189 0.272174 -2.06268e-19)
(1.29732 0.280245 3.9432e-18)
(1.29423 0.294568 -4.17972e-18)
(1.29155 0.306777 -1.66653e-19)
(1.29044 0.321873 3.18535e-18)
(1.29037 0.336903 4.67511e-18)
(1.2918 0.35344 -2.8325e-18)
(1.29212 0.368971 2.94268e-18)
(1.28314 0.379452 6.87145e-18)
(1.24431 0.374518 -4.05562e-18)
(1.14291 0.341779 1.64064e-17)
(0.944529 0.276146 2.40671e-17)
(0.647126 0.189376 1.43814e-17)
(0.318136 0.1164 4.8342e-18)
(0.0692241 0.0888116 4.33217e-17)
(-0.0690367 0.0968888 2.43672e-17)
(-0.116964 0.100951 -2.62798e-17)
(-0.103782 0.0954702 -7.70167e-18)
(-0.0411069 0.0396884 -5.79268e-19)
(1.31115 0.258386 5.77078e-18)
(1.30717 0.275047 1.27688e-18)
(1.30288 0.283097 -1.58624e-18)
(1.30028 0.297424 -6.11228e-19)
(1.29803 0.3095 5.1783e-18)
(1.2975 0.324199 7.45545e-21)
(1.29756 0.338033 5.6635e-18)
(1.2973 0.351573 8.23836e-19)
(1.29031 0.360385 1.33397e-17)
(1.26215 0.358299 4.38864e-18)
(1.18653 0.335427 2.89733e-18)
(1.03327 0.286407 1.39783e-17)
(0.785137 0.216457 -4.07028e-18)
(0.472076 0.144028 1.12843e-17)
(0.181134 0.0975775 1.8912e-18)
(-0.00786615 0.0849016 8.75702e-18)
(-0.0993257 0.0889943 -1.41567e-18)
(-0.121788 0.0879925 -5.39956e-18)
(-0.0954994 0.0836553 -1.35153e-17)
(-0.0375578 0.0366096 -3.12369e-18)
(1.18039 0.16929 1.9777e-17)
(1.17034 0.193395 8.0684e-18)
(1.15969 0.201989 -2.32487e-18)
(1.14592 0.220488 -1.62994e-17)
(1.13323 0.233868 -8.84234e-18)
(1.11713 0.25081 3.83237e-17)
(1.10103 0.266789 1.19736e-17)
(1.08138 0.284391 3.94937e-17)
(1.05961 0.302281 2.02668e-18)
(1.03328 0.320968 6.8951e-18)
(1.00259 0.340053 2.43549e-17)
(0.965045 0.358975 -2.39236e-17)
(0.920773 0.377703 -5.41307e-17)
(0.866134 0.394668 -5.11987e-18)
(0.805482 0.409509 4.98574e-17)
(0.728939 0.418206 1.22729e-16)
(0.653261 0.426841 1.62945e-16)
(0.547624 0.412985 1.0049e-16)
(0.431205 0.398031 1.45668e-17)
(0.192137 0.19603 2.00958e-17)
(1.18809 0.174792 1.76739e-17)
(1.17862 0.198666 6.39125e-18)
(1.16828 0.207321 -5.0347e-19)
(1.15535 0.22576 -1.48333e-17)
(1.14337 0.239246 -7.54851e-18)
(1.12842 0.256441 1.62574e-17)
(1.11353 0.272679 1.26907e-17)
(1.09552 0.290927 1.30926e-17)
(1.07577 0.309668 2.05787e-17)
(1.05196 0.32965 3.09134e-17)
(1.0244 0.350635 -3.43295e-18)
(0.990475 0.371923 -1.68305e-17)
(0.950676 0.394044 -2.82447e-18)
(0.901394 0.414338 -5.08176e-19)
(0.846866 0.43572 -4.0234e-18)
(0.77832 0.448262 9.40399e-17)
(0.708421 0.469448 1.13717e-16)
(0.618475 0.45778 1.60199e-17)
(0.495329 0.450913 8.34772e-17)
(0.245577 0.220054 1.98684e-17)
(1.1957 0.180287 1.13658e-17)
(1.18695 0.203809 5.45341e-18)
(1.17687 0.21246 -5.29842e-18)
(1.16494 0.230724 -8.24875e-18)
(1.15362 0.244238 -4.69137e-18)
(1.13993 0.26154 9.7746e-18)
(1.12622 0.277916 4.17427e-18)
(1.10983 0.296595 1.44142e-17)
(1.0919 0.315995 2.03895e-17)
(1.07028 0.337017 1.86726e-17)
(1.04523 0.359703 5.40652e-19)
(1.01407 0.383211 -1.816e-17)
(0.977255 0.408913 -2.10052e-17)
(0.930348 0.433098 -1.27759e-17)
(0.87775 0.460943 -4.08079e-18)
(0.809996 0.479139 5.68245e-17)
(0.738808 0.508447 6.04316e-17)
(0.645329 0.500907 4.36407e-17)
(0.504327 0.48516 5.64138e-17)
(0.229306 0.224327 4.80595e-18)
(1.20326 0.18573 1.69671e-17)
(1.19521 0.208793 4.50553e-18)
(1.18541 0.217389 9.42374e-18)
(1.17441 0.235361 -1.69669e-17)
(1.16373 0.248825 -7.69309e-18)
(1.1512 0.266079 1.23073e-17)
(1.13863 0.282461 1.84341e-17)
(1.1238 0.30134 6.79599e-20)
(1.10769 0.321157 1.04891e-17)
(1.08837 0.342836 3.17752e-17)
(1.06612 0.366796 3.68412e-18)
(1.03845 0.391797 8.10567e-18)
(1.00577 0.420538 2.15265e-17)
(0.964062 0.447281 2.15144e-17)
(0.916264 0.481853 1.06188e-18)
(0.85689 0.504053 8.36221e-17)
(0.787203 0.546956 8.51938e-17)
(0.706809 0.542431 -1.2891e-17)
(0.544827 0.520926 3.0769e-17)
(0.246011 0.235297 9.04539e-18)
(1.21088 0.191146 1.40272e-17)
(1.20349 0.213667 6.25147e-18)
(1.19401 0.222193 -4.90477e-18)
(1.18388 0.239791 -1.33552e-17)
(1.17385 0.253148 4.44468e-18)
(1.16248 0.270237 -1.02139e-18)
(1.15109 0.286524 1.25208e-17)
(1.13789 0.30541 -2.74766e-18)
(1.12369 0.32542 2.18668e-17)
(1.10685 0.347417 2.62761e-17)
(1.08758 0.372285 5.70489e-18)
(1.06364 0.398285 7.73627e-18)
(1.03507 0.429509 -8.44099e-18)
(0.998499 0.458361 1.62282e-17)
(0.954881 0.497448 5.4667e-18)
(0.90115 0.523117 6.3169e-17)
(0.833254 0.566561 6.00085e-17)
(0.745068 0.565314 3.20537e-18)
(0.575529 0.528722 1.77598e-17)
(0.236439 0.230402 4.04702e-18)
(1.21857 0.196456 1.0448e-17)
(1.21182 0.218315 -2.63819e-18)
(1.20271 0.226695 2.98075e-18)
(1.19345 0.243777 -1.03915e-17)
(1.18411 0.256891 3.09056e-18)
(1.17393 0.273604 8.83547e-20)
(1.16373 0.289581 1.31447e-17)
(1.15221 0.308142 1.26927e-17)
(1.13997 0.327984 1.76074e-17)
(1.12581 0.349782 2.11163e-17)
(1.10959 0.374978 5.79549e-18)
(1.08995 0.401184 5.18551e-18)
(1.06541 0.434248 -1.00342e-19)
(1.0357 0.464421 1.14446e-17)
(0.995512 0.509289 5.04901e-18)
(0.953555 0.540891 4.80772e-17)
(0.885046 0.604467 4.25946e-17)
(0.824404 0.614545 8.76077e-18)
(0.622288 0.588816 1.37271e-17)
(0.279314 0.255457 1.72676e-18)
(1.22629 0.201771 8.60727e-18)
(1.22014 0.222939 -1.183e-18)
(1.21139 0.231202 2.09481e-18)
(1.20295 0.24776 -7.04076e-18)
(1.19426 0.260635 2.38655e-18)
(1.18521 0.276954 5.27847e-19)
(1.17613 0.292621 1.84914e-18)
(1.16621 0.310817 1.03963e-17)
(1.15585 0.330374 1.4564e-17)
(1.1442 0.351865 1.80938e-17)
(1.1309 0.37714 7.31873e-18)
(1.1151 0.403512 5.3424e-18)
(1.09502 0.437586 -1.15838e-17)
(1.071 0.468966 7.73772e-18)
(1.03717 0.514378 6.60185e-18)
(1.00024 0.545583 3.67008e-17)
(0.941234 0.591036 3.15031e-17)
(0.849845 0.593372 1.26302e-17)
(0.660133 0.532689 7.54204e-18)
(0.237797 0.225046 5.61336e-18)
(1.23399 0.206837 5.09073e-18)
(1.22844 0.227139 -2.57546e-18)
(1.2201 0.235099 4.96088e-19)
(1.21249 0.250872 -7.80516e-18)
(1.20449 0.26323 1.30047e-18)
(1.19658 0.278783 2.58928e-19)
(1.18862 0.293732 -1.01183e-18)
(1.18036 0.310972 8.93929e-18)
(1.1718 0.329624 1.17861e-17)
(1.16259 0.349932 1.24303e-17)
(1.15207 0.374322 2.95167e-18)
(1.1406 0.399191 1.15078e-18)
(1.12501 0.433162 -1.00527e-17)
(1.10846 0.463972 1.31298e-18)
(1.0797 0.514564 1.15716e-18)
(1.05482 0.554601 2.84585e-17)
(1.00032 0.640457 2.52389e-17)
(0.965685 0.680414 1.26371e-17)
(0.761752 0.699212 7.50524e-18)
(0.380715 0.314355 -4.01253e-18)
(1.24168 0.212079 7.34956e-18)
(1.2366 0.23168 2.72627e-18)
(1.22858 0.239588 1.39105e-18)
(1.22165 0.254855 4.1006e-19)
(1.21419 0.266983 1.16369e-18)
(1.20723 0.282129 8.90421e-19)
(1.20015 0.296771 5.50387e-18)
(1.19315 0.313615 6.19809e-18)
(1.18583 0.331959 9.38557e-18)
(1.17832 0.35187 1.74106e-17)
(1.16991 0.37592 1.13695e-17)
(1.16133 0.400495 9.29049e-18)
(1.14959 0.434238 -6.04203e-18)
(1.13867 0.465239 8.96116e-18)
(1.11809 0.512532 9.61173e-18)
(1.10026 0.543323 2.03677e-17)
(1.05286 0.578236 1.56272e-17)
(0.970845 0.56356 1.35114e-17)
(0.743933 0.464222 9.60669e-18)
(0.252946 0.175404 -4.1423e-19)
(1.24924 0.21669 5.96113e-18)
(1.24482 0.235147 2.16658e-18)
(1.23725 0.242382 -1.10953e-18)
(1.23115 0.256345 -1.75185e-18)
(1.22438 0.267444 6.10951e-19)
(1.21852 0.281161 5.00192e-19)
(1.21244 0.294418 6.12779e-18)
(1.20681 0.309433 9.27935e-18)
(1.20092 0.325912 7.43307e-18)
(1.19583 0.343141 1.66638e-17)
(1.18976 0.364496 1.13025e-17)
(1.18588 0.384843 9.34393e-18)
(1.17773 0.414904 -2.58384e-18)
(1.17445 0.440946 2.2233e-18)
(1.15512 0.490719 4.9496e-18)
(1.14712 0.53853 1.73415e-17)
(1.11042 0.641797 1.53311e-17)
(1.12277 0.729512 1.56167e-17)
(0.993063 0.819661 -1.77819e-18)
(0.668377 0.394542 7.125e-19)
(1.24924 -0.21669 6.53232e-18)
(1.24482 -0.235147 6.7812e-18)
(1.23725 -0.242382 2.8131e-18)
(1.23115 -0.256345 3.42986e-18)
(1.22438 -0.267444 -2.28588e-18)
(1.21852 -0.281161 -4.80258e-18)
(1.21244 -0.294418 6.70625e-19)
(1.20681 -0.309433 -1.95253e-18)
(1.20092 -0.325912 -6.92111e-18)
(1.19583 -0.343141 -1.19944e-17)
(1.18976 -0.364496 -9.61989e-19)
(1.18588 -0.384843 3.73748e-18)
(1.17773 -0.414904 -9.12496e-18)
(1.17445 -0.440946 -6.19849e-18)
(1.15512 -0.490718 -5.62064e-18)
(1.14712 -0.53853 -2.49901e-17)
(1.11042 -0.641797 -1.19648e-17)
(1.12277 -0.729512 -1.05769e-17)
(0.993063 -0.819661 4.05615e-19)
(0.668377 -0.394542 -9.71679e-19)
(1.24168 -0.212079 5.82764e-18)
(1.2366 -0.23168 7.396e-18)
(1.22858 -0.239588 3.60624e-18)
(1.22165 -0.254855 5.04407e-18)
(1.21419 -0.266983 -3.29582e-18)
(1.20723 -0.282129 -5.12804e-18)
(1.20015 -0.296771 5.50951e-19)
(1.19315 -0.313615 -1.50788e-18)
(1.18583 -0.331959 -9.65192e-18)
(1.17832 -0.35187 -1.40872e-17)
(1.16991 -0.37592 3.01635e-18)
(1.16133 -0.400495 2.9914e-18)
(1.14959 -0.434238 -1.72255e-17)
(1.13867 -0.465239 -9.23909e-18)
(1.11809 -0.512532 -7.59423e-18)
(1.10026 -0.543323 -2.76879e-17)
(1.05286 -0.578236 -6.85547e-18)
(0.970845 -0.56356 -1.33461e-17)
(0.743933 -0.464222 -1.04206e-17)
(0.252946 -0.175404 6.82348e-18)
(1.23399 -0.206837 7.34816e-18)
(1.22844 -0.227139 9.46807e-18)
(1.2201 -0.235099 3.68039e-18)
(1.21249 -0.250872 6.51775e-18)
(1.20449 -0.26323 -1.22588e-17)
(1.19658 -0.278783 -6.69316e-18)
(1.18862 -0.293732 1.62852e-18)
(1.18036 -0.310972 -1.59887e-18)
(1.1718 -0.329624 -1.23418e-17)
(1.16259 -0.349932 -1.83405e-17)
(1.15207 -0.374322 5.09767e-18)
(1.1406 -0.399191 5.00251e-18)
(1.12501 -0.433162 -2.23152e-17)
(1.10846 -0.463972 -7.77948e-18)
(1.0797 -0.514564 -8.64908e-18)
(1.05482 -0.554601 -2.84248e-17)
(1.00032 -0.640457 1.23098e-18)
(0.965685 -0.680414 -1.81937e-17)
(0.761752 -0.699212 -9.90463e-18)
(0.380715 -0.314355 5.7522e-18)
(1.22629 -0.201771 2.7822e-18)
(1.22014 -0.222939 1.15577e-17)
(1.21139 -0.231202 3.73954e-18)
(1.20295 -0.24776 1.03903e-18)
(1.19426 -0.260635 -1.34632e-17)
(1.18521 -0.276954 -7.54025e-18)
(1.17613 -0.292621 -8.17237e-18)
(1.16621 -0.310817 -1.11907e-18)
(1.15585 -0.330374 -3.50599e-18)
(1.1442 -0.351865 -2.41925e-17)
(1.1309 -0.37714 9.81302e-18)
(1.1151 -0.403512 4.72859e-18)
(1.09502 -0.437586 -1.64411e-17)
(1.071 -0.468966 8.13722e-18)
(1.03717 -0.514378 -9.56891e-18)
(1.00024 -0.545583 -4.09326e-17)
(0.941234 -0.591036 2.17825e-18)
(0.849845 -0.593372 -2.1508e-17)
(0.660133 -0.532689 -1.35585e-17)
(0.237797 -0.225046 -1.02582e-18)
(1.21857 -0.196456 4.5662e-18)
(1.21182 -0.218315 1.48116e-17)
(1.20271 -0.226695 4.5545e-18)
(1.19345 -0.243777 -4.4341e-18)
(1.18411 -0.256891 -1.82907e-17)
(1.17393 -0.273604 -8.51904e-18)
(1.16373 -0.289581 -6.0337e-18)
(1.15221 -0.308142 -1.33577e-17)
(1.13997 -0.327984 -8.90442e-18)
(1.12581 -0.349782 -1.7039e-17)
(1.10959 -0.374978 5.20663e-19)
(1.08995 -0.401184 6.17583e-18)
(1.06541 -0.434248 -2.88724e-17)
(1.0357 -0.464421 7.61983e-18)
(0.995512 -0.509289 -1.59119e-17)
(0.953555 -0.540891 -5.24099e-17)
(0.885046 -0.604467 1.08598e-17)
(0.824404 -0.614545 -2.95819e-17)
(0.622288 -0.588816 -2.01789e-17)
(0.279314 -0.255457 -2.09349e-19)
(1.21088 -0.191146 3.63413e-18)
(1.20349 -0.213667 1.86495e-17)
(1.19401 -0.222193 5.86138e-18)
(1.18388 -0.239791 -2.04216e-18)
(1.17385 -0.253148 -1.02806e-17)
(1.16248 -0.270237 -2.29482e-17)
(1.15109 -0.286524 -7.9034e-18)
(1.13789 -0.30541 -1.1663e-17)
(1.12369 -0.32542 -6.64918e-18)
(1.10685 -0.347417 -9.36569e-18)
(1.08758 -0.372285 -1.18605e-17)
(1.06364 -0.398285 3.10423e-17)
(1.03507 -0.429509 -3.83872e-17)
(0.998499 -0.458361 1.88685e-17)
(0.954881 -0.497448 -2.23223e-17)
(0.90115 -0.523117 -3.6682e-17)
(0.833254 -0.566561 2.74618e-17)
(0.745068 -0.565314 -3.93484e-17)
(0.575529 -0.528722 -3.15488e-17)
(0.236439 -0.230402 2.24643e-18)
(1.20326 -0.18573 3.23147e-18)
(1.19521 -0.208793 1.28465e-17)
(1.18541 -0.217389 6.58741e-18)
(1.17441 -0.235361 -3.44134e-18)
(1.16373 -0.248825 -3.54809e-18)
(1.1512 -0.266079 -8.74353e-18)
(1.13863 -0.282461 9.12844e-18)
(1.1238 -0.30134 -1.50502e-17)
(1.10769 -0.321157 -9.35134e-18)
(1.08837 -0.342836 4.52843e-18)
(1.06612 -0.366796 -1.06176e-17)
(1.03845 -0.391797 3.60233e-17)
(1.00577 -0.420538 -3.05877e-17)
(0.964062 -0.447281 -2.28633e-18)
(0.916264 -0.481853 3.63468e-18)
(0.85689 -0.504053 -1.18511e-17)
(0.787203 -0.546956 4.16676e-17)
(0.706809 -0.542431 1.50389e-17)
(0.544827 -0.520926 -4.60549e-17)
(0.246011 -0.235297 1.18587e-17)
(1.1957 -0.180287 2.9575e-18)
(1.18695 -0.203809 1.9719e-17)
(1.17687 -0.21246 8.03072e-18)
(1.16494 -0.230724 -4.17142e-18)
(1.15362 -0.244238 -7.63687e-18)
(1.13993 -0.26154 -1.93874e-17)
(1.12622 -0.277916 -1.15654e-17)
(1.10983 -0.296595 3.30726e-20)
(1.0919 -0.315995 -1.0398e-17)
(1.07028 -0.337017 -2.17686e-17)
(1.04523 -0.359703 -1.58308e-17)
(1.01407 -0.383211 2.29839e-17)
(0.977255 -0.408913 -2.39387e-17)
(0.930348 -0.433098 1.29629e-17)
(0.87775 -0.460943 -5.00325e-17)
(0.809996 -0.479139 -2.73329e-17)
(0.738808 -0.508447 5.50512e-17)
(0.645329 -0.500907 1.20772e-17)
(0.504327 -0.48516 1.39539e-17)
(0.229306 -0.224327 4.83217e-17)
(1.18809 -0.174792 1.95677e-18)
(1.17862 -0.198666 2.21564e-17)
(1.16828 -0.207321 9.58769e-18)
(1.15535 -0.22576 -5.09477e-18)
(1.14337 -0.239246 -7.17158e-18)
(1.12842 -0.256441 -1.95822e-17)
(1.11353 -0.272679 -4.91903e-18)
(1.09552 -0.290927 -4.8747e-18)
(1.07577 -0.309668 -1.5496e-17)
(1.05196 -0.32965 -1.82756e-17)
(1.0244 -0.350635 -1.65566e-17)
(0.990475 -0.371923 4.02267e-17)
(0.950676 -0.394044 -4.55529e-17)
(0.901394 -0.414338 1.76947e-17)
(0.846866 -0.43572 -4.93762e-17)
(0.77832 -0.448262 -2.3159e-17)
(0.708421 -0.469448 7.10852e-17)
(0.618475 -0.45778 8.65912e-18)
(0.495329 -0.450913 1.23714e-17)
(0.245577 -0.220054 9.14513e-17)
(1.18039 -0.16929 1.25143e-17)
(1.17034 -0.193395 4.18974e-17)
(1.15969 -0.201989 -2.18359e-18)
(1.14592 -0.220488 1.01842e-17)
(1.13323 -0.233868 -9.29259e-18)
(1.11713 -0.25081 -2.61863e-17)
(1.10103 -0.266789 -8.58973e-18)
(1.08138 -0.284391 -2.53411e-17)
(1.05961 -0.302281 -4.42332e-17)
(1.03328 -0.320968 2.15342e-18)
(1.00259 -0.340053 1.01243e-17)
(0.965045 -0.358975 5.35616e-17)
(0.920773 -0.377703 -2.45836e-17)
(0.866134 -0.394668 -1.63226e-17)
(0.805482 -0.409509 -8.32487e-17)
(0.728939 -0.418206 -2.34419e-17)
(0.653261 -0.426841 1.06312e-16)
(0.547624 -0.412985 9.39348e-18)
(0.431205 -0.398031 1.13501e-18)
(0.192137 -0.19603 1.18282e-17)
(1.31115 -0.258386 -2.86883e-19)
(1.30717 -0.275047 4.19239e-18)
(1.30288 -0.283097 5.75366e-19)
(1.30028 -0.297424 -2.08816e-18)
(1.29803 -0.3095 -3.76222e-18)
(1.2975 -0.324199 -2.36848e-19)
(1.29756 -0.338033 -2.72432e-18)
(1.2973 -0.351573 -3.87294e-18)
(1.29031 -0.360385 -1.10461e-18)
(1.26215 -0.358299 -8.54371e-18)
(1.18653 -0.335427 -2.76252e-18)
(1.03327 -0.286407 7.0622e-18)
(0.785137 -0.216457 -2.72248e-17)
(0.472076 -0.144028 2.80035e-17)
(0.181134 -0.0975775 -3.41815e-17)
(-0.00786614 -0.0849016 -4.41397e-17)
(-0.0993257 -0.0889943 -4.34736e-18)
(-0.121788 -0.0879925 -3.90352e-17)
(-0.0954994 -0.0836553 -1.14185e-17)
(-0.0375578 -0.0366096 -1.01165e-18)
(1.30613 -0.25531 -8.55431e-19)
(1.30189 -0.272174 -8.21239e-19)
(1.29732 -0.280245 1.29839e-18)
(1.29423 -0.294568 -1.69748e-18)
(1.29155 -0.306777 1.13225e-18)
(1.29044 -0.321873 9.04867e-21)
(1.29037 -0.336903 4.82296e-18)
(1.2918 -0.35344 -4.52506e-18)
(1.29212 -0.368971 5.32274e-19)
(1.28314 -0.379452 2.50731e-18)
(1.24431 -0.374518 -7.40772e-18)
(1.14291 -0.341779 -2.58257e-18)
(0.944529 -0.276146 -1.72535e-17)
(0.647126 -0.189376 6.5848e-18)
(0.318136 -0.1164 1.58805e-17)
(0.0692241 -0.0888116 -1.38224e-17)
(-0.0690367 -0.0968888 7.63324e-19)
(-0.116964 -0.100951 -2.10073e-17)
(-0.103782 -0.0954702 -3.42769e-17)
(-0.0411069 -0.0396884 -2.12787e-18)
(1.30088 -0.252038 -5.35087e-19)
(1.29639 -0.269174 1.40351e-18)
(1.29144 -0.277451 1.70993e-18)
(1.28789 -0.291928 -2.57468e-18)
(1.2847 -0.304277 -1.4601e-18)
(1.28291 -0.319456 -1.40023e-18)
(1.28192 -0.334403 -2.41813e-18)
(1.28222 -0.350625 2.66591e-18)
(1.28197 -0.366139 -2.2064e-18)
(1.27646 -0.379026 -1.00091e-17)
(1.25219 -0.383 -5.97543e-18)
(1.18437 -0.367929 -1.08416e-17)
(1.03732 -0.322665 -8.43701e-18)
(0.786079 -0.243752 3.95773e-18)
(0.456934 -0.15247 -1.24564e-17)
(0.158378 -0.0936002 -2.1293e-18)
(-0.0261971 -0.0952094 7.44156e-18)
(-0.108955 -0.103081 -1.07111e-17)
(-0.101631 -0.102004 -1.43498e-17)
(-0.0439585 -0.0442285 5.37217e-18)
(1.29537 -0.248494 -1.11406e-18)
(1.29071 -0.265801 4.35082e-19)
(1.28539 -0.274128 2.82521e-18)
(1.28142 -0.28863 -2.48152e-18)
(1.27774 -0.301066 -8.08265e-19)
(1.27541 -0.316493 -4.66942e-19)
(1.27396 -0.3322 -5.96346e-19)
(1.2745 -0.35011 3.20659e-19)
(1.27674 -0.368886 2.6876e-18)
(1.27886 -0.38733 -6.00974e-18)
(1.27179 -0.400065 -8.20093e-18)
(1.23547 -0.397309 -1.02395e-17)
(1.13544 -0.367532 -2.06893e-17)
(0.937398 -0.301197 8.29223e-18)
(0.633026 -0.20544 -1.37883e-17)
(0.295321 -0.112508 2.07132e-18)
(0.0393295 -0.0824123 1.08044e-17)
(-0.0816455 -0.0893305 -7.56252e-18)
(-0.105866 -0.0926246 -1.38681e-18)
(-0.0349053 -0.0380617 2.61375e-17)
(1.28962 -0.244727 3.47713e-18)
(1.28482 -0.262208 4.54999e-18)
(1.27913 -0.270609 1.13507e-19)
(1.27476 -0.285133 5.17119e-19)
(1.27053 -0.297542 -1.72672e-18)
(1.2675 -0.312789 -1.03841e-18)
(1.26488 -0.328128 -2.27761e-18)
(1.2635 -0.345492 -3.95012e-18)
(1.26319 -0.364012 -2.5285e-18)
(1.26422 -0.384105 5.80196e-19)
(1.26322 -0.403669 -7.02109e-18)
(1.24928 -0.415365 -8.15262e-18)
(1.19487 -0.406708 -1.3116e-17)
(1.06133 -0.361047 -1.5509e-17)
(0.813898 -0.274859 -2.01887e-17)
(0.475853 -0.160679 5.52444e-18)
(0.15342 -0.0890836 2.0309e-17)
(-0.0508773 -0.0708188 -8.47171e-18)
(-0.0980642 -0.0908629 -6.80741e-18)
(-0.0529652 -0.0495241 5.08294e-18)
(1.28364 -0.240696 1.6188e-18)
(1.27875 -0.258296 1.20296e-18)
(1.2727 -0.266695 1.72234e-18)
(1.26798 -0.281196 -3.31775e-19)
(1.26326 -0.293588 -1.70268e-18)
(1.25973 -0.308873 -6.66922e-19)
(1.25668 -0.324453 -1.1561e-18)
(1.25501 -0.342373 -2.50338e-18)
(1.25456 -0.361765 -1.84932e-18)
(1.25602 -0.383012 -3.83917e-19)
(1.25796 -0.405511 -6.97096e-18)
(1.25563 -0.425242 -8.24875e-18)
(1.23177 -0.434304 -2.69094e-18)
(1.15534 -0.413796 -5.42599e-18)
(0.980561 -0.350736 -5.27724e-18)
(0.689674 -0.237583 -5.68777e-19)
(0.327365 -0.118627 -3.70755e-17)
(0.0457817 -0.0550186 -2.01727e-17)
(-0.097927 -0.0550682 -4.12957e-17)
(-0.0314735 -0.0229943 -2.86187e-18)
(1.27744 -0.236421 3.14413e-18)
(1.27253 -0.254128 3.22804e-18)
(1.26613 -0.262485 1.79796e-18)
(1.2611 -0.276919 5.83405e-19)
(1.25585 -0.28914 -2.29414e-18)
(1.25167 -0.304136 -9.75137e-19)
(1.24761 -0.319233 -1.45739e-18)
(1.24441 -0.336495 -2.11387e-18)
(1.2417 -0.355427 -3.36372e-18)
(1.24068 -0.376867 -1.30142e-18)
(1.24155 -0.401446 -7.22935e-19)
(1.24416 -0.426926 -4.18156e-18)
(1.23976 -0.450199 -9.72133e-18)
(1.209 -0.454693 -1.09282e-17)
(1.10854 -0.425024 -1.62662e-17)
(0.899012 -0.336204 -1.82376e-17)
(0.565542 -0.212535 -6.50735e-18)
(0.191457 -0.079528 -2.54025e-17)
(-0.0384784 -0.0816038 -1.13829e-17)
(-0.0934399 -0.0640599 1.66709e-19)
(1.27102 -0.231888 3.12149e-18)
(1.26623 -0.24969 2.15331e-18)
(1.25951 -0.257936 2.57987e-18)
(1.25426 -0.272292 1.16639e-18)
(1.24859 -0.28435 -2.64657e-18)
(1.244 -0.299195 -1.05656e-18)
(1.23943 -0.314132 -1.33018e-18)
(1.23576 -0.331159 -2.19709e-18)
(1.23242 -0.349702 -4.00073e-18)
(1.23003 -0.37038 -1.98292e-18)
(1.22831 -0.394547 4.88736e-19)
(1.22912 -0.421037 -3.25128e-18)
(1.22998 -0.452035 -5.79722e-18)
(1.22537 -0.475574 -7.58848e-18)
(1.18445 -0.481229 -1.28162e-17)
(1.06893 -0.431718 -1.86279e-17)
(0.819264 -0.322612 -1.42869e-17)
(0.460715 -0.158979 -3.86433e-17)
(0.061906 -0.0133993 6.66119e-19)
(-0.00566838 0.027373 1.01219e-17)
(1.26428 -0.227122 4.09956e-18)
(1.25974 -0.245054 3.20288e-18)
(1.25273 -0.253094 3.15834e-18)
(1.24731 -0.267319 2.31451e-18)
(1.24119 -0.279064 -1.76981e-18)
(1.23611 -0.293512 -1.39062e-18)
(1.23069 -0.307897 -1.37637e-18)
(1.22591 -0.3243 -1.84185e-18)
(1.22119 -0.342213 -6.50276e-18)
(1.2172 -0.36198 -3.83361e-18)
(1.21325 -0.385481 1.06528e-18)
(1.21114 -0.410957 -4.32908e-18)
(1.20964 -0.444158 -7.25849e-18)
(1.21269 -0.477287 -7.80948e-18)
(1.20443 -0.513385 -1.14157e-17)
(1.16845 -0.516645 -2.17429e-17)
(1.03314 -0.476091 -1.04715e-17)
(0.755734 -0.340807 3.55616e-18)
(0.335887 -0.226976 3.94213e-18)
(-0.0932918 -0.0981557 1.46879e-17)
(1.25701 -0.22211 4.76772e-18)
(1.25267 -0.240248 3.44051e-18)
(1.24534 -0.247959 3.84337e-18)
(1.23965 -0.262055 3.49215e-18)
(1.23316 -0.27349 -2.35819e-18)
(1.22776 -0.28759 -1.66449e-18)
(1.22192 -0.301451 -1.50114e-18)
(1.21663 -0.317207 -5.75953e-19)
(1.2111 -0.334344 -6.94206e-18)
(1.20613 -0.352765 -7.00723e-18)
(1.20047 -0.374909 2.62189e-18)
(1.19611 -0.397726 -1.34914e-18)
(1.18973 -0.42916 -6.93551e-18)
(1.18843 -0.459865 -3.75346e-18)
(1.18194 -0.505415 -6.75509e-18)
(1.18766 -0.536457 -1.35189e-17)
(1.14822 -0.551111 -7.47669e-18)
(1.0656 -0.472772 -1.28666e-17)
(0.717402 -0.246716 -2.1151e-18)
(0.397532 -0.00318106 5.41781e-17)
(1.15538 -0.151644 -3.46078e-18)
(1.14426 -0.176006 1.37165e-17)
(1.13251 -0.18431 5.95369e-18)
(1.11808 -0.202684 3.30562e-18)
(1.10366 -0.215449 -1.61409e-17)
(1.0868 -0.231196 -4.53899e-17)
(1.06903 -0.245817 -4.55157e-18)
(1.0485 -0.260509 -1.44325e-17)
(1.02559 -0.274625 -5.12855e-17)
(0.999028 -0.287652 -9.82893e-18)
(0.968534 -0.299119 -1.63034e-17)
(0.932846 -0.308119 -1.77486e-17)
(0.891486 -0.313014 2.26381e-17)
(0.842503 -0.31272 2.00242e-17)
(0.786474 -0.305511 3.07321e-17)
(0.722669 -0.290335 -1.10617e-17)
(0.653843 -0.264275 -3.37067e-17)
(0.576028 -0.227478 -1.93913e-18)
(0.509733 -0.169928 2.23193e-18)
(0.391061 -0.0841358 2.20038e-17)
(1.12153 -0.117273 -1.12676e-18)
(1.11227 -0.136088 -4.42723e-18)
(1.10175 -0.141612 4.90441e-18)
(1.08944 -0.154437 3.68186e-17)
(1.07614 -0.162726 -5.28306e-18)
(1.0617 -0.172553 -1.46066e-17)
(1.04587 -0.181222 -1.47957e-17)
(1.02884 -0.18952 -1.4583e-17)
(1.01036 -0.197191 -1.83263e-17)
(0.990604 -0.204041 -8.52864e-18)
(0.969439 -0.209533 -4.76395e-18)
(0.946954 -0.213162 -1.58546e-18)
(0.923022 -0.214281 -8.93876e-18)
(0.897797 -0.211703 2.30179e-18)
(0.870837 -0.204137 8.26565e-18)
(0.842265 -0.18982 -2.00322e-18)
(0.812656 -0.168516 3.02294e-18)
(0.78342 -0.134219 -3.77026e-18)
(0.758233 -0.0949552 8.18571e-19)
(0.747569 -0.0359696 9.12286e-18)
(1.09177 -0.0959085 -4.02007e-18)
(1.08329 -0.112288 -3.50009e-18)
(1.07379 -0.116987 -9.75432e-18)
(1.06245 -0.127719 -1.99332e-17)
(1.05036 -0.133935 -2.11244e-17)
(1.03701 -0.140814 -6.9808e-17)
(1.02252 -0.146016 -3.36182e-17)
(1.00657 -0.150057 -4.45508e-17)
(0.989099 -0.152591 -9.5991e-17)
(0.969876 -0.153383 -3.17501e-17)
(0.948924 -0.15224 -2.1827e-17)
(0.926333 -0.148899 -7.75432e-18)
(0.902477 -0.143096 -1.41368e-17)
(0.877906 -0.134664 1.03144e-17)
(0.853592 -0.123293 5.86458e-17)
(0.830452 -0.108932 -1.77013e-17)
(0.809403 -0.0906583 -9.40518e-18)
(0.79065 -0.0693348 -1.72545e-17)
(0.776114 -0.0431106 1.2868e-17)
(0.762048 -0.0147255 1.03449e-16)
(1.06941 -0.0689519 -8.35892e-18)
(1.06272 -0.0812303 -5.63412e-18)
(1.05537 -0.084548 -9.26588e-18)
(1.04657 -0.0923284 -8.85087e-18)
(1.03731 -0.096806 -1.07353e-17)
(1.02752 -0.10187 -1.97357e-17)
(1.01737 -0.10578 -6.91911e-17)
(1.00703 -0.108907 -6.73469e-17)
(0.996577 -0.111039 -7.8648e-17)
(0.986157 -0.111988 -7.9374e-17)
(0.975805 -0.11152 -6.26296e-17)
(0.96553 -0.109381 -1.08923e-17)
(0.955262 -0.105297 -6.33427e-17)
(0.944942 -0.0989715 -1.43213e-17)
(0.934536 -0.0902343 -7.75566e-17)
(0.924319 -0.0788754 -7.44664e-17)
(0.914778 -0.0651834 -1.24516e-17)
(0.907061 -0.0488302 -7.51101e-17)
(0.901831 -0.0308917 -1.5008e-17)
(0.900738 -0.0107617 -7.83357e-17)
(1.05119 -0.0557676 -2.03869e-17)
(1.04568 -0.0652428 -1.10077e-17)
(1.03951 -0.0675295 -2.91788e-17)
(1.03201 -0.0730775 -3.56387e-17)
(1.02399 -0.0757406 -3.51399e-17)
(1.01522 -0.0784938 -6.24007e-17)
(1.00573 -0.0800372 6.7678e-18)
(0.995498 -0.0806753 3.10431e-17)
(0.984538 -0.0803051 -3.92289e-17)
(0.972914 -0.0788808 1.21684e-17)
(0.960803 -0.0763827 4.74712e-17)
(0.94847 -0.0727956 2.47582e-17)
(0.936295 -0.0681094 5.34731e-17)
(0.924704 -0.0623277 4.13222e-17)
(0.914133 -0.0554119 1.36107e-16)
(0.904865 -0.0474 6.52039e-17)
(0.89707 -0.0381988 2.87428e-17)
(0.890614 -0.0280767 5.55238e-17)
(0.885685 -0.0170122 3.99026e-17)
(0.882237 -0.00563637 1.40433e-16)
(1.03797 -0.0384215 -5.64355e-17)
(1.03391 -0.0457433 -1.51279e-17)
(1.02957 -0.0476911 -6.75969e-17)
(1.02437 -0.052203 -8.82784e-17)
(1.01906 -0.0546301 -6.2893e-17)
(1.01359 -0.0572116 -4.73893e-18)
(1.00814 -0.0589707 -4.76855e-17)
(1.00281 -0.0601133 7.16734e-17)