/*--------------------------------*- C++ -*----------------------------------*\
  =========                 |
  \\      /  F ield         | OpenFOAM: The Open Source CFD Toolbox
   \\    /   O peration     | Website:  https://openfoam.org
    \\  /    A nd           | Version:  7
     \\/     M anipulation  |
\*---------------------------------------------------------------------------*/
FoamFile
{
    version     2.0;
    format      ascii;
    class       volVectorField;
    location    "20";
    object      U;
}
// * * * * * * * * * * * * * * * * * * * * * * * * * * * * * * * * * * * * * //

dimensions      [0 1 -1 0 0 0 0];

internalField   nonuniform List<vector> 
75
(
(1.25732 -0.0769759 -3.47209e-17)
(1.23262 -0.0391963 -3.35483e-18)
(1.02785 0.0299633 -5.63817e-17)
(0.299786 0.0360074 3.05727e-17)
(1.26312 -0.092482 -2.0526e-17)
(1.25446 -0.0655243 -3.0741e-19)
(1.083 0.00140401 -3.44035e-17)
(0.364433 0.0175509 4.12882e-17)
(1.26634 -0.100983 -3.04133e-17)
(1.26863 -0.0805455 -1.08176e-18)
(1.12178 -0.0161606 -5.09255e-17)
(0.426521 -0.00342862 -1.04503e-17)
(1.26891 -0.112323 -1.09153e-17)
(1.28383 -0.100073 1.44011e-18)
(1.16466 -0.0360895 -5.4312e-17)
(0.500306 -0.0229678 -2.39421e-17)
(1.26958 -0.122299 -1.37958e-18)
(1.29513 -0.117634 3.33891e-18)
(1.20284 -0.0550541 -3.14065e-17)
(0.584736 -0.0419694 2.74052e-17)
(1.26908 -0.132608 -5.79669e-18)
(1.30452 -0.135734 -1.78454e-17)
(1.23997 -0.0751518 -1.73741e-17)
(0.680449 -0.0618834 3.01991e-17)
(1.26675 -0.142439 -4.14779e-18)
(1.31046 -0.153275 -1.09444e-17)
(1.27313 -0.0969939 -2.93979e-17)
(0.784326 -0.084247 3.42118e-17)
(1.26254 -0.152012 -3.25356e-18)
(1.31237 -0.17034 -1.51406e-17)
(1.29878 -0.121405 -3.34241e-17)
(0.896085 -0.11 3.73425e-17)
(1.25752 -0.16094 1.64819e-17)
(1.3101 -0.185801 -1.3275e-17)
(1.31652 -0.150049 -1.35157e-17)
(1.05241 -0.141407 4.23008e-17)
(1.25523 -0.169117 1.24762e-17)
(1.30848 -0.198874 -1.49215e-17)
(1.34258 -0.190705 -9.15917e-19)
(1.24355 -0.18679 -1.04545e-17)
(-0.0747907 -0.00125232 2.57793e-17)
(0.129942 0.000357188 6.83451e-18)
(-0.0704112 -0.00422816 4.35175e-17)
(0.130048 0.00129025 -5.04512e-19)
(-0.0617044 -0.00685474 2.35362e-17)
(0.130168 0.00225535 -9.10199e-18)
(-0.0486531 -0.00935665 1.31082e-17)
(0.130192 0.00343054 -2.25169e-17)
(-0.0312077 -0.0115286 1.00162e-17)
(0.129974 0.00483272 -4.6038e-17)
(-0.00926586 -0.0133085 1.18791e-17)
(0.129359 0.00653208 -3.69557e-17)
(0.0173284 -0.0146277 1.78374e-17)
(0.1282 0.00858558 -4.57782e-17)
(0.048789 -0.0153548 3.59057e-17)
(0.126383 0.0110234 -2.68575e-17)
(0.0853891 -0.0155741 1.08954e-17)
(0.123854 0.0139778 -2.12278e-17)
(0.127459 -0.0156302 -1.01364e-17)
(0.120663 0.0177192 -2.64292e-17)
(0.31777 0.0349012 4.96086e-19)
(0.255305 -0.0066565 -8.46707e-17)
(0.110965 0.0267861 7.10935e-17)
(0.578568 0.0483312 -1.92892e-18)
(0.584488 0.00484236 -1.28383e-17)
(0.683851 -0.0169784 1.07216e-18)
(0.809443 0.0438071 -5.95146e-18)
(0.883063 -0.0230032 -7.90276e-17)
(1.03016 -0.077422 7.64825e-17)
(0.965293 0.0376753 2.75828e-19)
(1.06422 -0.0309892 -6.66399e-18)
(1.16871 -0.0966844 2.11041e-18)
(1.04605 0.0269622 1.34614e-18)
(1.15074 -0.0516917 -1.06008e-18)
(1.20971 -0.11265 2.81777e-18)
)
;

boundaryField
{
    inlet
    {
        type            uniformFixedValue;
        uniformValue    constant (1 0 0);
        value           nonuniform 0();
    }
    outlet
    {
        type            pressureInletOutletVelocity;
        value           nonuniform 0();
    }
    polygon
    {
        type            fixedValue;
        value           uniform (0 0 0);
    }
    top
    {
        type            symmetryPlane;
    }
    bottom
    {
        type            symmetryPlane;
    }
    outside
    {
        type            zeroGradient;
    }
    procBoundary6to2
    {
        type            processor;
        value           nonuniform List<vector> 
14
(
(1.23696 -0.103008 1.15337e-17)
(1.23696 -0.103008 1.15337e-17)
(1.23799 -0.112301 1.55967e-17)
(1.23825 -0.117669 1.73772e-17)
(1.23798 -0.124624 4.78014e-18)
(1.23686 -0.130831 -6.68029e-18)
(1.23504 -0.137178 -4.14883e-18)
(1.23226 -0.143222 -6.04306e-18)
(1.22846 -0.149026 -2.55456e-17)
(1.22434 -0.154406 -5.86562e-18)
(1.22183 -0.159467 1.79806e-18)
(1.08219 0.0158398 4.17691e-18)
(1.18353 -0.0584473 3.58763e-19)
(1.21507 -0.113851 -2.05862e-18)
)
;
    }
    procBoundary6to3
    {
        type            processor;
        value           nonuniform List<vector> 7((0.188433 0.0282204 3.77369e-17) (0.188433 0.0282204 3.77369e-17) (0.432014 0.0482093 1.55403e-18) (0.632369 0.0600322 1.47858e-19) (0.806977 0.060923 -4.08144e-19) (0.927664 0.0575547 2.12056e-19) (0.99501 0.0506352 -1.81674e-19));
    }
    procBoundary6to5
    {
        type            processor;
        value           nonuniform List<vector> 4((1.25561 -0.17698 3.76932e-17) (1.30886 -0.210741 6.8908e-18) (1.37585 -0.241313 -7.97022e-18) (1.2807 -0.23977 7.61047e-18));
    }
    procBoundary6to7
    {
        type            processor;
        value           nonuniform List<vector> 9((-0.0539209 0.00178046 3.15923e-17) (-0.0479164 0.00456461 2.52999e-17) (-0.0360272 0.00765192 3.34511e-17) (-0.0184534 0.0105676 2.00749e-17) (0.00453997 0.0135257 1.78496e-17) (0.0326346 0.0164604 2.46516e-17) (0.0654707 0.0194039 4.40612e-17) (0.102658 0.0223412 4.61368e-17) (0.143789 0.0252271 3.30571e-17));
    }
    procBoundary6to10
    {
        type            processor;
        value           nonuniform List<vector> 2((-0.0747907 0.00125232 2.21344e-17) (0.129942 -0.000357188 1.81107e-17));
    }
}


// ************************************************************************* //
