/*--------------------------------*- C++ -*----------------------------------*\
  =========                 |
  \\      /  F ield         | OpenFOAM: The Open Source CFD Toolbox
   \\    /   O peration     | Website:  https://openfoam.org
    \\  /    A nd           | Version:  7
     \\/     M anipulation  |
\*---------------------------------------------------------------------------*/
FoamFile
{
    version     2.0;
    format      ascii;
    class       surfaceScalarField;
    location    "72";
    object      phi;
}
// * * * * * * * * * * * * * * * * * * * * * * * * * * * * * * * * * * * * * //

dimensions      [0 3 -1 0 0 0 0];

internalField   nonuniform List<scalar> 
322
(
0.000501821
-1.89381e-06
0.000502504
-5.06727e-06
0.000503466
-8.25464e-06
0.000504607
-1.01384e-05
0.000505766
-9.93239e-06
0.000506829
-7.80095e-06
0.00050771
-3.91398e-06
0.000508345
1.47891e-06
0.000508684
8.13117e-06
1.57879e-05
-0.00239149
0.000197545
-0.00235396
0.00018691
-0.0023163
0.000174498
-0.00227853
0.000160746
-0.00224065
0.000145726
-0.00220269
0.000129693
-0.00216467
0.000112784
-0.00212666
9.51737e-05
-0.00208871
7.69945e-05
-0.00205089
5.83768e-05
-0.00201329
3.94308e-05
2.02544e-05
-0.00196974
0.000178476
-0.0019333
0.000186904
-0.00189754
0.000181682
-0.00186216
0.000178086
-0.00182719
0.00017159
-0.00179236
0.000162721
-0.00175763
0.000152178
-0.00172296
0.000139826
-0.00168831
0.0001261
-0.0016537
0.000111117
-0.00161914
9.51299e-05
-0.00158466
7.82988e-05
-0.00155029
6.08033e-05
-0.00151608
4.27891e-05
-0.0014821
2.43952e-05
-0.00144841
5.74556e-06
-1.30572e-05
-0.00136847
0.000140477
-0.00133298
0.000151416
-0.00129937
0.000148071
-0.00126673
0.000145447
-0.00123473
0.000139589
-0.00120316
0.000131149
-0.00117186
0.000120882
-0.00114082
0.000108779
-0.00110997
9.52492e-05
-0.00107932
8.0467e-05
-0.00104887
6.46829e-05
-0.00101865
4.80793e-05
-0.000988687
3.08407e-05
-0.000959022
1.31241e-05
-0.000929703
-4.92385e-06
-0.00090078
-2.31774e-05
-4.15134e-05
-0.000777501
0.000103883
-0.000742578
0.000116493
-0.000711437
0.00011693
-0.000681755
0.000115765
-0.000652958
0.000110792
-0.000624891
0.000103081
-0.000597316
9.33073e-05
-0.000570198
8.16607e-05
-0.000543475
6.8526e-05
-0.000517142
5.4134e-05
-0.000491197
3.87378e-05
-0.000465658
2.25404e-05
-0.00044055
5.73309e-06
-0.000415901
-1.15247e-05
-0.000391752
-2.9073e-05
-0.000368149
-4.67801e-05
-6.45218e-05
-0.000199642
7.01644e-05
-0.000164294
8.11446e-05
-0.000137087
8.97232e-05
-0.000110055
8.87331e-05
-8.45875e-05
8.53242e-05
-6.00263e-05
7.852e-05
-3.62114e-05
6.94924e-05
-1.30759e-05
5.85253e-05
9.44146e-06
4.60086e-05
3.13541e-05
3.22214e-05
5.26625e-05
1.74294e-05
7.33498e-05
1.85307e-06
9.34169e-05
-1.43339e-05
0.00011282
-3.09277e-05
0.000131532
-4.77848e-05
0.000149518
-6.47661e-05
-8.17454e-05
0.000365955
4.12812e-05
0.000395013
5.20867e-05
0.00042034
6.43953e-05
0.000443863
6.52108e-05
0.000466204
6.29826e-05
0.00048733
5.73948e-05
0.000507483
4.93391e-05
0.000526727
3.9281e-05
0.000545114
2.76223e-05
0.00056266
1.46754e-05
0.000579357
7.32143e-07
0.000595233
-1.40228e-05
0.000610234
-2.93357e-05
0.000624351
-4.50447e-05
0.000637558
-6.09919e-05
0.00064983
-7.70375e-05
-9.30546e-05
0.000912066
2.19555e-05
0.000932772
3.13801e-05
0.000954691
4.24765e-05
0.000974777
4.51252e-05
0.000993736
4.40236e-05
0.00101146
3.96699e-05
0.00102805
3.27524e-05
0.00104353
2.3794e-05
0.00105795
1.32105e-05
0.00107127
1.34893e-06
0.00108355
-1.1546e-05
0.00109472
-2.51961e-05
0.00110479
-3.94011e-05
0.00111373
-5.3981e-05
0.00112151
-6.87792e-05
0.00112813
-8.36571e-05
-9.84898e-05
0.00142978
1.04483e-05
0.00144338
1.77777e-05
0.00145985
2.60045e-05
0.0014758
2.91746e-05
0.00149101
2.88112e-05
0.0015052
2.54862e-05
0.00151824
1.97082e-05
0.00153009
1.1948e-05
0.00154069
2.61163e-06
0.00155004
-8.00231e-06
0.00155808
-1.9587e-05
0.00156479
-3.19073e-05
0.00157015
-4.47562e-05
0.00157412
-5.79576e-05
0.0015767
-7.13592e-05
0.00157787
-8.48268e-05
-9.82409e-05
0.00190729
4.57486e-06
0.00191546
9.60713e-06
0.00192651
1.49615e-05
0.00193802
1.76631e-05
0.00194929
1.75425e-05
0.00195984
1.49345e-05
0.00196937
1.01715e-05
0.00197771
3.61218e-06
0.00198473
-4.40947e-06
0.00199033
-1.35971e-05
0.00199443
-2.36896e-05
0.00199698
-3.44622e-05
0.00199795
-4.57222e-05
0.0019973
-5.73044e-05
0.001995
-6.90662e-05
0.00199106
-8.0883e-05
-9.26443e-05
0.00233177
0.00233631
0.00234301
0.00235054
0.00235815
0.00236528
0.00237154
0.00237663
0.00238035
0.00238254
0.00238308
0.00238189
0.0023789
0.00237407
0.00236737
0.0023588
)
;

boundaryField
{
    inlet
    {
        type            calculated;
        value           nonuniform 0();
    }
    outlet
    {
        type            calculated;
        value           nonuniform List<scalar> 10(-0.00050152 0.00200843 0.00140647 0.000814095 0.00023336 -0.000337072 -0.00089274 -0.00141827 -0.00190142 -0.00232908);
    }
    polygon
    {
        type            calculated;
        value           nonuniform 0();
    }
    top
    {
        type            symmetryPlane;
        value           uniform 0;
    }
    bottom
    {
        type            symmetryPlane;
        value           uniform 0;
    }
    outside
    {
        type            calculated;
        value           nonuniform 0();
    }
    procBoundary55to47
    {
        type            processor;
        value           nonuniform List<scalar> 
18
(
1.59249e-06
4.38426e-06
7.29227e-06
8.99742e-06
8.77328e-06
6.73839e-06
3.03285e-06
-2.11418e-06
-8.4698e-06
0.000508689
-1.57926e-05
-2.42326e-05
-3.32699e-05
-4.27319e-05
-5.24731e-05
-6.23679e-05
-7.23065e-05
-8.21922e-05
)
;
    }
    procBoundary55to54
    {
        type            processor;
        value           nonuniform List<scalar> 10(-0.00197601 -0.0014151 -0.000872324 -0.000345141 0.000166741 0.000661139 0.00113357 0.00157762 0.00198546 0.00234834);
    }
    procBoundary55to63
    {
        type            processor;
        value           nonuniform List<scalar> 
18
(
-0.000235028
-0.000224444
-0.000212152
-0.000198518
-0.000183606
-0.000167658
-0.000150797
-0.000133187
-0.000114947
-9.61953e-05
-7.70282e-05
-5.7532e-05
-0.00021717
-0.000223345
-0.000217438
-0.000213471
0.00242898
-0.000206559
)
;
    }
}


// ************************************************************************* //
