/*--------------------------------*- C++ -*----------------------------------*\
  =========                 |
  \\      /  F ield         | OpenFOAM: The Open Source CFD Toolbox
   \\    /   O peration     | Website:  https://openfoam.org
    \\  /    A nd           | Version:  7
     \\/     M anipulation  |
\*---------------------------------------------------------------------------*/
FoamFile
{
    version     2.0;
    format      ascii;
    class       volScalarField;
    location    "15";
    object      p;
}
// * * * * * * * * * * * * * * * * * * * * * * * * * * * * * * * * * * * * * //

dimensions      [0 2 -2 0 0 0 0];

internalField   nonuniform List<scalar> 
225
(
-0.0428415
-0.0679094
-0.0680659
-0.107514
-0.109553
-0.0429733
-0.0678426
-0.0680079
-0.107083
-0.109202
-0.0431154
-0.0677767
-0.0679855
-0.106678
-0.108958
-0.0432544
-0.0677013
-0.0679456
-0.106244
-0.10866
-0.0433887
-0.0676158
-0.0678828
-0.105774
-0.108291
-0.0435198
-0.0675215
-0.0678035
-0.105277
-0.107873
-0.0436483
-0.067419
-0.0677101
-0.104754
-0.107411
-0.0437762
-0.067311
-0.0676056
-0.104208
-0.10691
-0.043907
-0.0672001
-0.0674968
-0.103645
-0.106387
-0.0440134
-0.0670443
-0.0673381
-0.103011
-0.105758
-0.0413788
-0.0681082
-0.06851
-0.111132
-0.112998
-0.0415277
-0.0681342
-0.0684966
-0.110877
-0.11273
-0.0416875
-0.0681587
-0.068522
-0.110644
-0.112583
-0.041845
-0.0681712
-0.0685328
-0.110379
-0.112397
-0.0419979
-0.0681702
-0.0685197
-0.110072
-0.11214
-0.0421476
-0.0681571
-0.0684881
-0.10973
-0.11183
-0.0422949
-0.0681324
-0.068441
-0.109356
-0.111476
-0.0424398
-0.0680965
-0.0683788
-0.10895
-0.111078
-0.0425826
-0.0680501
-0.0683025
-0.108513
-0.110638
-0.0427221
-0.0679916
-0.0682082
-0.108042
-0.110148
-0.0397541
-0.0670983
-0.0682698
-0.11226
-0.115126
-0.200333
-0.0399215
-0.0672563
-0.0683272
-0.112271
-0.11497
-0.200118
-0.0400983
-0.0674126
-0.0684236
-0.112306
-0.114944
-0.199994
-0.0402727
-0.0675547
-0.0685072
-0.112306
-0.11489
-0.199788
-0.0404422
-0.06768
-0.0685661
-0.11226
-0.114769
-0.199458
-0.0406078
-0.0677899
-0.0686046
-0.112172
-0.114595
-0.19902
-0.0407705
-0.0678852
-0.0686261
-0.112046
-0.114378
-0.198486
-0.0409304
-0.0679663
-0.0686311
-0.111884
-0.114117
-0.197856
-0.0410879
-0.0680338
-0.0686208
-0.111685
-0.113817
-0.197137
-0.0412424
-0.0680868
-0.0685934
-0.111449
-0.113474
-0.196322
-0.0378981
-0.064633
-0.0670978
-0.110416
-0.115735
-0.198517
-0.0380963
-0.0649424
-0.067257
-0.110721
-0.115737
-0.198977
-0.0383004
-0.0652519
-0.0674506
-0.11106
-0.115855
-0.199567
-0.0385006
-0.0655456
-0.0676311
-0.111366
-0.11595
-0.200075
-0.0386946
-0.0658202
-0.0677859
-0.111623
-0.115982
-0.200447
-0.0388834
-0.0660772
-0.0679186
-0.111835
-0.115961
-0.200702
-0.0390677
-0.0663176
-0.0680324
-0.112009
-0.115896
-0.200853
-0.039248
-0.0665418
-0.068128
-0.112144
-0.115788
-0.200902
-0.0394247
-0.0667504
-0.0682071
-0.112241
-0.115642
-0.200852
-0.0395975
-0.0669423
-0.0682687
-0.112298
-0.115458
-0.200703
-0.0451725
-0.0458573
-0.0467437
-0.0463852
-0.046714
)
;

boundaryField
{
    inlet
    {
        type            zeroGradient;
    }
    outlet
    {
        type            fixedValue;
        value           nonuniform 0();
    }
    polygon
    {
        type            zeroGradient;
    }
    top
    {
        type            symmetryPlane;
    }
    bottom
    {
        type            symmetryPlane;
    }
    outside
    {
        type            slip;
    }
    procBoundary14to10
    {
        type            processor;
        value           nonuniform List<scalar> 
42
(
-0.185106
-0.183977
-0.182969
-0.18188
-0.180688
-0.179416
-0.178072
-0.176662
-0.175205
-0.173593
-0.195326
-0.195326
-0.194536
-0.193846
-0.193079
-0.192201
-0.191231
-0.190179
-0.189046
-0.187835
-0.18653
-0.208772
-0.208477
-0.208609
-0.20869
-0.208592
-0.208353
-0.208004
-0.207545
-0.206981
-0.206311
-0.210743
-0.210576
-0.210759
-0.210926
-0.210954
-0.210862
-0.210675
-0.210396
-0.210036
-0.209604
-0.0373662
)
;
    }
    procBoundary14to13
    {
        type            processor;
        value           nonuniform List<scalar> 6(-0.0377083 -0.0643315 -0.0669834 -0.110178 -0.115861 -0.198286);
    }
    procBoundary14to15
    {
        type            processor;
        value           nonuniform List<scalar> 5(-0.0745171 -0.0866734 -0.0909393 -0.10115 -0.106897);
    }
}


// ************************************************************************* //
