/*--------------------------------*- C++ -*----------------------------------*\
  =========                 |
  \\      /  F ield         | OpenFOAM: The Open Source CFD Toolbox
   \\    /   O peration     | Website:  https://openfoam.org
    \\  /    A nd           | Version:  7
     \\/     M anipulation  |
\*---------------------------------------------------------------------------*/
FoamFile
{
    version     2.0;
    format      ascii;
    class       volScalarField;
    location    "48";
    object      p;
}
// * * * * * * * * * * * * * * * * * * * * * * * * * * * * * * * * * * * * * //

dimensions      [0 2 -2 0 0 0 0];

internalField   nonuniform List<scalar> 
11200
(
0.0208713
-0.0157761
-0.002023
-0.041077
-0.0530774
-0.0836234
-0.1038
-0.128137
-0.14854
-0.168551
-0.186314
-0.202549
-0.216879
-0.229455
-0.240224
-0.249241
-0.256532
-0.262151
-0.266151
-0.2686
-0.269574
-0.269161
-0.267458
-0.264573
-0.260621
-0.255728
-0.250024
-0.243644
-0.236725
-0.229405
-0.221816
-0.214088
-0.206343
-0.19869
-0.19123
-0.184051
-0.177224
-0.170809
-0.164851
-0.159378
-0.154408
-0.149946
-0.145987
-0.142517
-0.139514
-0.136952
-0.1348
-0.133028
-0.1316
-0.130485
-0.12965
-0.129064
-0.128699
-0.128528
-0.128527
-0.128673
-0.128948
-0.129333
-0.129813
-0.130375
-0.131007
-0.131701
-0.132447
-0.13324
-0.134073
-0.134938
-0.13585
-0.136787
-0.137753
-0.138757
-0.139778
-0.140829
-0.141904
-0.143004
-0.144127
-0.145272
-0.146436
-0.147618
-0.148816
-0.150024
-0.15124
-0.152456
-0.15367
-0.154866
-0.156047
-0.157179
-0.158284
-0.159281
-0.160255
-0.160995
-0.161784
-0.162042
-0.162662
-0.161981
-0.162737
-0.160244
-0.162078
-0.157095
-0.160442
-0.157084
0.0231284
-0.0142218
-0.000273463
-0.039403
-0.0515373
-0.0823185
-0.102632
-0.127136
-0.147638
-0.167753
-0.185589
-0.201891
-0.216277
-0.228901
-0.239712
-0.248768
-0.256093
-0.261743
-0.265772
-0.26825
-0.269252
-0.268866
-0.26719
-0.264331
-0.260405
-0.255538
-0.249859
-0.243505
-0.236611
-0.229315
-0.22175
-0.214044
-0.206319
-0.198685
-0.191243
-0.184079
-0.177266
-0.170863
-0.164914
-0.159448
-0.154484
-0.150026
-0.146068
-0.142598
-0.139593
-0.137028
-0.134873
-0.133096
-0.131663
-0.130542
-0.1297
-0.129108
-0.128736
-0.128559
-0.128551
-0.128692
-0.128961
-0.129342
-0.129818
-0.130377
-0.131007
-0.131699
-0.132444
-0.133237
-0.134072
-0.134942
-0.135846
-0.136783
-0.13775
-0.138742
-0.13977
-0.140815
-0.141887
-0.142984
-0.144105
-0.145247
-0.14641
-0.147589
-0.148784
-0.14999
-0.151203
-0.152416
-0.153626
-0.154819
-0.155996
-0.157123
-0.158224
-0.159214
-0.160183
-0.160912
-0.161695
-0.161931
-0.162544
-0.161825
-0.162543
-0.160025
-0.161666
-0.156802
-0.159633
-0.156106
0.0253015
-0.0127524
0.0014149
-0.0378657
-0.0501074
-0.081134
-0.101568
-0.126236
-0.146826
-0.167038
-0.18494
-0.201304
-0.215739
-0.228407
-0.239255
-0.248343
-0.255699
-0.261375
-0.26543
-0.267931
-0.268956
-0.268593
-0.266939
-0.264102
-0.260198
-0.255353
-0.249697
-0.243365
-0.236493
-0.229219
-0.221674
-0.213989
-0.206283
-0.198668
-0.191242
-0.184094
-0.177294
-0.170903
-0.164964
-0.159507
-0.154549
-0.150096
-0.146141
-0.142672
-0.139667
-0.137101
-0.134943
-0.133162
-0.131725
-0.130599
-0.129752
-0.129153
-0.128776
-0.128593
-0.12858
-0.128715
-0.128979
-0.129355
-0.129827
-0.130382
-0.131009
-0.131697
-0.13244
-0.133229
-0.134058
-0.134928
-0.135832
-0.136767
-0.137732
-0.138726
-0.139744
-0.140795
-0.141868
-0.142964
-0.144084
-0.145225
-0.146387
-0.147565
-0.148758
-0.149962
-0.151174
-0.152385
-0.153593
-0.154783
-0.155958
-0.157081
-0.158178
-0.159162
-0.160126
-0.160844
-0.161621
-0.161835
-0.162436
-0.16168
-0.162355
-0.159815
-0.161287
-0.156539
-0.159031
-0.155441
0.0271238
-0.0113672
0.00298888
-0.0364641
-0.0488112
-0.0800623
-0.100609
-0.125424
-0.146095
-0.166396
-0.184357
-0.200776
-0.215255
-0.227962
-0.238844
-0.247962
-0.255345
-0.261046
-0.265124
-0.267648
-0.268694
-0.268352
-0.266719
-0.263903
-0.260021
-0.255197
-0.249561
-0.24325
-0.236398
-0.229143
-0.221618
-0.213951
-0.206262
-0.198663
-0.191252
-0.184117
-0.177329
-0.170948
-0.165017
-0.159567
-0.154614
-0.150163
-0.146211
-0.142742
-0.139736
-0.137168
-0.135007
-0.133222
-0.13178
-0.130649
-0.129797
-0.129193
-0.128811
-0.128622
-0.128603
-0.128734
-0.128993
-0.129365
-0.129833
-0.130384
-0.131007
-0.131693
-0.132433
-0.13322
-0.134049
-0.134917
-0.135818
-0.136752
-0.137716
-0.138708
-0.139729
-0.140778
-0.141847
-0.142942
-0.144061
-0.145201
-0.146361
-0.147538
-0.14873
-0.149933
-0.151143
-0.152352
-0.153559
-0.154747
-0.15592
-0.15704
-0.158135
-0.159114
-0.160075
-0.160784
-0.161557
-0.161753
-0.162346
-0.161561
-0.162202
-0.159648
-0.160968
-0.156315
-0.15849
-0.154727
0.0287171
-0.0100863
0.00441451
-0.0352146
-0.0476629
-0.0791117
-0.0997614
-0.124706
-0.145449
-0.165826
-0.18384
-0.200308
-0.214826
-0.227567
-0.238479
-0.247624
-0.255031
-0.260756
-0.264856
-0.2674
-0.268467
-0.268144
-0.266531
-0.263735
-0.259872
-0.255068
-0.249452
-0.24316
-0.236327
-0.22909
-0.221582
-0.213931
-0.206257
-0.198672
-0.191274
-0.184149
-0.177371
-0.170998
-0.165074
-0.159628
-0.154678
-0.15023
-0.146278
-0.142808
-0.139801
-0.13723
-0.135066
-0.133277
-0.13183
-0.130694
-0.129837
-0.129228
-0.12884
-0.128646
-0.128623
-0.128749
-0.129004
-0.129371
-0.129836
-0.130384
-0.131004
-0.131687
-0.132425
-0.13321
-0.134037
-0.134903
-0.135804
-0.136736
-0.137699
-0.13869
-0.139709
-0.140751
-0.141825
-0.14292
-0.144037
-0.145176
-0.146335
-0.147511
-0.148701
-0.149903
-0.151111
-0.152319
-0.153525
-0.154711
-0.155882
-0.157
-0.158093
-0.159068
-0.160027
-0.160728
-0.1615
-0.161682
-0.16227
-0.161461
-0.162076
-0.159511
-0.160702
-0.156123
-0.158019
-0.154067
0.030113
-0.00894272
0.00566228
-0.0341368
-0.0466757
-0.0782939
-0.0990338
-0.124087
-0.144893
-0.165335
-0.183393
-0.199903
-0.214454
-0.227226
-0.238164
-0.247333
-0.254762
-0.260507
-0.264626
-0.267189
-0.268275
-0.26797
-0.266375
-0.263597
-0.259753
-0.254966
-0.249368
-0.243093
-0.236276
-0.229056
-0.221563
-0.213926
-0.206266
-0.198692
-0.191304
-0.184189
-0.177419
-0.171052
-0.165132
-0.15969
-0.154742
-0.150295
-0.146342
-0.142871
-0.139862
-0.137288
-0.13512
-0.133327
-0.131876
-0.130735
-0.129873
-0.129259
-0.128866
-0.128667
-0.12864
-0.128761
-0.129012
-0.129376
-0.129837
-0.130382
-0.130999
-0.13168
-0.132415
-0.133198
-0.134025
-0.134889
-0.135788
-0.13672
-0.137681
-0.138671
-0.139689
-0.140733
-0.141804
-0.142896
-0.144012
-0.14515
-0.146308
-0.147483
-0.148672
-0.149872
-0.15108
-0.152286
-0.153491
-0.154675
-0.155845
-0.156961
-0.158053
-0.159025
-0.159983
-0.160678
-0.16145
-0.161619
-0.162207
-0.161378
-0.161973
-0.1594
-0.160486
-0.155964
-0.157635
-0.153508
0.0312802
-0.00797212
0.00670374
-0.0332475
-0.0458621
-0.0776185
-0.0984329
-0.123575
-0.144431
-0.164926
-0.183021
-0.199564
-0.214144
-0.22694
-0.2379
-0.24709
-0.254537
-0.2603
-0.264437
-0.267017
-0.268119
-0.267831
-0.266252
-0.263491
-0.259662
-0.254892
-0.249309
-0.243049
-0.236248
-0.229041
-0.221561
-0.213937
-0.206287
-0.198724
-0.191344
-0.184236
-0.177472
-0.171109
-0.165193
-0.159752
-0.154805
-0.150357
-0.146404
-0.142931
-0.139918
-0.137341
-0.135169
-0.133371
-0.131916
-0.130771
-0.129904
-0.129285
-0.128888
-0.128685
-0.128653
-0.12877
-0.129017
-0.129378
-0.129836
-0.130378
-0.130993
-0.131671
-0.132405
-0.133188
-0.134011
-0.134874
-0.135772
-0.136702
-0.137663
-0.138652
-0.139668
-0.140711
-0.141779
-0.142873
-0.143988
-0.145124
-0.146281
-0.147455
-0.148643
-0.149842
-0.151048
-0.152254
-0.153457
-0.15464
-0.155809
-0.156924
-0.158015
-0.158985
-0.159943
-0.160635
-0.161407
-0.161568
-0.162157
-0.161313
-0.161898
-0.159318
-0.160324
-0.155844
-0.157339
-0.153053
0.0321861
-0.0072084
0.00751368
-0.0325596
-0.0452322
-0.077092
-0.0979633
-0.123171
-0.144066
-0.164601
-0.182724
-0.199293
-0.213894
-0.22671
-0.237689
-0.246895
-0.254359
-0.260137
-0.264289
-0.266884
-0.268
-0.267727
-0.266164
-0.263417
-0.259603
-0.254847
-0.249279
-0.243032
-0.236243
-0.229048
-0.22158
-0.213965
-0.206324
-0.198768
-0.191396
-0.184293
-0.177532
-0.171172
-0.165257
-0.159817
-0.154869
-0.150419
-0.146463
-0.142987
-0.139971
-0.13739
-0.135214
-0.133412
-0.131952
-0.130802
-0.12993
-0.129307
-0.128905
-0.128698
-0.128662
-0.128776
-0.12902
-0.129377
-0.129832
-0.130372
-0.130985
-0.131661
-0.132393
-0.133171
-0.133996
-0.134858
-0.135754
-0.136683
-0.137643
-0.13863
-0.139646
-0.140687
-0.141753
-0.142845
-0.143961
-0.145097
-0.146253
-0.147426
-0.148614
-0.149812
-0.151017
-0.152222
-0.153424
-0.154607
-0.155775
-0.156889
-0.15798
-0.158949
-0.159908
-0.160597
-0.161372
-0.161528
-0.162122
-0.161268
-0.161852
-0.159268
-0.160222
-0.155771
-0.157135
-0.1527
0.0328068
-0.00668081
0.00807036
-0.0320858
-0.0447961
-0.076722
-0.0976307
-0.12288
-0.143801
-0.164361
-0.182504
-0.199091
-0.213707
-0.226538
-0.23753
-0.24675
-0.254226
-0.260018
-0.264183
-0.266791
-0.26792
-0.26766
-0.26611
-0.263376
-0.259576
-0.254833
-0.249277
-0.243042
-0.236264
-0.229079
-0.221619
-0.214013
-0.206379
-0.198828
-0.191459
-0.184359
-0.1776
-0.171241
-0.165325
-0.159884
-0.154934
-0.150481
-0.146522
-0.143042
-0.140021
-0.137435
-0.135254
-0.133447
-0.131983
-0.130828
-0.129952
-0.129324
-0.128918
-0.128707
-0.128668
-0.128778
-0.129019
-0.129374
-0.129827
-0.130364
-0.130976
-0.131651
-0.132381
-0.133161
-0.133984
-0.134843
-0.135739
-0.136667
-0.137625
-0.138612
-0.139627
-0.140669
-0.141736
-0.142828
-0.14394
-0.145074
-0.146228
-0.147399
-0.148586
-0.149782
-0.150987
-0.15219
-0.153392
-0.154574
-0.155742
-0.156855
-0.157947
-0.158915
-0.159877
-0.160565
-0.161345
-0.161498
-0.162102
-0.161242
-0.161834
-0.159249
-0.160176
-0.155741
-0.157012
-0.152445
0.0331225
-0.0064114
0.00835306
-0.0318447
-0.0445732
-0.0765296
-0.0974558
-0.122724
-0.143656
-0.164227
-0.182378
-0.198973
-0.213597
-0.226434
-0.237434
-0.246661
-0.254145
-0.259945
-0.264117
-0.26674
-0.26788
-0.267628
-0.266087
-0.263363
-0.259572
-0.254839
-0.249292
-0.243065
-0.236295
-0.229117
-0.221664
-0.214062
-0.206432
-0.198884
-0.191517
-0.184418
-0.177659
-0.171298
-0.165381
-0.159936
-0.154983
-0.150527
-0.146564
-0.14308
-0.140055
-0.137465
-0.13528
-0.133469
-0.132001
-0.130843
-0.129963
-0.129333
-0.128924
-0.128711
-0.128669
-0.128778
-0.129016
-0.129368
-0.129818
-0.130354
-0.130962
-0.131634
-0.132361
-0.133136
-0.133958
-0.134818
-0.135712
-0.136639
-0.137596
-0.138582
-0.139594
-0.140634
-0.141698
-0.142786
-0.1439
-0.145035
-0.146189
-0.147361
-0.148547
-0.149744
-0.150949
-0.152152
-0.153355
-0.154537
-0.155706
-0.156821
-0.157914
-0.158885
-0.159849
-0.160539
-0.161325
-0.161477
-0.162088
-0.161224
-0.161824
-0.159235
-0.160151
-0.155716
-0.156928
-0.152253
0.0375013
-0.0294385
-0.0183157
-0.0575308
-0.0695383
-0.0976197
-0.117127
-0.139656
-0.159314
-0.178194
-0.195232
-0.210709
-0.224416
-0.236404
-0.246643
-0.255161
-0.261981
-0.267144
-0.270697
-0.272709
-0.273261
-0.272416
-0.270283
-0.266969
-0.262593
-0.257282
-0.25117
-0.244396
-0.237101
-0.229426
-0.221508
-0.21348
-0.205465
-0.197577
-0.189918
-0.182575
-0.175622
-0.169117
-0.163102
-0.157607
-0.152644
-0.148217
-0.144317
-0.140926
-0.138019
-0.135567
-0.133536
-0.13189
-0.130593
-0.12961
-0.128905
-0.128447
-0.128204
-0.128149
-0.128257
-0.128506
-0.128873
-0.129343
-0.129899
-0.130529
-0.131222
-0.131969
-0.132763
-0.133599
-0.134471
-0.135377
-0.136314
-0.137281
-0.138276
-0.139299
-0.140349
-0.141425
-0.142527
-0.143652
-0.144801
-0.145972
-0.147163
-0.148371
-0.149594
-0.150827
-0.152067
-0.153306
-0.154541
-0.155759
-0.156954
-0.158107
-0.159216
-0.160241
-0.161196
-0.161998
-0.162721
-0.163152
-0.163612
-0.163393
-0.163971
-0.162381
-0.165437
-0.160681
-0.174207
-0.165705
0.0356005
-0.0282649
-0.0165274
-0.0560217
-0.0677209
-0.0962165
-0.115643
-0.138429
-0.158121
-0.177138
-0.194247
-0.209808
-0.223581
-0.235633
-0.245928
-0.254499
-0.261368
-0.266579
-0.27018
-0.272237
-0.272829
-0.272029
-0.269941
-0.266672
-0.262341
-0.257074
-0.251006
-0.244275
-0.237022
-0.229387
-0.221507
-0.213514
-0.205531
-0.197672
-0.190039
-0.182718
-0.175783
-0.169292
-0.163288
-0.157799
-0.15284
-0.148412
-0.144509
-0.141112
-0.138197
-0.135734
-0.133691
-0.132032
-0.130721
-0.129723
-0.129004
-0.128532
-0.128275
-0.128207
-0.128302
-0.128538
-0.128894
-0.129353
-0.1299
-0.130521
-0.131207
-0.131948
-0.132737
-0.133568
-0.134437
-0.135339
-0.136274
-0.137239
-0.138232
-0.139253
-0.140302
-0.141376
-0.142476
-0.1436
-0.144747
-0.145917
-0.147106
-0.148313
-0.149534
-0.150767
-0.152006
-0.153245
-0.154478
-0.155695
-0.15689
-0.158043
-0.159151
-0.160174
-0.161129
-0.161923
-0.162648
-0.163053
-0.163524
-0.163235
-0.163838
-0.16208
-0.165096
-0.160095
-0.172733
-0.165515
0.0329625
-0.0269816
-0.0148495
-0.0543625
-0.0659766
-0.0947319
-0.114191
-0.13717
-0.156927
-0.176066
-0.19325
-0.208894
-0.222736
-0.234853
-0.245208
-0.253836
-0.26076
-0.266023
-0.269675
-0.271783
-0.272422
-0.271672
-0.269634
-0.266414
-0.262132
-0.256913
-0.250892
-0.244206
-0.236996
-0.229401
-0.221558
-0.213599
-0.205647
-0.197814
-0.190203
-0.1829
-0.175979
-0.169497
-0.163499
-0.158011
-0.15305
-0.148618
-0.144706
-0.141299
-0.138372
-0.135896
-0.133838
-0.132164
-0.130837
-0.129824
-0.129089
-0.128601
-0.12833
-0.128248
-0.128331
-0.128555
-0.1289
-0.12935
-0.129888
-0.130503
-0.131182
-0.131918
-0.132702
-0.133529
-0.134393
-0.135293
-0.136224
-0.137185
-0.138176
-0.139194
-0.140239
-0.14131
-0.142406
-0.143527
-0.144672
-0.145838
-0.147024
-0.148228
-0.149447
-0.150676
-0.151913
-0.153149
-0.154381
-0.155596
-0.15679
-0.157941
-0.15905
-0.160071
-0.161031
-0.161822
-0.162557
-0.16295
-0.163443
-0.163106
-0.163749
-0.161852
-0.16481
-0.159616
-0.17104
-0.165363
0.0306167
-0.0256364
-0.0132172
-0.0526778
-0.0642656
-0.0932595
-0.112776
-0.135939
-0.155768
-0.175027
-0.192287
-0.208012
-0.22192
-0.234101
-0.244514
-0.253196
-0.26017
-0.265482
-0.269183
-0.271337
-0.272023
-0.271319
-0.269327
-0.266154
-0.261917
-0.256743
-0.250766
-0.244122
-0.236953
-0.229396
-0.221589
-0.213662
-0.205739
-0.197933
-0.190343
-0.183058
-0.176151
-0.16968
-0.163687
-0.158203
-0.153241
-0.148805
-0.144888
-0.141472
-0.138535
-0.136047
-0.133976
-0.132288
-0.130947
-0.129919
-0.12917
-0.128668
-0.128384
-0.128289
-0.12836
-0.128573
-0.128909
-0.129349
-0.12988
-0.130488
-0.131161
-0.131891
-0.132671
-0.133493
-0.134354
-0.13525
-0.136178
-0.137136
-0.138124
-0.139139
-0.140181
-0.141249
-0.142343
-0.143461
-0.144602
-0.145766
-0.146949
-0.14815
-0.149365
-0.150592
-0.151825
-0.153059
-0.154288
-0.1555
-0.156692
-0.157841
-0.158949
-0.159968
-0.160929
-0.161714
-0.162456
-0.162833
-0.163344
-0.162958
-0.163629
-0.16161
-0.164486
-0.159194
-0.169472
-0.165001
0.0285544
-0.024263
-0.0115947
-0.0509941
-0.0625678
-0.0918075
-0.111385
-0.134734
-0.154637
-0.174014
-0.191348
-0.207153
-0.221126
-0.233369
-0.243837
-0.252571
-0.259594
-0.264954
-0.268701
-0.270901
-0.271632
-0.270973
-0.269026
-0.265897
-0.261704
-0.256574
-0.25064
-0.244038
-0.236908
-0.229389
-0.221616
-0.213722
-0.205827
-0.198046
-0.190478
-0.183211
-0.176318
-0.169856
-0.163871
-0.158389
-0.153427
-0.148988
-0.145065
-0.141642
-0.138694
-0.136195
-0.134112
-0.13241
-0.131056
-0.130014
-0.129251
-0.128736
-0.128438
-0.128331
-0.12839
-0.128593
-0.128918
-0.12935
-0.129873
-0.130473
-0.13114
-0.131865
-0.132639
-0.133458
-0.134315
-0.135207
-0.136132
-0.137087
-0.138072
-0.139084
-0.140123
-0.141189
-0.14228
-0.143395
-0.144534
-0.145694
-0.146875
-0.148073
-0.149285
-0.150509
-0.15174
-0.152971
-0.154197
-0.155407
-0.156597
-0.157743
-0.15885
-0.159866
-0.160828
-0.161607
-0.162354
-0.162713
-0.163239
-0.162802
-0.163494
-0.161363
-0.164139
-0.158807
-0.168005
-0.164478
0.0266602
-0.0228727
-0.0099791
-0.0493105
-0.0608893
-0.090373
-0.11002
-0.133552
-0.15353
-0.173023
-0.190431
-0.206313
-0.220351
-0.232653
-0.243176
-0.251961
-0.259033
-0.264439
-0.268232
-0.270477
-0.271252
-0.270638
-0.268735
-0.26565
-0.261502
-0.256415
-0.250522
-0.243961
-0.23687
-0.229388
-0.22165
-0.213787
-0.20592
-0.198163
-0.190616
-0.183366
-0.176486
-0.170035
-0.164055
-0.158576
-0.153613
-0.149171
-0.145242
-0.14181
-0.138853
-0.136342
-0.134246
-0.132531
-0.131163
-0.130108
-0.129331
-0.128802
-0.128492
-0.128373
-0.12842
-0.128612
-0.128928
-0.129351
-0.129865
-0.130458
-0.131119
-0.131838
-0.132607
-0.133421
-0.134274
-0.135163
-0.136085
-0.137037
-0.138018
-0.139028
-0.140064
-0.141127
-0.142215
-0.143328
-0.144464
-0.145621
-0.146799
-0.147994
-0.149204
-0.150425
-0.151653
-0.152881
-0.154106
-0.155313
-0.156502
-0.157645
-0.158752
-0.159764
-0.160727
-0.1615
-0.162253
-0.162593
-0.163135
-0.162647
-0.163359
-0.161126
-0.163784
-0.158451
-0.166607
-0.163827
0.0249162
-0.0214716
-0.00837262
-0.0476326
-0.0592395
-0.08896
-0.108687
-0.132396
-0.152453
-0.172058
-0.189538
-0.205496
-0.219596
-0.231957
-0.242533
-0.251368
-0.258488
-0.26394
-0.267778
-0.270067
-0.270885
-0.270315
-0.268456
-0.265415
-0.26131
-0.256266
-0.250415
-0.243894
-0.236841
-0.229395
-0.22169
-0.213857
-0.206018
-0.198285
-0.190758
-0.183524
-0.176657
-0.170214
-0.16424
-0.158762
-0.153799
-0.149353
-0.145417
-0.141977
-0.13901
-0.136487
-0.134379
-0.132651
-0.131269
-0.1302
-0.12941
-0.128868
-0.128544
-0.128413
-0.128449
-0.12863
-0.128936
-0.12935
-0.129857
-0.130443
-0.131097
-0.13181
-0.132575
-0.133384
-0.134233
-0.135119
-0.136037
-0.136987
-0.137965
-0.138971
-0.140005
-0.141065
-0.14215
-0.14326
-0.144393
-0.145548
-0.146723
-0.147915
-0.149122
-0.15034
-0.151566
-0.152792
-0.154014
-0.155219
-0.156405
-0.157547
-0.158653
-0.159662
-0.160627
-0.161393
-0.162153
-0.162475
-0.163033
-0.162498
-0.163227
-0.160905
-0.163433
-0.15813
-0.165288
-0.163061
0.0233026
-0.0200681
-0.00677467
-0.0459701
-0.0576242
-0.0875741
-0.107389
-0.131268
-0.151405
-0.171118
-0.18867
-0.204701
-0.218862
-0.23128
-0.241908
-0.250792
-0.257958
-0.263456
-0.267338
-0.269671
-0.270532
-0.270006
-0.268191
-0.265193
-0.261131
-0.256129
-0.250319
-0.243838
-0.236823
-0.229412
-0.221741
-0.213938
-0.206125
-0.198415
-0.190907
-0.183689
-0.176833
-0.170399
-0.164429
-0.158953
-0.153988
-0.149537
-0.145595
-0.142146
-0.139168
-0.136634
-0.134513
-0.132771
-0.131376
-0.130292
-0.129488
-0.128933
-0.128597
-0.128453
-0.128477
-0.128647
-0.128944
-0.129349
-0.129848
-0.130427
-0.131075
-0.131783
-0.132542
-0.133347
-0.134192
-0.135074
-0.135988
-0.136935
-0.137911
-0.138914
-0.139945
-0.141003
-0.142085
-0.143192
-0.144322
-0.145474
-0.146646
-0.147836
-0.14904
-0.150256
-0.151479
-0.152702
-0.153922
-0.155124
-0.156309
-0.157448
-0.158554
-0.159561
-0.160528
-0.161287
-0.162054
-0.16236
-0.162935
-0.162354
-0.163102
-0.1607
-0.163097
-0.157845
-0.164067
-0.162244
0.0217467
-0.0186727
-0.00518774
-0.0443334
-0.0560519
-0.0862219
-0.106132
-0.130174
-0.150392
-0.170208
-0.18783
-0.203931
-0.21815
-0.230624
-0.241301
-0.250233
-0.257445
-0.262987
-0.266913
-0.269289
-0.270194
-0.269711
-0.267938
-0.264984
-0.260964
-0.256004
-0.250236
-0.243794
-0.236816
-0.229441
-0.221801
-0.214028
-0.206241
-0.198553
-0.191064
-0.18386
-0.177016
-0.170588
-0.164622
-0.159147
-0.154179
-0.149724
-0.145774
-0.142315
-0.139327
-0.13678
-0.134646
-0.132891
-0.131482
-0.130384
-0.129566
-0.128997
-0.128648
-0.128492
-0.128505
-0.128665
-0.128951
-0.129347
-0.129838
-0.13041
-0.131052
-0.131754
-0.132509
-0.13331
-0.134152
-0.135029
-0.135945
-0.136888
-0.137858
-0.138859
-0.139887
-0.14094
-0.14202
-0.143123
-0.14425
-0.145399
-0.146568
-0.147754
-0.148956
-0.150168
-0.151388
-0.152609
-0.153826
-0.155026
-0.15621
-0.157346
-0.158451
-0.159455
-0.160424
-0.161177
-0.161951
-0.162238
-0.16283
-0.162203
-0.162967
-0.160491
-0.16275
-0.157565
-0.162909
-0.161438
0.0204816
-0.0172858
-0.00363771
-0.042739
-0.0545618
-0.0849294
-0.104953
-0.129145
-0.149448
-0.16936
-0.18705
-0.203218
-0.217492
-0.230017
-0.240741
-0.249716
-0.25697
-0.262551
-0.266514
-0.268933
-0.269878
-0.269432
-0.267698
-0.264781
-0.260799
-0.255876
-0.250143
-0.243736
-0.236791
-0.229446
-0.221835
-0.214087
-0.206323
-0.198654
-0.191181
-0.183991
-0.177156
-0.170735
-0.164773
-0.159298
-0.154329
-0.149869
-0.145913
-0.142447
-0.13945
-0.136894
-0.134749
-0.132983
-0.131562
-0.130454
-0.129625
-0.129045
-0.128686
-0.12852
-0.128524
-0.128676
-0.128954
-0.129343
-0.129827
-0.130392
-0.131028
-0.131724
-0.132473
-0.133268
-0.134105
-0.134983
-0.135882
-0.136824
-0.137798
-0.138792
-0.139818
-0.140869
-0.141946
-0.143047
-0.144172
-0.145318
-0.146484
-0.147668
-0.148867
-0.150077
-0.151295
-0.152512
-0.153727
-0.154925
-0.156106
-0.15724
-0.158344
-0.159344
-0.160314
-0.161059
-0.161839
-0.162106
-0.162709
-0.162039
-0.162796
-0.160273
-0.162337
-0.157249
-0.161672
-0.160099
-0.0577328
-0.0510654
-0.0503625
-0.0479148
-0.0482458
-0.0488445
-0.0512706
-0.054854
-0.0602347
-0.0673885
-0.0768217
-0.0887452
-0.104004
-0.122679
-0.146565
-0.174624
-0.212321
-0.242106
-0.265826
-0.284751
-0.059657
-0.0531686
-0.0525702
-0.0502495
-0.0507058
-0.0514283
-0.0539873
-0.0577018
-0.0632167
-0.0704985
-0.0800479
-0.0920759
-0.10741
-0.126182
-0.150135
-0.178013
-0.215193
-0.238998
-0.263145
-0.270785
-0.0614806
-0.0552384
-0.0546976
-0.0525313
-0.0531018
-0.0539665
-0.0566708
-0.0605446
-0.0662302
-0.073694
-0.0834303
-0.0956578
-0.111171
-0.130109
-0.154021
-0.181209
-0.216199
-0.232954
-0.257482
-0.259252
-0.0632431
-0.0572729
-0.056779
-0.0547751
-0.0554511
-0.0564566
-0.0592978
-0.0633233
-0.0691666
-0.0767959
-0.0866948
-0.0990864
-0.114725
-0.133739
-0.157472
-0.183885
-0.216608
-0.228709
-0.253409
-0.248757
-0.0649582
-0.0592718
-0.0588249
-0.0569869
-0.0577622
-0.0589044
-0.0618715
-0.0660351
-0.0720152
-0.0797806
-0.0897998
-0.102294
-0.117975
-0.136945
-0.160344
-0.185923
-0.216328
-0.225792
-0.249491
-0.238441
-0.0666236
-0.0612372
-0.060833
-0.0591665
-0.060035
-0.0613124
-0.0643972
-0.0686906
-0.074793
-0.0826748
-0.0927848
-0.105338
-0.120999
-0.139829
-0.162755
-0.187413
-0.215354
-0.223536
-0.24503
-0.228543
-0.0682362
-0.0631721
-0.0628006
-0.0613131
-0.0622675
-0.0636802
-0.0668757
-0.0712934
-0.0775074
-0.0854909
-0.0956686
-0.108245
-0.123834
-0.142443
-0.164773
-0.188446
-0.213934
-0.221839
-0.24004
-0.219145
-0.0697954
-0.0650797
-0.0647271
-0.0634273
-0.0644588
-0.0660074
-0.0693061
-0.0738424
-0.0801567
-0.088227
-0.0984483
-0.111013
-0.126478
-0.144791
-0.166405
-0.189034
-0.21239
-0.220826
-0.234596
-0.210095
-0.0713013
-0.066964
-0.0666128
-0.0655102
-0.0666089
-0.068294
-0.0716875
-0.0763364
-0.0827384
-0.0908783
-0.101114
-0.113617
-0.128878
-0.14678
-0.167571
-0.189304
-0.211499
-0.221156
-0.229317
-0.200972
-0.0727545
-0.0688282
-0.0684568
-0.067561
-0.0687143
-0.070535
-0.0740122
-0.0787651
-0.0852402
-0.093434
-0.103669
-0.116121
-0.131251
-0.148926
-0.169133
-0.189963
-0.210514
-0.220177
-0.224186
-0.191904
-0.0313809
-0.0231322
-0.0212222
-0.0174307
-0.0163353
-0.0155455
-0.0164454
-0.0184983
-0.0222663
-0.0277988
-0.035646
-0.0460394
-0.0601967
-0.0779284
-0.103074
-0.132692
-0.178872
-0.233502
-0.301898
-0.354392
-0.034312
-0.0262455
-0.0244328
-0.0207974
-0.0198395
-0.0191993
-0.0202552
-0.022471
-0.0264084
-0.0321152
-0.0401355
-0.0507048
-0.0650076
-0.0829128
-0.108097
-0.13807
-0.183854
-0.239336
-0.301643
-0.35233
-0.0371658
-0.0292705
-0.0275529
-0.0240668
-0.0232545
-0.022775
-0.0240096
-0.0264198
-0.030574
-0.036521
-0.0448059
-0.0556774
-0.0702935
-0.088595
-0.114064
-0.14454
-0.189494
-0.243196
-0.295198
-0.344168
-0.039957
-0.0322316
-0.0306125
-0.0272727
-0.0266066
-0.0262864
-0.0276996
-0.0303033
-0.0346737
-0.0408597
-0.0494074
-0.0605776
-0.0754977
-0.0941721
-0.119852
-0.150657
-0.194508
-0.246025
-0.289196
-0.337483
-0.0426922
-0.0351371
-0.0336223
-0.0304268
-0.0299043
-0.0297369
-0.0313185
-0.0341007
-0.038666
-0.0450616
-0.0538311
-0.0652416
-0.0803832
-0.0993034
-0.125002
-0.155826
-0.198331
-0.247484
-0.283702
-0.330507
-0.0453713
-0.0379843
-0.0365803
-0.033526
-0.0331453
-0.0331241
-0.0348647
-0.0378111
-0.0425519
-0.0491296
-0.0580836
-0.0696811
-0.08497
-0.10402
-0.129569
-0.160128
-0.201085
-0.247312
-0.277896
-0.322127
-0.0479933
-0.0407695
-0.0394834
-0.0365658
-0.0363265
-0.0364453
-0.038338
-0.0414375
-0.0463389
-0.053078
-0.0621883
-0.0739327
-0.089313
-0.108404
-0.133675
-0.163734
-0.203015
-0.245592
-0.271761
-0.312676
-0.0505581
-0.0434905
-0.0423309
-0.0395444
-0.0394467
-0.0396995
-0.0417381
-0.0449802
-0.050029
-0.0569107
-0.0661523
-0.0780075
-0.0934288
-0.112479
-0.137349
-0.166678
-0.204259
-0.24254
-0.265366
-0.302744
-0.0530665
-0.0461456
-0.0451242
-0.0424613
-0.0425067
-0.0428861
-0.0450644
-0.0484379
-0.05362
-0.0606241
-0.0699701
-0.0818994
-0.0973147
-0.116259
-0.14066
-0.16912
-0.20507
-0.238101
-0.257745
-0.291809
-0.0555184
-0.0487332
-0.047864
-0.0453164
-0.0455073
-0.0460059
-0.0483184
-0.0518125
-0.0571146
-0.0642219
-0.0736464
-0.0856086
-0.100951
-0.11965
-0.14332
-0.170376
-0.204531
-0.232151
-0.250715
-0.277249
0.000896941
0.0112709
0.0140369
0.0195933
0.0221798
0.0246218
0.0255589
0.0255598
0.0240398
0.0209959
0.0159159
0.00864755
-0.00201533
-0.0154897
-0.0363514
-0.0586898
-0.102883
-0.137919
-0.247922
-0.304749
-0.00252699
0.00755662
0.0102823
0.0156176
0.0180704
0.0203267
0.0210773
0.0208553
0.019095
0.0157808
0.0103937
0.00277143
-0.00832401
-0.0223262
-0.0439001
-0.0672624
-0.112732
-0.150724
-0.255807
-0.308327
-0.00592839
0.00395211
0.00659022
0.0117463
0.0140264
0.0161144
0.0166473
0.0161727
0.0141221
0.0104715
0.00468466
-0.00341491
-0.0151052
-0.02985
-0.0523861
-0.0770877
-0.123765
-0.163572
-0.258901
-0.302548
-0.00928527
0.000401322
0.00294444
0.0079273
0.0100359
0.0119505
0.0122657
0.0115407
0.00920131
0.00521646
-0.000965852
-0.00953617
-0.021804
-0.0372704
-0.0606881
-0.086644
-0.134145
-0.175834
-0.263748
-0.304373
-0.0125911
-0.00311068
-0.000658666
0.00414861
0.00609618
0.00783552
0.00794547
0.00698709
0.00438312
9.63303e-05
-0.00643603
-0.0154155
-0.0281709
-0.0442387
-0.0683408
-0.0953065
-0.143252
-0.186926
-0.269604
-0.309113
-0.0158466
-0.00657804
-0.00421507
0.000416832
0.00221087
0.00377828
0.00369507
0.00251976
-0.000325934
-0.00488409
-0.0117242
-0.021056
-0.0342169
-0.0507764
-0.0753921
-0.103153
-0.151239
-0.196673
-0.274798
-0.313264
-0.0190528
-0.00999464
-0.00772075
-0.00326174
-0.00161655
-0.000216089
-0.000483022
-0.00186218
-0.00493175
-0.00973752
-0.0168527
-0.0264932
-0.0399956
-0.056963
-0.0819573
-0.110347
-0.158299
-0.20513
-0.27889
-0.316512
-0.0222096
-0.0133582
-0.0111736
-0.00688459
-0.00538411
-0.00414567
-0.00458772
-0.00615884
-0.00943606
-0.014468
-0.0218284
-0.0317386
-0.0455236
-0.0628245
-0.0880707
-0.116932
-0.164474
-0.212368
-0.282043
-0.318924
-0.0253164
-0.0166682
-0.0145729
-0.0104513
-0.00909112
-0.00800974
-0.00861789
-0.0103686
-0.0138364
-0.0190719
-0.0266461
-0.0367847
-0.0507904
-0.068349
-0.0937195
-0.122914
-0.169839
-0.218645
-0.28418
-0.319334
-0.0283732
-0.0199235
-0.0179168
-0.0139596
-0.0127344
-0.0118041
-0.0125678
-0.014484
-0.0181232
-0.0235372
-0.0312905
-0.0416129
-0.0557717
-0.0735027
-0.098847
-0.128141
-0.173986
-0.223068
-0.2847
-0.320318
0.032904
0.0458441
0.0493094
0.0567813
0.0608558
0.0656987
0.0689175
0.0715997
0.0731028
0.0735211
0.0724898
0.0699566
0.0654113
0.0593427
0.0503609
0.0429767
0.0306376
0.0382331
0.0237493
0.121964
0.0286855
0.0418564
0.0448235
0.0522115
0.0558592
0.0602672
0.0629186
0.0649613
0.065691
0.065208
0.0631132
0.0593566
0.0533532
0.0456636
0.0345088
0.0249595
0.00823338
0.0134879
-0.0126597
0.0897515
0.025214
0.0382458
0.0410236
0.0482664
0.0517068
0.0558536
0.0582362
0.0599941
0.0604072
0.0595812
0.0570992
0.0529057
0.046311
0.0378999
0.0253362
0.0140401
-0.00750087
-0.00645428
-0.0475643
0.0550127
0.022154
0.0348537
0.0376261
0.0446926
0.0480071
0.0519718
0.0541774
0.0557416
0.0559369
0.0548671
0.0520904
0.0475337
0.0403978
0.0312569
0.0172874
0.00410412
-0.0218669
-0.0256475
-0.0781097
0.0208516
0.0191323
0.0314924
0.0342722
0.0411524
0.0443357
0.0481128
0.0501221
0.0514573
0.0513844
0.0499995
0.0468329
0.0417938
0.033983
0.0239767
0.0085355
-0.00651085
-0.036453
-0.0447908
-0.106251
-0.014255
0.0160713
0.0281196
0.0308814
0.0375685
0.0406135
0.0441824
0.0459786
0.0470604
0.0466934
0.0449634
0.0413778
0.0358338
0.0273463
0.0165091
-0.000289324
-0.0170039
-0.0505197
-0.0633083
-0.133579
-0.0510126
0.0130139
0.0247572
0.0274944
0.0339806
0.0368973
0.0402488
0.0418402
0.042676
0.0420309
0.0399789
0.0360112
0.0300167
0.0209365
0.00938414
-0.00858721
-0.0267701
-0.0634716
-0.0807834
-0.160038
-0.0894924
0.0099922
0.0214217
0.0241438
0.0304199
0.033226
0.0363581
0.0377626
0.0383692
0.0374725
0.0351316
0.0308276
0.024441
0.0148506
0.00268397
-0.0162917
-0.035774
-0.0752038
-0.0969338
-0.184691
-0.130091
0.00701115
0.0181145
0.0208356
0.0268912
0.029605
0.0325152
0.0337488
0.0341398
0.0330124
0.0304076
0.0258011
0.0190642
0.00902708
-0.00367771
-0.0234989
-0.0441204
-0.0857344
-0.11162
-0.206707
-0.173047
0.00406727
0.0148318
0.0175695
0.0233937
0.0260359
0.0287213
0.0298013
0.0299921
0.0286569
0.025816
0.0209457
0.0139076
0.00350119
-0.00964362
-0.0301082
-0.0516273
-0.0947441
-0.123762
-0.223576
-0.221695
0.299015
0.298367
0.299565
0.298631
0.300616
0.299464
0.302745
0.301398
0.306931
0.305531
0.3152
0.314138
0.331794
0.331999
0.366101
0.369495
0.440508
0.448842
0.605073
0.566486
0.299013
0.29836
0.299558
0.29863
0.300606
0.299466
0.302729
0.301407
0.30691
0.305558
0.315176
0.314212
0.331768
0.33218
0.366041
0.369839
0.440085
0.448454
0.601512
0.547379
0.29901
0.298353
0.299551
0.298628
0.300595
0.299466
0.302713
0.301415
0.30689
0.305587
0.315154
0.314294
0.33175
0.332382
0.366001
0.37024
0.439681
0.448204
0.597675
0.530319
0.299007
0.298345
0.299543
0.298626
0.300582
0.299465
0.302696
0.30142
0.306866
0.305609
0.315124
0.31436
0.331712
0.332545
0.365909
0.37053
0.439112
0.447592
0.593232
0.51232
0.299004
0.298336
0.299535
0.298623
0.300569
0.299464
0.302676
0.301423
0.306838
0.305626
0.315086
0.314414
0.331656
0.332678
0.36577
0.370731
0.438378
0.446651
0.588061
0.492985
0.299001
0.298327
0.299526
0.29862
0.300555
0.299461
0.302654
0.301423
0.306806
0.305638
0.315039
0.314456
0.331581
0.332785
0.365584
0.370851