/*--------------------------------*- C++ -*----------------------------------*\
  =========                 |
  \\      /  F ield         | OpenFOAM: The Open Source CFD Toolbox
   \\    /   O peration     | Website:  https://openfoam.org
    \\  /    A nd           | Version:  7
     \\/     M anipulation  |
\*---------------------------------------------------------------------------*/
FoamFile
{
    version     2.0;
    format      ascii;
    class       surfaceScalarField;
    location    "48";
    object      phi;
}
// * * * * * * * * * * * * * * * * * * * * * * * * * * * * * * * * * * * * * //

dimensions      [0 3 -1 0 0 0 0];

internalField   nonuniform List<scalar> 
22080
(
0.000107024
0.00132426
-0.00143656
0.000248548
0.00170885
-0.00185037
0.00038607
0.00146169
-0.00159922
0.000507994
0.00126323
-0.00138515
0.000609823
0.00102335
-0.00112518
0.000699887
0.000874305
-0.000964368
0.000776662
0.000731453
-0.000808228
0.0008441
0.000629593
-0.000697031
0.000902252
0.000536369
-0.000594521
0.00095273
0.000460206
-0.000510684
0.000996077
0.000391523
-0.00043487
0.00103305
0.000330887
-0.00036786
0.00106413
0.000275556
-0.00030664
0.00108978
0.000224869
-0.000250517
0.00111035
0.00017778
-0.000198347
0.00112614
0.00013373
-0.000149522
0.00113742
9.22128e-05
-0.000103489
0.00114441
5.29106e-05
-5.98988e-05
0.00114731
1.55742e-05
-1.84797e-05
0.00114633
-1.9971e-05
2.09559e-05
0.00114163
-5.37855e-05
5.84793e-05
0.00113342
-8.58612e-05
9.40787e-05
0.00112187
-0.00011619
0.000127741
0.00110718
-0.000144698
0.000159383
0.00108957
-0.000171281
0.000188888
0.00106927
-0.00019582
0.000216125
0.0010465
-0.000218185
0.00024095
0.00102153
-0.000238247
0.000263217
0.000994625
-0.000255878
0.000282785
0.000966061
-0.000270962
0.000299526
0.000936133
-0.000283402
0.00031333
0.00090514
-0.000293119
0.000324112
0.000873388
-0.000300067
0.000331819
0.000841183
-0.000304227
0.000336432
0.00080883
-0.000305618
0.000337971
0.000776627
-0.000304296
0.000336499
0.000744861
-0.000300356
0.000332122
0.000713803
-0.000293932
0.00032499
0.000683703
-0.000285198
0.000315298
0.00065479
-0.000274365
0.000303278
0.000627262
-0.000261672
0.000289199
0.000601291
-0.000247387
0.000273358
0.000577013
-0.000231797
0.000256075
0.000554532
-0.000215204
0.000237685
0.000533917
-0.000197915
0.000218529
0.000515205
-0.000180234
0.000198946
0.000498398
-0.00016246
0.000179267
0.000483468
-0.000144874
0.000159804
0.000470358
-0.000127737
0.000140848
0.000458984
-0.000111286
0.000122659
0.000449242
-9.57228e-05
0.000105465
0.000441008
-8.12189e-05
8.94527e-05
0.000434146
-6.79059e-05
7.47685e-05
0.000428508
-5.58762e-05
6.15135e-05
0.000423946
-4.51811e-05
4.97432e-05
0.00042031
-3.58327e-05
3.9469e-05
0.000417455
-2.78041e-05
3.06592e-05
0.000415245
-2.10359e-05
2.32458e-05
0.000413555
-1.5442e-05
1.71314e-05
0.000412275
-1.09171e-05
1.21976e-05
0.000411306
-7.34351e-06
8.31289e-06
0.000410564
-4.59934e-06
5.34129e-06
0.000409979
-2.56035e-06
3.14544e-06
0.000409492
-1.10701e-06
1.59383e-06
0.000409056
-1.46224e-07
5.8154e-07
0.000408642
4.11587e-07
3.17812e-09
0.000408206
6.46307e-07
-2.10677e-07
0.000407732
6.2332e-07
-1.49114e-07
0.000407198
3.8502e-07
1.49035e-07
0.000406578
-3.31165e-08
6.52332e-07
0.000405865
-6.21503e-07
1.33466e-06
0.000405037
-1.36808e-06
2.19666e-06
0.000404076
-2.2817e-06
3.24226e-06
0.000402964
-3.37332e-06
4.4855e-06
0.000401678
-4.66165e-06
5.9474e-06
0.000400194
-6.17479e-06
7.65924e-06
0.000398482
-7.94724e-06
9.65892e-06
0.00039651
-1.00244e-05
1.19965e-05
0.00039424
-1.24541e-05
1.47245e-05
0.000391626
-1.5306e-05
1.79196e-05
0.000388618
-1.86442e-05
2.16523e-05
0.000385154
-2.25821e-05
2.60466e-05
0.000381162
-2.71999e-05
3.11915e-05
0.000376555
-3.26998e-05
3.73069e-05
0.000371234
-3.91663e-05
4.44872e-05
0.000365067
-4.6996e-05
5.31633e-05
0.000357914
-5.62193e-05
6.33717e-05
0.000349566
-6.76837e-05
7.60315e-05
0.000339828
-8.11835e-05
9.09221e-05
0.000328339
-9.85985e-05
0.000110087
0.000314836
-0.000119116
0.000132619
0.000298667
-0.00014652
0.000162689
0.000279469
-0.000179778
0.000198976
0.00025616
-0.000222931
0.000246241
0.000227886
-0.00028285
0.000311124
0.000194081
-0.00034342
0.000377225
0.000150571
-0.000456894
0.000500405
0.00010466
-0.000501568
0.000547479
4.20186e-05
-0.00060825
0.000670891
-0.000418072
0.000460091
9.73891e-05
0.00120587
0.000248452
0.00155779
0.00039291
0.00131724
0.000519502
0.00113663
0.000624574
0.000918283
0.000716442
0.000782437
0.000794474
0.000653421
0.000862598
0.000561468
0.000921189
0.000477778
0.000971884
0.000409512
0.00101532
0.000348089
0.00105227
0.000293931
0.00108327
0.000244562
0.00110877
0.000199368
0.00112914
0.000157405
0.00114471
0.000118167
0.00115572
8.11964e-05
0.00116243
4.62081e-05
0.00116502
1.29763e-05
0.00116371
-1.86597e-05
0.00115868
-4.87487e-05
0.0011501
-7.72867e-05
0.00113818
-0.000104269
0.00112311
-0.000129632
0.00110511
-0.000153281
0.00108441
-0.000175111
0.00106123
-0.000195009
0.00103584
-0.000212857
0.0010085
-0.000228543
0.000979507
-0.000241965
0.000949139
-0.000253034
0.000917701
-0.000261682
0.000885501
-0.000267866
0.000852845
-0.000271571
0.00082004
-0.000272813
0.000787384
-0.00027164
0.000755166
-0.000268137
0.000723658
-0.000262424
0.000693113
-0.000254654
0.000663761
-0.000245012
0.000635802
-0.000233714
0.00060941
-0.000220995
0.000584724
-0.000207111
0.000561849
-0.000192329
0.000540857
-0.000176923
0.000521787
-0.000161163
0.000504642
-0.000145315
0.000489396
-0.000129628
0.000475994
-0.000114336
0.000464356
-9.96469e-05
0.000454377
-8.57437e-05
0.000445935
-7.27774e-05
0.000438895
-6.08661e-05
0.000433112
-5.00929e-05
0.000428436
-4.05048e-05
0.000424717
-3.21136e-05
0.000421809
-2.48969e-05
0.000419577
-1.88033e-05
0.000417892
-1.37575e-05
0.000416642
-9.66703e-06
0.000415727
-6.42793e-06
0.00041506
-3.93216e-06
0.000414568
-2.06865e-06
0.000414191
-7.30107e-07
0.000413881
1.63545e-07
0.000413601
6.9215e-07
0.000413315
9.31449e-07
0.000412999
9.39522e-07
0.00041263
7.54092e-07
0.000412193
4.04099e-07
0.000411662
-9.04988e-08
0.000411028
-7.34387e-07
0.00041027
-1.52346e-06
0.000409369
-2.4719e-06
0.000408302
-3.59503e-06
0.000407045
-4.91779e-06
0.000405569
-6.47121e-06
0.00040384
-8.296e-06
0.000401821
-1.04349e-05
0.000399466
-1.29505e-05
0.000396722
-1.59002e-05
0.000393526
-1.9386e-05
0.000389805
-2.34798e-05
0.00038547
-2.83641e-05
0.000380417
-3.41135e-05
0.000374509
-4.1088e-05
0.000367601
-4.93118e-05
0.000359473
-5.9555e-05
0.000349917
-7.16276e-05
0.000338552
-8.72335e-05
0.000325088
-0.000105652
0.000308836
-0.000130268
0.000289355
-0.000160297
0.000265534
-0.00019911
0.000236248
-0.000253564
0.000201043
-0.000308215
0.000155212
-0.000411063
0.000106393
-0.000452749
4.24394e-05
-0.000544296
-0.000375633
8.6688e-05
0.00108005
0.000248367
0.00139611
0.000398897
0.00116671
0.000530027
0.0010055
0.000637987
0.000810324
0.000731616
0.000688808
0.00081075
0.000574287
0.000879515
0.000492704
0.000938475
0.000418818
0.000989349
0.000358637
0.00103284
0.000304601
0.00106976
0.000257011
0.00110065
0.000213671
0.00112599
0.000174021
0.00114618
0.000137224
0.00116151
0.000102829
0.00117228
7.04308e-05
0.00117871
3.97779e-05
0.00118102
1.06688e-05
0.0011794
-1.70421e-05
0.00117404
-4.33924e-05
0.00116514
-6.83811e-05
0.00115288
-9.20074e-05
0.00113746
-0.000114214
0.0011191
-0.000134921
0.00109802
-0.000154036
0.00107447
-0.000171458
0.0010487
-0.000187086
0.00102098
-0.000200822
0.000991592
-0.000212576
0.000960828
-0.00022227
0.000928991
-0.000229845
0.000896387
-0.000235263
0.000863327
-0.000238511
0.000830116
-0.000239601
0.000797054
-0.000238578
0.00076443
-0.000235514
0.000732519
-0.000230513
0.000701576
-0.00022371
0.000671829
-0.000215266
0.000643485
-0.000205369
0.000616714
-0.000194225
0.000591661
-0.000182057
0.000568431
-0.0001691
0.000547099
-0.000155591
0.000527704
-0.000141769
0.000510253
-0.000127864
0.000494721
-0.000114096
0.000481055
-0.00010067
0.000469176
-8.77671e-05
0.00045898
-7.5548e-05
0.000450348
-6.41453e-05
0.000443145
-5.36629e-05
0.000437226
-4.41742e-05
0.000432442
-3.57213e-05
0.000428644
-2.83154e-05
0.000425685
-2.1938e-05
0.000423428
-1.65455e-05
0.000421743
-1.20729e-05
0.000420516
-8.43997e-06
0.000419644
-5.55642e-06
0.00041904
-3.32805e-06
0.000418628
-1.65688e-06
0.000418346
-4.47697e-07
0.000418147
3.63e-07
0.000417985
8.53253e-07
0.00041783
1.08725e-06
0.000417653
1.11659e-06
0.000417432
9.74731e-07
0.000417148
6.88555e-07
0.000416784
2.72615e-07
0.00041632
-2.70047e-07
0.00041574
-9.43732e-07
0.000415025
-1.75642e-06
0.000414152
-2.72182e-06
0.000413095
-3.8616e-06
0.000411828
-5.20332e-06
0.000410314
-6.78284e-06
0.000408517
-8.63772e-06
0.00040639
-1.08233e-05
0.00040388
-1.33899e-05
0.000400922
-1.6428e-05
0.000397442
-2.00004e-05
0.000393347
-2.42692e-05
0.000388533
-2.92994e-05
0.000382857
-3.54113e-05
0.000376169
-4.26237e-05
0.000368237
-5.16231e-05
0.000358847
-6.22381e-05
0.000347596
-7.59827e-05
0.000334176
-9.22322e-05
0.00031786
-0.000113952
0.000298141
-0.000140579
0.000273885
-0.000174854
0.000243732
-0.000223411
0.000207325
-0.000271808
0.000159548
-0.000363286
0.000108212
-0.000401414
4.31569e-05
-0.00047924
-0.000332476
7.5445e-05
0.000946119
0.000248172
0.00122338
0.000404134
0.00101075
0.000539427
0.000870209
0.000650012
0.000699739
0.000745244
0.000593576
0.000825368
0.000494163
0.000894696
0.000423375
0.00095397
0.000359544
0.00100499
0.00030762
0.0010485
0.000261085
0.00108537
0.000220143
0.00111615
0.000182889
0.00114135
0.000148827
0.00116134
0.000117229
0.00117647
8.77041e-05
0.001187
5.99001e-05
0.00119318
3.35999e-05
0.00119522
8.62843e-06
0.00119332
-1.51444e-05
0.00118767
-3.77455e-05
0.00117847
-5.91761e-05
0.0011659
-7.94378e-05
0.00115016
-9.84823e-05
0.00113148
-0.00011624
0.00111008
-0.000132633
0.0010862
-0.000147574
0.00106009
-0.000160977
0.00103202
-0.000172758
0.00100229
-0.00018284
0.000971173
-0.000191155
0.000938983
-0.000197655
0.000906025
-0.000202304
0.000872607
-0.000205093
0.000839038
-0.000206032
0.000805617
-0.000205158
0.000772637
-0.000202533
0.00074037
-0.000198247
0.000709074
-0.000192414
0.00067898
-0.000185172
0.000650293
-0.000176681
0.000623188
-0.00016712
0.000597808
-0.000156677
0.000574263
-0.000145555
0.000552628
-0.000133956
0.000532944
-0.000122085
0.00051522
-0.00011014
0.000499433
-9.83089e-05
0.00048553
-8.67667e-05
0.000473433
-7.56705e-05
0.000463042
-6.51572e-05
0.000454238
-5.5341e-05
0.000446886
-4.63113e-05
0.000440844
-3.81317e-05
0.000435961
-3.08389e-05
0.000432089
-2.44431e-05
0.000429081
-1.89296e-05
0.000426797
-1.42615e-05
0.000425108
-1.03842e-05
0.000423898
-7.22948e-06
0.000423061
-4.7203e-06
0.00042251
-2.77631e-06
0.000422165
-1.31267e-06
0.000421965
-2.47154e-07
0.000421858
4.70284e-07
0.0004218
9.1097e-07
0.000421756
1.13085e-06
0.0004217
1.17321e-06
0.000421607
1.06751e-06
0.000421458
8.37076e-07
0.000421237
4.94253e-07
0.000420921
4.56465e-08
0.000420497
-5.19768e-07
0.000419943
-1.20259e-06
0.000419238
-2.01689e-06
0.000418357
-2.98025e-06
0.00041727
-4.11674e-06
0.000415945
-5.45731e-06
0.000414341
-7.03426e-06
0.000412414
-8.89538e-06
0.000410108
-1.1084e-05
0.000407358
-1.36782e-05
0.00040409
-1.67321e-05
0.000400207
-2.03863e-05
0.000395603
-2.46958e-05
0.000390131
-2.99392e-05
0.000383638
-3.61309e-05
0.000375883
-4.38681e-05
0.000366646
-5.30005e-05
0.000355504
-6.48407e-05
0.000342132
-7.88607e-05
0.000325777
-9.75965e-05
0.00030587
-0.000120672
0.000281266
-0.00015025
0.000250392
-0.000192537
0.000212985
-0.000234401
0.000163592
-0.000313893
0.000110069
-0.00034789
4.39546e-05
-0.000413126
-0.000288521
6.42251e-05
0.000803947
0.000247867
0.00103974
0.000408621
0.000849991
0.000547633
0.000731197
0.000660542
0.000586831
0.000757195
0.000496923
0.000838187
0.000413172
0.000908
0.000353562
0.000967537
0.000300007
0.00101866
0.000256493
0.00106219
0.000217558
0.001099
0.000183335
0.00112967
0.000152216
0.00115472
0.000123778
0.00117454
9.74081e-05
0.00118947
7.27744e-05
0.00119979
4.95817e-05
0.00120574
2.76481e-05
0.00120754
6.82562e-06
0.0012054
-1.29988e-05
0.0011995
-3.18425e-05
0.00119003
-4.97081e-05
0.00117719
-6.65991e-05
0.00116118
-8.24755e-05
0.00114222
-9.72795e-05
0.00112053
-0.000110945
0.00109636
-0.000123401
0.00106996
-0.000134576
0.0010416
-0.000144398
0.00101157
-0.000152805
0.000980149
-0.000159739
0.000947655
-0.00016516
0.00091439
-0.000169039
0.000880664
-0.000171368
0.000846786
-0.000172154
0.000813057
-0.000171429
0.000779767
-0.000169244
0.000747194
-0.000165673
0.000715592
-0.000160812
0.000685197
-0.000154776
0.000656212
-0.000147697
0.000628816
-0.000139724
0.000603153
-0.000131014
0.000579333
-0.000121735
0.000557434
-0.000112057
0.000537497
-0.000102149
0.000519534
-9.21763e-05
0.000503522
-8.22966e-05
0.00048941
-7.2655e-05
0.000477122
-6.33826e-05
0.000466559
-5.45938e-05
0.000457601
-4.63837e-05
0.000450117
-3.88273e-05
0.000443964
-3.1978e-05
0.000438992
-2.58668e-05
0.000435051
-2.05029e-05
0.000431996
-1.58743e-05
0.000429686
-1.19513e-05
0.000427991
-8.68869e-06
0.000426791
-6.03016e-06
0.000425983
-3.91187e-06
0.000425474
-2.26717e-06
0.000425186
-1.02465e-06
0.000425053
-1.14659e-07
0.000425024
4.99086e-07
0.000425053
8.81885e-07
0.000425105
1.07943e-06
0.00042515
1.1276e-06
0.000425166
1.05147e-06
0.000425133
8.70625e-07
0.000425031
5.96359e-07
0.000424845
2.31435e-07
0.000424552
-2.26625e-07
0.000424136
-7.8676e-07
0.000423575
-1.45557e-06
0.000422843
-2.24818e-06
0.000421911
-3.18512e-06
0.000420746
-4.2923e-06
0.000419308
-5.59672e-06
0.000417552
-7.13842e-06
0.000415421
-8.95355e-06
0.000412851
-1.11078e-05
0.000409765
-1.3646e-05
0.000406065
-1.66866e-05
0.000401644
-2.0275e-05
0.000396351
-2.46458e-05
0.00039003
-2.981e-05
0.000382432
-3.62708e-05
0.000373333
-4.39008e-05
0.000362295
-5.3803e-05
0.000348979
-6.55443e-05
0.00033261
-8.1228e-05
0.000312564
-0.000100626
0.0002877
-0.000125386
0.000256247
-0.000161084
0.000218041
-0.000196195
0.000167339
-0.000263191
0.00011196
-0.000292511
4.48649e-05
-0.000346031
-0.000243656
5.36211e-05
0.000653951
0.000247483
0.000845876
0.000412351
0.000685123
0.000554574
0.000588974
0.000669474
0.000471931
0.000767345
0.000399051
0.000849074
0.000331444
0.000919294
0.000283342
0.000979044
0.000240257
0.00103025
0.000205284
0.00107378
0.000174034
0.00111053
0.000146586
0.0011411
0.000121644
0.00116602
9.886e-05
0.00118568
7.77397e-05
0.00120044
5.80148e-05
0.00121058
3.9447e-05
0.00121634
2.18905e-05
0.00121794
5.22561e-06
0.00121558
-1.06424e-05
0.00120946
-2.57225e-05
0.00119977
-4.00181e-05
0.0011867
-5.3534e-05
0.00117047
-6.62382e-05
0.00115127
-7.80844e-05
0.00112935
-8.902e-05
0.00110493
-9.8988e-05
0.00107829
-0.000107931
0.00104968
-0.000115792
0.0010194
-0.00012252
0.00098773
-0.000128071
0.000954981
-0.000132412
0.000921461
-0.000135519
0.000887478
-0.000137385
0.000853342
-0.000138018
0.000819354
-0.000137441
0.000785806
-0.000135696
0.000752974
-0.000132842
0.000721116
-0.000128954
0.000690466
-0.000124126
0.000661231
-0.000118462
0.000633589
-0.000112081
0.000607685
-0.00010511
0.000583631
-9.76815e-05
0.000561506
-8.99318e-05
0.000541354
-8.19966e-05
0.000523186
-7.4008e-05
0.000506981
-6.60916e-05
0.00049269
-5.83639e-05
0.000480237
-5.09299e-05
0.000469524
-4.3881e-05
0.000460434
-3.72937e-05
0.000452835
-3.12279e-05
0.000446584
-2.57268e-05
0.000441532
-2.08156e-05
0.000437531
-1.65018e-05
0.000434433
-1.27763e-05
0.000432097
-9.61567e-06
0.000430393
-6.98429e-06
0.0004292
-4.83741e-06
0.000428413
-3.12414e-06
0.000427937
-1.79148e-06
0.000427694
-7.81398e-07
0.000427617
-3.81342e-08
0.000427652
4.64172e-07
0.000427753
7.81326e-07
0.000427882
9.49679e-07
0.000428012
9.97548e-07
0.000428118
9.45396e-07
0.00042818
8.09011e-07
0.000428179
5.97342e-07
0.000428097
3.13402e-07
0.000427915
-4.43591e-08
0.000427614
-4.85869e-07
0.000427172
-1.01364e-06
0.000426564
-1.64044e-06
0.000425762
-2.38267e-06
0.000424731
-3.26126e-06
0.000423432
-4.29784e-06
0.000421818
-5.52457e-06
0.000419835
-6.97039e-06
0.000417415
-8.6881e-06
0.000414483
-1.07136e-05
0.000410938
-1.31421e-05
0.000406673
-1.60098e-05
0.000401533
-1.95058e-05
0.000395361
-2.36379e-05
0.000387903
-2.88123e-05
0.000378927
-3.49255e-05
0.000367989
-4.28648e-05
0.000354734
-5.22897e-05
0.000338377
-6.48709e-05
0.000318241
-8.04897e-05
0.000293201
-0.000100345
0.000261311
-0.000129195
0.000222504
-0.000157388
0.000170787
-0.000211474
0.000113897
-0.000235621
4.59233e-05
-0.000278058
-0.000197733
4.42219e-05
0.000497047
0.000247066
0.000643032
0.000415316
0.000516873
0.000560184
0.000444106
0.000676712
0.000355403
0.000775581
0.000300182
0.000857908
0.000249117
0.000928454
0.000212795
0.000988372
0.000180339
0.00103964
0.000154015
0.00108316
0.000130517
0.00111985
0.000109892
0.00115034
9.11582e-05
0.00117515
7.40515e-05
0.00119469
5.8198e-05
0.00120931
4.33948e-05
0.00121929
2.94619e-05
0.00122489
1.62902e-05
0.00122633
3.7888e-06
0.0012238
-8.11665e-06
0.00121751
-1.94289e-05
0.00120764
-3.01511e-05
0.0011944
-4.0289e-05
0.00117798
-4.98181e-05
0.0011586
-5.87038e-05
0.00113649
-6.69067e-05
0.00111188
-7.4384e-05
0.00108504
-8.10924e-05
0.00105624
-8.69901e-05
0.00102576
-9.20384e-05
0.000993892
-9.62042e-05
0.000960942
-9.94619e-05
0.000927219
-0.000101795
0.000893031
-0.000103198
0.000858689
-0.000103675
0.000824494
-0.000103246
0.000790738
-0.00010194
0.000757698
-9.98021e-05
0.000725633
-9.6889e-05
0.000694777
-9.32696e-05
0.000665338
-8.90232e-05
0.000637494
-8.4238e-05
0.000611394
-7.90091e-05
0.000587148
-7.34363e-05
0.000564838
-6.76214e-05
0.000544508
-6.16663e-05
0.00052617
-5.56699e-05
0.000509804
-4.97264e-05
0.000495364
-4.39233e-05
0.000482773
-3.83393e-05
0.000471935
-3.3043e-05
0.000462733
-2.80917e-05
0.000455036
-2.35308e-05
0.000448702
-1.93925e-05
0.000443582
-1.56962e-05
0.000439528
-1.24476e-05
0.000436392
-9.63995e-06
0.000434032
-7.25617e-06
0.000432318
-5.26971e-06
0.000431128
-3.64722e-06
0.000430354
-2.35069e-06
0.000429903
-1.3406e-06
0.000429695
-5.73245e-07
0.000429661
-4.16294e-09
0.000429747
3.788e-07
0.000429903
6.24517e-07
0.000430095
7.57916e-07
0.000430292
8.00431e-07
0.00043047
7.67651e-07
0.000430608
6.71419e-07
0.000430686
5.18459e-07
0.000430689
3.1115e-07
0.000430595
4.89894e-08
0.000430386
-2.76287e-07
0.00043004
-6.67521e-07
0.000429532
-1.13244e-06
0.000428833
-1.68404e-06
0.00042791
-2.3381e-06
0.000426723
-3.11086e-06
0.000425225
-4.02651e-06
0.000423361
-5.10672e-06
0.000421064
-6.39123e-06
0.000418258
-7.90687e-06
0.000414841
-9.72532e-06
0.000410704
-1.18735e-05
0.000405693
-1.4494e-05
0.000399647
-1.7592e-05
0.000392308
-2.14738e-05
0.000383444
-2.60611e-05
0.0003726
-3.2021e-05
0.000359413
-3.91029e-05
0.000343091
-4.85487e-05
0.000322914
-6.0313e-05
0.000297779
-7.52101e-05
0.000265591
-9.7007e-05
0.000226378
-0.000118175
0.00017393
-0.000159025
0.000115877
-0.000177569
4.71444e-05
-0.000209324
-0.000150589
3.6578e-05
0.000334582
0.000246666
0.000432944
0.000417507
0.000346032
0.000564402
0.000297211
0.000682173
0.000237632
0.000781804
0.000200551
0.000864587
0.000166334
0.000935379
0.000142003
0.000995421
0.000120297
0.00104673
0.000102702
0.00109024
8.7009e-05
0.00112689
7.32399e-05
0.00115731
6.07388e-05
0.00118204
4.9326e-05
0.00120149
3.87515e-05
0.001216
2.8879e-05
0.00122588
1.95879e-05
0.00123136
1.08058e-05
0.00123268
2.47165e-06
0.00123003
-5.46711e-06
0.00122361
-1.30087e-05
0.00121361
-2.01555e-05
0.00120024
-2.69134e-05
0.00118368
-3.32657e-05
0.00116417
-3.9189e-05
0.00114192
-4.46573e-05
0.00111718
-4.9642e-05
0.0010902
-5.41145e-05
0.00106126
-5.80467e-05
0.00103063
-6.1413e-05
0.000998618
-6.41913e-05
0.00096552
-6.63646e-05
0.000931647
-6.79218e-05
0.000897308
-6.88589e-05
0.000862813
-6.91797e-05
0.000828463
-6.88959e-05
0.000794551
-6.80281e-05
0.000761355
-6.66057e-05
0.000729132
-6.46665e-05
0.000698119
-6.22563e-05
0.000668524
-5.94278e-05
0.000640526
-5.62399e-05
0.000614272
-5.27557e-05
0.000589878
-4.90418e-05
0.000567422
-4.5166e-05
0.000546952
-4.1196e-05
0.00052848
-3.71979e-05
0.000511988
-3.32344e-05
0.000497428
-2.93637e-05
0.000484727
-2.56384e-05
0.000473789
-2.21042e-05
0.000464496
-1.87994e-05
0.00045672
-1.57541e-05
0.000450317
-1.29901e-05
0.000445142
-1.05204e-05
0.000441043
-8.34865e-06
0.000437873
-6.47059e-06
0.000435492
-4.87493e-06
0.000433767
-3.54416e-06
0.000432576
-2.45614e-06
0.00043181
-1.58558e-06
0.000431376
-9.06374e-07
0.000431192
-3.88639e-07
0.000431191
-3.22625e-09
0.000431312
2.57505e-07
0.00043151
4.2623e-07
0.000431748
5.20145e-07
0.000431995
5.53362e-07
0.000432226
5.36377e-07
0.000432421
4.77e-07
0.00043256
3.79619e-07
0.000432625
2.46103e-07
0.000432598
7.52506e-08
0.000432459
-1.36503e-07
0.000432185
-3.93595e-07
0.000431752
-7.00024e-07
0.000431133
-1.06428e-06
0.000430292
-1.49714e-06
0.00042919
-2.00943e-06
0.000427781
-2.6173e-06
0.000426009
-3.33517e-06
0.000423808
-4.18954e-06
0.000421099
-5.19821e-06
0.000417783
-6.40902e-06
0.000413749
-7.8397e-06
0.000408841
-9.58554e-06
0.000402898
-1.16496e-05
0.000395661
-1.42366e-05
0.000386894
-1.72939e-05
0.000376139
-2.12663e-05
0.000363026
-2.59897e-05
0.000346761
-3.22836e-05
0.00032659
-4.01427e-05
0.00030144
-5.00592e-05
0.00026909
-6.46572e-05
0.000229664
-7.87493e-05
0.000176757
-0.000106119
0.000117897
-0.000118709
4.85383e-05
-0.000139965
-0.00010205
3.11618e-05
0.000168244
0.000246327
0.000217779
0.000418918
0.000173441
0.000567182
0.000148947
0.00068579
0.000119024
0.000785936
0.000100404
0.000869026
8.32448e-05
0.000939985
7.10439e-05
0.00100011
6.01708e-05
0.00105145
5.13597e-05
0.00109496
4.35048e-05
0.00113158
3.6615e-05
0.00116196
3.03611e-05
0.00118663
2.46528e-05
0.00120602
1.93645e-05
0.00122047
1.4428e-05
0.00123028
9.78268e-06
0.00123569
5.39236e-06
0.00123693
1.2277e-06
0.00123421
-2.74211e-06
0.00122771
-6.51128e-06
0.00121764
-1.00821e-05
0.00120418
-1.34593e-05
0.00118755
-1.66336e-05
0.00116796
-1.95935e-05
0.00114563
-2.23259e-05
0.0011208
-2.48168e-05
0.00109374
-2.70518e-05
0.00106471
-2.90169e-05
0.00103399
-3.06994e-05
0.00100189
-3.20882e-05
0.000968701
-3.31749e-05
0.000934733
-3.3954e-05
0.000900298
-3.44235e-05
0.000865704
-3.45852e-05
0.000831253
-3.4445e-05
0.000797238
-3.40132e-05
0.000763936
-3.33045e-05
0.000731608
-3.23376e-05
0.000700487
-3.11354e-05
0.000670783
-2.97243e-05
0.000642677
-2.81336e-05
0.000616316
-2.63948e-05
0.000591815
-2.45411e-05
0.000569256
-2.26063e-05
0.000548684
-2.06244e-05
0.000530114
-1.86281e-05
0.000513529
-1.6649e-05
0.000498881
-1.47159e-05
0.000486098
-1.28552e-05
0.000475083
-1.10898e-05
0.000465723
-9.43856e-06
0.000457885
-7.9167e-06
0.00045143
-6.53506e-06
0.00044621
-5.30024e-06
0.000442075
-4.21382e-06
0.000438878
-3.27378e-06
0.000436478
-2.47455e-06
0.000434741
-1.80737e-06
0.000433546
-1.2612e-06
0.000432784
-8.23411e-07
0.000432359
-4.81183e-07
0.00043219
-2.19505e-07
0.000432207
-2.08585e-08
0.000432352
1.12349e-07
0.000432578
2.00864e-07
0.000432846
2.52062e-07
0.000433126
2.73127e-07
0.000433393
2.69347e-07
0.000433626
2.44434e-07
0.000433805
2.00404e-07
0.000433913
1.37896e-07
0.000433932
5.68347e-08
0.000433838
-4.33949e-08
0.000433614
-1.69298e-07
0.000433233
-3.19292e-07
0.000432668
-4.98677e-07
0.000431884
-7.12902e-07
0.000430841
-9.67378e-07
0.000429494
-1.27019e-06
0.000427788
-1.62852e-06
0.000425654
-2.05556e-06
0.000423016
-2.56013e-06
0.000419773
-3.16605e-06
0.000415815
-3.88201e-06
0.000410985
-4.75558e-06
0.000405123
-5.78804e-06
0.000397969
-7.08164e-06
0.000389284
-8.60984e-06
0.000378613
-1.05947e-05
0.000365578
-1.29547e-05
0.000349391
-1.60969e-05
0.000329273
-2.00249e-05
0.000304184
-2.49696e-05
0.000271805
-3.22785e-05
0.000232357
-3.93018e-05
0.00017926
-5.30218e-05
0.000119954
-5.94024e-05
5.0122e-05
-7.01333e-05
-5.19282e-05
2.83253e-05
-5.26262e-08
0.000246084
2.02074e-08
0.000419544
-1.90909e-08
0.000568491
2.64826e-10
0.000687519
-4.34956e-09
0.000787924
-2.54662e-10
0.000871169
-7.17993e-10
0.000942213
-4.44418e-10
0.00100239
-9.31405e-10
0.00105375
-1.44431e-09
0.00109725
-1.94554e-09
0.00113387
-2.26341e-09
0.00116423
-2.30305e-09
0.00118889
-1.98222e-09
0.00120825
-1.25962e-09
0.00122268
-9.51756e-11
0.00123246
1.5161e-09
0.00123785
3.5527e-09
0.00123907
6.00111e-09
0.00123632
8.95861e-09
0.0012298
1.21582e-08
0.0012197
1.56745e-08
0.00120622
1.94361e-08
0.00118957
2.33679e-08
0.00116995
2.73867e-08
0.00114759
3.14047e-08
0.00112274
3.53287e-08
0.00109564
3.90707e-08
0.00106659
4.25385e-08
0.00103584
4.56421e-08
0.0010037
4.83034e-08
0.000970478
5.04415e-08
0.000936472
5.19908e-08
0.000901996
5.28837e-08
0.000867358
5.30793e-08
0.00083286
5.25454e-08
0.000798796
5.12553e-08
0.000765442
4.92122e-08
0.000733058
4.64316e-08
0.00070188
4.29402e-08
0.000672116
3.87787e-08
0.000643949
3.4001e-08
0.000617525
2.8668e-08
0.000592961
2.28507e-08
0.000570338
1.66203e-08
0.000549704
1.00619e-08
0.000531073
3.25763e-09
0.000514427
-3.6964e-09
0.000499722
-1.07017e-08
0.000486885
-1.76535e-08
0.000475819
-2.44417e-08
0.000466412
-3.09511e-08
0.000458532
-3.70641e-08
0.00045204
-4.26585e-08
0.000446787
-4.76126e-08
0.000442625
-5.18222e-08
0.000439406
-5.51905e-08
0.000436989
-5.76209e-08
0.000435241
-5.90517e-08
0.000434039
-5.94403e-08
0.000433275
-5.87577e-08
0.000432851
-5.74586e-08
0.000432686
-5.48953e-08
0.000432713
-4.78269e-08
0.000432869
-4.29997e-08
0.000433106
-3.6878e-08
0.000433389
-3.05514e-08
0.000433686
-2.34236e-08
0.000433971
-1.55867e-08
0.000434222
-7.48864e-09
0.000434422
4.55944e-10
0.000434553
7.48125e-09
0.000434595
1.4949e-08
0.000434528
2.3542e-08
0.000434329
2.93539e-08
0.000433976
3.38677e-08
0.00043344
3.75879e-08
0.000432687
4.01449e-08
0.000431678
4.14892e-08
0.000430366
4.15822e-08
0.000428697
4.04519e-08
0.000426603
3.81792e-08
0.000424008
3.48952e-08
0.000420811
3.07715e-08
0.000416903
2.60093e-08
0.000412127
2.08309e-08
0.000406324
1.54654e-08
0.000399232
1.01457e-08
0.000390617
5.08518e-09
0.000380022
4.86135e-10
0.00036707
-3.49304e-09
0.00035098
-6.72319e-09
0.000330965
-9.15074e-09
0.000306006
-1.07269e-08
0.000273739
-1.15158e-08
0.000234449
-1.16257e-08
0.000181438
-1.12113e-08
0.000122046
-1.0623e-08
5.19221e-05
-9.2797e-09
-6.10643e-09
0.000105364
0.00227867
-0.00237595
0.000189097
0.00275004
-0.00283377
0.000252411
0.00238779
-0.0024511
0.000321068
0.00216189
-0.00223055
0.000384037
0.00178666
-0.00184963
0.000445014
0.00158728
-0.00164826
0.000499434
0.00134452
-0.00139894
0.000549227
0.00118164
-0.00123143
0.000593393
0.00101616
-0.00106033
0.000632497
0.000881226
-0.000920331
0.000666752
0.000755545
-0.0007898
0.000696435
0.000643524
-0.000673207
0.000721807
0.000539979
-0.000565351
0.000743108
0.000444482
-0.000465783
0.000760548
0.000355168
-0.000372608
0.000774312
0.000271239
-0.000285003
0.000784565
0.00019183
-0.000202084
0.000791459
0.000116421
-0.000123314
0.000795136
4.4639e-05
-4.83157e-05
0.000795732
-2.3789e-05
2.31926e-05
0.000793384
-8.90096e-05
9.13578e-05
0.000788254
-0.000150883
0.000156013
0.000780493
-0.000209357
0.000217118
0.000770263
-0.000264284
0.000274514
0.000757743
-0.000315438
0.000327958
0.000743124
-0.00036257
0.000377189
0.000726611
-0.000405421
0.000421934
0.00070842
-0.000443727
0.000461918
0.000688779
-0.000477242
0.000496883
0.000667926
-0.00050574
0.000526593
0.000646105
-0.000529035
0.000550856
0.000623567
-0.000546989
0.000569527
0.000600563
-0.000559519
0.000582523
0.000577344
-0.000566608
0.000589827
0.000554156
-0.000568312
0.0005915
0.000531237
-0.000564763
0.000587682
0.000508813
-0.000556172
0.000578597
0.000487091
-0.000542831
0.000564553
0.000466261
-0.000525108
0.000545938
0.000446489
-0.00050344
0.000523212
0.000427915
-0.000478323
0.000496897
0.000410651
-0.000450305
0.000467568
0.000394782
-0.000419966
0.000435836
0.000380359
-0.000387913
0.000402336
0.000367405
-0.000354757
0.000367711
0.000355912
-0.000321104
0.000332597
0.000345842
-0.000287541
0.000297611
0.000337132
-0.000254622
0.000263332
0.000329693
-0.000222854
0.000230293
0.000323416
-0.000192688
0.000198965
0.000318173
-0.000164507
0.00016975
0.00031383
-0.000138618
0.000142962
0.000310243
-0.000115242
0.000118828
0.000307272
-9.45095e-05
9.74803e-05
0.000304782
-7.64659e-05
7.89559e-05
0.000302648
-6.10721e-05
6.32059e-05
0.00030076
-4.82111e-05
5.00996e-05
0.000299021
-3.7709e-05
3.94478e-05
0.000297353
-2.93495e-05
3.10181e-05
0.000295691
-2.28888e-05
2.45507e-05
0.000293986
-1.80744e-05
1.97793e-05
0.000292199
-1.46611e-05
1.64474e-05
0.000290303
-1.24125e-05
1.43092e-05
0.000288275
-1.11148e-05
1.3143e-05
0.000286099
-1.05901e-05
1.27652e-05
0.000283765
-1.06863e-05
1.30206e-05
0.000281261
-1.1289e-05
1.37931e-05
0.000278576
-1.23062e-05
1.49907e-05
0.000275701
-1.36815e-05
1.65574e-05
0.000272621
-1.53787e-05
1.84585e-05
0.000269323
-1.73839e-05
2.0682e-05
0.00026579
-1.97042e-05
2.32366e-05
0.000262005
-2.23591e-05
2.61442e-05
0.000257947
-2.53821e-05
2.94407e-05
0.000253591
-2.88175e-05
3.31725e-05
0.000248914
-3.27227e-05
3.73998e-05
0.000243887
-3.71641e-05
4.21914e-05
0.000238479
-4.22256e-05
4.76341e-05
0.000232655
-4.79978e-05
5.38217e-05
0.000226378
-5.46037e-05
6.08806e-05
0.000219606
-6.21665e-05
6.89382e-05
0.000212294
-7.08765e-05
7.81887e-05
0.00020439
-8.0896e-05
8.88003e-05
0.000195838
-9.25463e-05
0.000101098
0.000186574
-0.000106025
0.000115289
0.000176534
-0.000121924
0.000131964
0.000165639
-0.000140418
0.000151313
0.000153818
-0.000162699
0.00017452
0.000140985
-0.000188693
0.000201526
0.000127087
-0.000221007
0.000234905
0.000112073
-0.000258491
0.000273505
9.59263e-05
-0.000307189
0.000323336
7.89508e-05
-0.000362607
0.000379582
6.09462e-05
-0.000437322
0.000455327
4.40379e-05
-0.000521588
0.000538496
2.65732e-05
-0.000625128
0.000642592
1.71896e-05
-0.00075514
0.000764524
6.54139e-06
-0.000812495
0.000823143
5.85322e-06
-0.000970997
0.000971685
-0.000434046
0.0004399
0.000108232
0.00218176
0.000196288
0.00266198
0.000262223
0.00232186
0.000335095
0.00208902
0.00039913
0.00172263
0.000462237
0.00152417
0.000517428
0.00128933
0.000568221
0.00113085
0.00061293
0.000971451
0.000652544
0.000841612
0.000687132
0.000720957
0.000717073
0.000613583
0.000742613
0.000514439
0.000764019
0.000423075