/*--------------------------------*- C++ -*----------------------------------*\
  =========                 |
  \\      /  F ield         | OpenFOAM: The Open Source CFD Toolbox
   \\    /   O peration     | Website:  https://openfoam.org
    \\  /    A nd           | Version:  7
     \\/     M anipulation  |
\*---------------------------------------------------------------------------*/
FoamFile
{
    version     2.0;
    format      ascii;
    class       volVectorField;
    location    "48";
    object      U;
}
// * * * * * * * * * * * * * * * * * * * * * * * * * * * * * * * * * * * * * //

dimensions      [0 1 -1 0 0 0 0];

internalField   nonuniform List<vector> 
11200
(
(0.00259015 -0.120399 8.24055e-19)
(-0.109749 -0.154463 1.46033e-18)
(-0.15356 -0.132855 7.81751e-20)
(-0.244224 -0.114919 -1.24389e-18)
(-0.287889 -0.0932387 4.06603e-19)
(-0.345882 -0.0797789 -4.45434e-18)
(-0.38491 -0.0668137 -5.81602e-18)
(-0.424563 -0.0575693 -2.04354e-18)
(-0.456266 -0.0490818 9.39525e-18)
(-0.485019 -0.0421427 -1.17618e-17)
(-0.509297 -0.0358761 -3.85558e-18)
(-0.53035 -0.0303396 2.14012e-17)
(-0.548102 -0.0252836 1.08226e-18)
(-0.562966 -0.0206493 1.64629e-17)
(-0.575077 -0.0163417 -2.65819e-17)
(-0.584637 -0.0123103 6.16813e-18)
(-0.591779 -0.0085091 1.16205e-17)
(-0.596633 -0.00490912 -1.16624e-17)
(-0.599309 -0.0014871 -2.03218e-17)
(-0.599911 0.00176759 -2.67503e-17)
(-0.598535 0.00486673 -4.67807e-17)
(-0.595272 0.00780816 -1.93389e-17)
(-0.590222 0.0105898 -1.06873e-17)
(-0.583484 0.0132048 -6.27156e-18)
(-0.575163 0.0156435 -1.94058e-18)
(-0.565372 0.0178949 -2.36883e-17)
(-0.55423 0.0199471 1.09091e-17)
(-0.541864 0.0217881 -1.97039e-19)
(-0.528407 0.0234061 1.3335e-17)
(-0.514003 0.0247905 2.90581e-18)
(-0.498799 0.0259321 -9.96251e-18)
(-0.482948 0.026824 1.75589e-18)
(-0.466607 0.0274616 -1.83055e-17)
(-0.449935 0.0278434 1.59315e-17)
(-0.433091 0.0279712 -3.87082e-18)
(-0.416231 0.0278499 -1.13323e-17)
(-0.399508 0.0274885 -1.38518e-18)
(-0.383068 0.0268993 1.60717e-18)
(-0.367047 0.0260984 -1.40783e-17)
(-0.351573 0.025105 -1.91684e-17)
(-0.336756 0.0239412 -2.42487e-17)
(-0.322695 0.0226316 -2.47909e-17)
(-0.309473 0.0212027 -2.56932e-18)
(-0.297154 0.0196821 -5.50694e-18)
(-0.285784 0.0180979 3.2116e-18)
(-0.275394 0.0164782 1.0575e-17)
(-0.265997 0.0148503 -1.05183e-17)
(-0.257586 0.0132399 -2.08468e-17)
(-0.250143 0.011671 -1.64324e-18)
(-0.243632 0.0101651 -8.50245e-19)
(-0.238006 0.00874096 1.3655e-17)
(-0.233207 0.00741408 1.0807e-17)
(-0.229168 0.00619651 1.00195e-18)
(-0.225816 0.00509681 5.86039e-20)
(-0.223074 0.00411966 -3.90742e-18)
(-0.220865 0.00326606 -3.73025e-18)
(-0.219111 0.00253355 -1.38872e-17)
(-0.217738 0.00191668 1.01715e-17)
(-0.216679 0.00140754 3.79037e-18)
(-0.215871 0.000996441 2.42631e-18)
(-0.215257 0.000672607 -1.25779e-17)
(-0.214791 0.000424846 -8.27006e-18)
(-0.214431 0.00024181 -1.6119e-17)
(-0.214142 0.000112609 -1.59813e-17)
(-0.213895 2.89802e-05 -6.69894e-18)
(-0.213671 -1.63339e-05 -8.61559e-18)
(-0.21345 -4.06697e-05 -3.55983e-18)
(-0.213215 -3.62333e-05 -1.66255e-18)
(-0.212957 -1.20732e-05 -2.98666e-18)
(-0.212663 2.63868e-05 2.71226e-18)
(-0.212325 7.74478e-05 -1.40644e-17)
(-0.211934 0.00014545 -1.10048e-17)
(-0.21148 0.000228521 2.19669e-18)
(-0.210956 0.000327894 -1.34356e-17)
(-0.21035 0.000445289 7.72155e-18)
(-0.209651 0.00058326 -1.21302e-17)
(-0.208846 0.000744934 1.47097e-17)
(-0.207918 0.00093444 -4.88201e-18)
(-0.206851 0.00115613 -1.61248e-17)
(-0.205624 0.00141636 8.31744e-18)
(-0.204213 0.00172097 -4.884e-18)
(-0.202593 0.00208026 -2.07377e-17)
(-0.200725 0.00250162 -7.6743e-18)
(-0.198583 0.00300336 -1.23229e-18)
(-0.196099 0.00359332 3.0862e-18)
(-0.193258 0.00430738 -1.43116e-17)
(-0.189925 0.0051487 1.10496e-17)
(-0.186138 0.00619364 1.77743e-17)
(-0.181597 0.00742464 2.90269e-17)
(-0.17652 0.0090105 1.9678e-17)
(-0.170173 0.0108802 1.65674e-17)
(-0.163343 0.0133719 1.07292e-17)
(-0.154132 0.0163966 -5.45817e-18)
(-0.144948 0.0203093 -8.38125e-19)
(-0.13103 0.0257467 9.95396e-18)
(-0.118432 0.0312098 9.07876e-18)
(-0.0974939 0.0415404 -1.39067e-17)
(-0.0775726 0.0455015 -7.52703e-18)
(-0.0504761 0.0555643 -3.5959e-18)
(-0.0121613 0.0386027 -3.64027e-18)
(0.0108035 -0.11001 1.09255e-18)
(-0.107907 -0.141852 1.75056e-18)
(-0.155531 -0.120653 1.76394e-19)
(-0.249405 -0.104174 1.44376e-18)
(-0.294995 -0.0842855 -4.11443e-19)
(-0.35428 -0.0719073 1.12211e-18)
(-0.394041 -0.0601116 -1.65517e-21)
(-0.434195 -0.0516996 -2.2087e-19)
(-0.46616 -0.044025 8.8238e-18)
(-0.49508 -0.0377592 2.3243e-18)
(-0.519423 -0.032115 -1.2389e-17)
(-0.540488 -0.0271346 2.29746e-17)
(-0.558202 -0.0225915 6.62213e-18)
(-0.572995 -0.0184303 2.45768e-17)
(-0.585007 -0.0145647 -2.01609e-17)
(-0.594447 -0.0109485 1.55667e-17)
(-0.60145 -0.00753983 1.59614e-17)
(-0.60615 -0.00431248 -1.42156e-17)
(-0.608658 -0.00124475 -1.72774e-17)
(-0.609081 0.00167202 -1.47559e-17)
(-0.607516 0.0044482 -3.42112e-17)
(-0.604056 0.00708352 -1.65453e-17)
(-0.598802 0.00957569 -2.01682e-17)
(-0.591852 0.0119185 3.20521e-18)
(-0.583314 0.0141034 -7.17832e-19)
(-0.5733 0.0161205 -1.4397e-17)
(-0.561929 0.0179591 1.01048e-18)
(-0.549331 0.0196084 -3.01177e-18)
(-0.535639 0.0210581 1.48031e-17)
(-0.520997 0.0222985 -2.03882e-18)
(-0.505552 0.0233215 -1.18883e-17)
(-0.489459 0.0241207 4.6599e-18)
(-0.472875 0.0246921 -1.06369e-17)
(-0.45596 0.0250344 9.66482e-18)
(-0.438872 0.025149 -3.34729e-19)
(-0.421771 0.0250405 -1.17136e-17)
(-0.404808 0.0247167 5.10579e-18)
(-0.388132 0.0241887 3.07296e-18)
(-0.371878 0.0234708 -1.51819e-17)
(-0.356175 0.0225802 -2.26766e-17)
(-0.341136 0.0215367 -2.53636e-17)
(-0.32686 0.0203623 -2.07109e-17)
(-0.313428 0.0190805 -5.35772e-18)
(-0.300908 0.0177161 3.24119e-18)
(-0.289348 0.0162944 8.56565e-18)
(-0.278777 0.0148403 1.5927e-18)
(-0.269209 0.0133783 -8.24579e-18)
(-0.260641 0.0119315 -1.84419e-17)
(-0.253051 0.0105215 -5.49611e-18)
(-0.246408 0.00916738 -9.49713e-19)
(-0.240663 0.00788605 5.4344e-18)
(-0.235759 0.0066914 1.12367e-17)
(-0.231631 0.00559429 -7.79735e-19)
(-0.228204 0.00460234 -1.23756e-18)
(-0.225404 0.00371981 -7.18359e-18)
(-0.223152 0.00294772 -4.70353e-18)
(-0.221369 0.00228403 -9.59954e-18)
(-0.219984 0.00172405 1.69625e-17)
(-0.218925 0.00126082 2.50202e-18)
(-0.21813 0.000885783 -1.06026e-18)
(-0.217542 0.000589391 -7.37004e-18)
(-0.217112 0.000361699 -1.29604e-17)
(-0.216798 0.000192565 -1.31908e-17)
(-0.216563 7.23358e-05 -1.29494e-17)
(-0.216379 -6.24825e-06 -8.69104e-18)
(-0.216223 -5.66157e-05 -1.58561e-17)
(-0.216076 -7.75793e-05 -5.17e-18)
(-0.215921 -7.74906e-05 2.95982e-18)
(-0.215747 -5.89729e-05 -5.90656e-18)
(-0.215543 -2.28285e-05 7.26733e-18)
(-0.215299 2.38887e-05 -1.41425e-17)
(-0.215005 8.06579e-05 -1.27792e-17)
(-0.214654 0.000152567 -5.78993e-18)
(-0.214236 0.000239428 -1.51786e-17)
(-0.21374 0.000342518 6.59532e-18)
(-0.213155 0.000464087 -7.77807e-18)
(-0.212468 0.00060696 1.46352e-17)
(-0.211662 0.000774864 -5.5348e-18)
(-0.21072 0.000971731 -1.45847e-17)
(-0.209622 0.00120331 1.22446e-20)
(-0.208341 0.00147489 -6.26843e-18)
(-0.206854 0.00179582 -2.39047e-17)
(-0.205119 0.00217278 -9.88976e-18)
(-0.20311 0.00262243 -8.55486e-18)
(-0.200756 0.00315184 4.51254e-18)
(-0.198042 0.00379373 -1.04025e-17)
(-0.194824 0.00455085 9.36521e-18)
(-0.191143 0.005493 1.27219e-17)
(-0.186681 0.0066041 3.2687e-17)
(-0.181666 0.00803806 2.0318e-17)
(-0.175317 0.009732 1.95897e-17)
(-0.168457 0.0119907 8.28148e-18)
(-0.159082 0.014748 -5.33712e-18)
(-0.149648 0.0183028 -2.18562e-19)
(-0.135274 0.0232922 1.20947e-17)
(-0.121881 0.0282788 1.35709e-17)
(-0.100031 0.0377156 -1.77693e-17)
(-0.0783117 0.04146 -5.57721e-18)
(-0.0497632 0.0500786 -2.91082e-18)
(-0.0116556 0.0346479 -4.99809e-18)
(0.0202624 -0.0992842 1.5879e-18)
(-0.106298 -0.128356 1.24856e-18)
(-0.1572 -0.107878 2.27382e-19)
(-0.254104 -0.0930291 2.04175e-18)
(-0.301479 -0.0750653 2.43841e-18)
(-0.361967 -0.0638878 1.40821e-18)
(-0.402407 -0.0533139 6.16591e-18)
(-0.443013 -0.0457825 2.02893e-18)
(-0.475208 -0.0389435 1.11678e-17)
(-0.504269 -0.03337 3.79444e-18)
(-0.528658 -0.028359 -9.42126e-18)
(-0.549719 -0.023943 1.63078e-17)
(-0.567388 -0.0199182 1.28312e-17)
(-0.582104 -0.016234 2.01365e-17)
(-0.594016 -0.012813 -1.6742e-18)
(-0.603336 -0.00961371 1.35714e-17)
(-0.610204 -0.00659874 2.10924e-17)
(-0.614755 -0.00374468 -4.05128e-18)
(-0.617105 -0.00103197 -1.67439e-17)
(-0.617358 0.00154639 -5.80642e-18)
(-0.615616 0.00400086 -2.67399e-17)
(-0.611972 0.00633077 -1.41497e-17)
(-0.606527 0.00853392 -1.2548e-17)
(-0.599382 0.010605 1.52568e-17)
(-0.590643 0.0125365 -1.17041e-18)
(-0.580423 0.0143196 -9.15196e-18)
(-0.568844 0.0159449 1.19053e-17)
(-0.556034 0.017403 -5.67762e-18)
(-0.542128 0.0186844 1.98979e-17)
(-0.527268 0.0197809 6.61667e-18)
(-0.511605 0.0206851 1.6077e-19)
(-0.495293 0.0213915 9.31433e-18)
(-0.478489 0.0218965 -5.58922e-18)
(-0.461355 0.0221989 7.0356e-18)
(-0.444049 0.0222999 1.30982e-18)
(-0.42673 0.0222037 -1.43715e-17)
(-0.409552 0.0219171 3.87461e-19)
(-0.392663 0.0214498 4.10055e-18)
(-0.376201 0.0208146 -1.9863e-17)
(-0.360293 0.0200265 -1.85818e-17)
(-0.345055 0.0191031 -1.90797e-17)
(-0.330584 0.0180637 -1.92084e-17)
(-0.316966 0.0169291 -7.4362e-18)
(-0.304266 0.0157213 1.25292e-17)
(-0.292534 0.0144624 1.51221e-17)
(-0.281801 0.0131746 -7.30756e-18)
(-0.27208 0.0118795 -8.14092e-18)
(-0.263369 0.0105976 -1.92317e-17)
(-0.255649 0.0093477 -9.0974e-18)
(-0.248886 0.00814693 -1.01572e-18)
(-0.243033 0.0070101 -1.45403e-18)
(-0.238035 0.00594955 4.13626e-18)
(-0.233826 0.00497489 -3.09228e-18)
(-0.230332 0.00409287 -2.5073e-18)
(-0.227478 0.00330735 -2.50805e-18)
(-0.225185 0.0026194 -5.82104e-18)
(-0.223376 0.00202739 -6.65361e-18)
(-0.221977 0.00152721 1.82272e-17)
(-0.220917 0.00111284 3.35388e-19)
(-0.220133 0.000776827 4.83476e-18)
(-0.219566 0.00051079 -4.51968e-18)
(-0.219167 0.000306023 -1.08035e-17)
(-0.218892 0.000153575 -1.18822e-17)
(-0.218704 4.50749e-05 -1.13468e-17)
(-0.218574 -2.74697e-05 -1.23565e-17)
(-0.218479 -7.41287e-05 -1.56101e-17)
(-0.218397 -9.57393e-05 -6.79299e-18)
(-0.218313 -9.77338e-05 -1.66321e-18)
(-0.218213 -8.33874e-05 -1.03388e-17)
(-0.218087 -5.54564e-05 1.32532e-17)
(-0.217926 -1.30018e-05 -1.72136e-17)
(-0.217719 3.50654e-05 -6.45673e-18)
(-0.217457 9.61516e-05 -3.14093e-18)
(-0.217132 0.000170439 -1.9518e-17)
(-0.216734 0.00025913 7.71898e-18)
(-0.216249 0.000364182 -5.27374e-18)
(-0.215665 0.000488095 1.8046e-17)
(-0.214967 0.000634171 -8.36832e-18)
(-0.214135 0.000805897 -4.69854e-18)
(-0.21315 0.00100839 3.803e-18)
(-0.211984 0.00124637 2.32057e-18)
(-0.210614 0.00152818 -3.12404e-17)
(-0.208996 0.00185975 -1.29213e-17)
(-0.207105 0.00225603 -1.68628e-17)
(-0.204864 0.00272328 7.246e-18)
(-0.202262 0.00329089 -9.31856e-18)
(-0.199145 0.00396124 1.01913e-17)
(-0.195558 0.00479704 1.01251e-17)
(-0.191164 0.00578407 3.0181e-17)
(-0.186204 0.00705995 2.29289e-17)
(-0.179853 0.00857098 1.41996e-17)
(-0.172962 0.0105851 6.31399e-18)
(-0.163444 0.0130594 -6.79538e-18)
(-0.153781 0.016233 1.25459e-18)
(-0.139012 0.0207348 1.60319e-17)
(-0.124897 0.0252014 8.2772e-18)
(-0.102256 0.0336773 -1.36328e-17)
(-0.0789768 0.0371366 -4.44078e-18)
(-0.0491094 0.0444439 -2.60219e-18)
(-0.0112059 0.0307656 -7.01133e-18)
(0.0303712 -0.0880729 2.38829e-18)
(-0.104842 -0.113898 8.20173e-19)
(-0.158596 -0.0946012 2.73037e-19)
(-0.258299 -0.0814943 3.08397e-18)
(-0.307296 -0.0656022 2.28559e-18)
(-0.368878 -0.0557136 -4.19645e-18)
(-0.409933 -0.0464206 6.48675e-18)
(-0.45094 -0.0398066 4.6824e-18)
(-0.483335 -0.033827 1.55938e-17)
(-0.51251 -0.0289611 4.86699e-18)
(-0.536929 -0.0245945 -7.64242e-18)
(-0.557978 -0.0207505 1.42965e-17)
(-0.575594 -0.0172499 2.07288e-17)
(-0.590233 -0.0140475 1.70491e-17)
(-0.602047 -0.011075 1.59285e-17)
(-0.611252 -0.00829595 1.61123e-17)
(-0.617991 -0.00567758 2.81158e-17)
(-0.622404 -0.00319941 8.16258e-19)
(-0.624605 -0.000843983 -1.9559e-17)
(-0.624703 0.00139361 1.46877e-18)
(-0.622797 0.00352422 -2.49318e-17)
(-0.618985 0.00554672 -1.3179e-17)
(-0.613367 0.00745905 -4.34425e-18)
(-0.606044 0.00925675 1.22701e-17)
(-0.597123 0.0109332 -3.44728e-18)
(-0.586719 0.012481 1.39737e-17)
(-0.574952 0.0138918 6.60409e-18)
(-0.561952 0.0151575 -1.03987e-17)
(-0.547853 0.0162699 2.94583e-17)
(-0.5328 0.0172218 1.50128e-17)
(-0.516943 0.0180068 -3.98533e-18)
(-0.500436 0.0186201 1.48936e-17)
(-0.483437 0.0190587 -2.35804e-18)
(-0.466107 0.0193214 6.29677e-18)
(-0.448608 0.0194093 2.10377e-18)
(-0.431097 0.019326 -1.97972e-17)
(-0.413729 0.0190773 -2.24423e-18)
(-0.396652 0.0186718 5.04772e-18)
(-0.380006 0.0181204 -1.76321e-17)
(-0.363917 0.0174362 -1.73049e-17)
(-0.348502 0.0166342 -2.71882e-17)
(-0.333861 0.0157315 -1.98959e-17)
(-0.320078 0.0147458 -9.56211e-18)
(-0.307219 0.0136963 1.43375e-17)
(-0.295336 0.0126022 1.34138e-17)
(-0.28446 0.0114828 -8.80852e-18)
(-0.274604 0.0103566 -9.61631e-18)
(-0.265767 0.00924154 -1.38903e-17)
(-0.257931 0.00815397 -1.34958e-17)
(-0.251062 0.0071087 -3.39687e-19)
(-0.245115 0.0061186 -8.68428e-18)
(-0.240033 0.00519439 -1.69185e-18)
(-0.23575 0.00434444 -6.83477e-18)
(-0.232196 0.00357467 -4.68429e-18)
(-0.229293 0.00288849 1.89816e-18)
(-0.226964 0.00228702 -8.09697e-18)
(-0.225131 0.00176889 -4.80691e-18)
(-0.223719 0.00133062 1.39334e-17)
(-0.222657 0.000967058 -2.4289e-18)
(-0.221881 0.000671786 1.12244e-17)
(-0.221331 0.000437574 -2.55939e-18)
(-0.220958 0.000256883 -1.05655e-17)
(-0.220717 0.000121874 -1.27857e-17)
(-0.22057 2.52992e-05 -1.15194e-17)
(-0.220487 -4.19423e-05 -7.3764e-18)
(-0.220443 -8.38572e-05 -1.74765e-17)
(-0.220418 -0.000104389 -9.33434e-18)
(-0.220394 -0.000107921 -7.11155e-18)
(-0.220359 -9.72487e-05 -1.66697e-17)
(-0.220301 -7.44302e-05 1.28052e-17)
(-0.220211 -4.07262e-05 -1.47801e-17)
(-0.220079 5.07752e-06 -1.03289e-17)
(-0.219896 5.48471e-05 -1.07932e-18)
(-0.219652 0.000117406 -1.76581e-17)
(-0.219337 0.000192678 1.13708e-18)
(-0.21894 0.000282133 -3.7177e-18)
(-0.218446 0.000387953 1.39165e-17)
(-0.217841 0.000513009 -3.28989e-18)
(-0.217104 0.000660335 -6.20919e-18)
(-0.216217 0.000834404 -2.0418e-18)
(-0.215151 0.00103931 -4.59895e-19)
(-0.213883 0.00128238 -3.41881e-17)
(-0.212367 0.00156877 -1.64431e-17)
(-0.210577 0.0019116 -1.65919e-17)
(-0.208436 0.00231628 1.34269e-18)
(-0.20593 0.00280868 -1.04143e-17)
(-0.2029 0.00339078 1.37288e-17)
(-0.199395 0.00411778 9.0518e-18)
(-0.19506 0.00497723 2.24139e-17)
(-0.190147 0.00608975 1.64605e-17)
(-0.183794 0.00741018 1.05511e-17)
(-0.176875 0.00916946 4.73614e-18)
(-0.167235 0.0113427 -1.00901e-17)
(-0.157367 0.014116 2.76014e-18)
(-0.14226 0.0180899 2.25353e-17)
(-0.127506 0.0220031 4.72192e-18)
(-0.104183 0.0294638 -1.27153e-18)
(-0.079563 0.0325913 -3.41401e-18)
(-0.0485061 0.0387645 -2.72758e-18)
(-0.0107941 0.0270059 -1.03273e-17)
(0.0405339 -0.0761416 1.65657e-18)
(-0.103516 -0.0984614 3.53994e-19)
(-0.159745 -0.0808731 3.55683e-19)
(-0.261965 -0.0696058 2.08744e-18)
(-0.312397 -0.0559177 2.37114e-18)
(-0.37495 -0.0473999 -5.12102e-18)
(-0.416548 -0.0394408 8.86708e-18)
(-0.457901 -0.0337789 8.66811e-18)
(-0.490465 -0.0286803 2.35957e-17)
(-0.519732 -0.0245365 4.91176e-18)
(-0.544169 -0.0208241 -7.28894e-18)
(-0.565197 -0.017559 1.74161e-17)
(-0.582761 -0.0145879 1.70367e-17)
(-0.597324 -0.0118711 1.61303e-17)
(-0.609045 -0.00935028 3.65879e-17)
(-0.618143 -0.00699414 2.20868e-17)
(-0.624765 -0.00477456 2.07643e-17)
(-0.629052 -0.00267412 8.97213e-19)
(-0.631119 -0.000677537 -6.75757e-18)
(-0.631077 0.00121783 9.97559e-18)
(-0.629026 0.00302302 -1.02762e-17)
(-0.625064 0.00473688 -1.13477e-17)
(-0.619292 0.00635733 5.53035e-18)
(-0.611811 0.00788066 1.21056e-17)
(-0.602731 0.0093013 -7.76992e-18)
(-0.592164 0.0106129 2.23233e-17)
(-0.580232 0.0118085 1.12391e-18)
(-0.567065 0.0128811 5.57587e-19)
(-0.552799 0.0138239 2.98544e-17)
(-0.537577 0.0146307 2.12017e-17)
(-0.52155 0.0152961 -9.7029e-18)
(-0.504872 0.0158161 8.49342e-18)
(-0.487704 0.016188 -8.74617e-19)
(-0.470205 0.0164109 7.90176e-18)
(-0.452538 0.0164857 1.81148e-18)
(-0.43486 0.0164154 -1.58599e-17)
(-0.417328 0.016205 -3.17189e-18)
(-0.400089 0.0158616 6.91275e-18)
(-0.383283 0.0153944 -8.21429e-18)
(-0.367039 0.0148146 -1.85377e-17)
(-0.351472 0.0141349 -2.85242e-17)
(-0.336683 0.0133696 -1.23448e-17)
(-0.322757 0.012534 -1.12494e-17)
(-0.309762 0.0116439 1.03305e-17)
(-0.297748 0.0107159 1.34879e-17)
(-0.286748 0.00976613 -1.3378e-17)
(-0.276776 0.00881044 -1.23622e-17)
(-0.26783 0.00786387 -1.10524e-17)
(-0.259893 0.00694036 -1.928e-17)
(-0.252933 0.00605242 8.6456e-19)
(-0.246903 0.00521099 -1.71591e-17)
(-0.241748 0.00442514 -7.17883e-18)
(-0.237403 0.00370199 -2.08298e-18)
(-0.233796 0.0030466 -7.46228e-18)
(-0.230851 0.00246189 -1.9992e-18)
(-0.22849 0.00194893 -2.98193e-18)
(-0.226634 0.00150661 -1.21756e-17)
(-0.22521 0.00113208 1.31636e-17)
(-0.224145 0.00082101 -6.22416e-18)
(-0.223375 0.000568016 1.07606e-17)
(-0.22284 0.000367001 -1.79963e-18)
(-0.222488 0.000211616 -2.30966e-18)
(-0.222275 9.52053e-05 -1.54911e-17)
(-0.222163 1.21118e-05 -4.1743e-18)
(-0.222119 -4.74835e-05 -3.78865e-18)
(-0.222119 -8.47734e-05 -1.33052e-17)
(-0.222142 -0.000103699 -1.23482e-17)
(-0.22217 -0.000108045 -1.33341e-17)
(-0.222189 -0.000100246 -2.54344e-17)
(-0.222189 -8.21432e-05 5.54784e-18)
(-0.22216 -5.45145e-05 -1.60481e-17)
(-0.222092 -1.63639e-05 -1.53973e-17)
(-0.221975 2.55099e-05 -8.60819e-18)
(-0.2218 7.7057e-05 -1.92306e-17)
(-0.221557 0.000139417 -3.83619e-18)
(-0.221234 0.000213842 -2.7524e-18)
(-0.220817 0.000302166 1.26713e-17)
(-0.220291 0.000406809 3.80836e-19)
(-0.219636 0.000530335 -8.46685e-18)
(-0.218832 0.00067655 -8.1284e-18)
(-0.217851 0.000848929 -3.46927e-18)
(-0.216669 0.00105372 -3.28338e-17)
(-0.21524 0.0012953 -2.12973e-17)
(-0.213537 0.00158487 -1.85865e-17)
(-0.21148 0.00192701 -3.37983e-18)
(-0.209056 0.00234388 -1.34005e-17)
(-0.206101 0.00283709 9.10823e-18)
(-0.202665 0.00345389 -2.65022e-18)
(-0.19838 0.00418374 1.88335e-17)
(-0.193508 0.00512945 1.22732e-17)
(-0.187154 0.00625414 7.58756e-18)
(-0.180211 0.00775141 3.61132e-18)
(-0.170467 0.00961078 -1.5401e-17)
(-0.160422 0.0119712 5.38787e-18)
(-0.145031 0.0153862 2.19344e-17)
(-0.129724 0.0187237 6.55884e-19)
(-0.105824 0.0251208 -1.62546e-18)
(-0.0800703 0.0278692 -2.94947e-18)
(-0.0479647 0.0330039 -2.6935e-18)
(-0.0104227 0.0231808 -1.56864e-17)
(0.0501584 -0.0634712 1.02492e-18)
(-0.102334 -0.082084 5.73685e-19)
(-0.160667 -0.0667477 1.70092e-19)
(-0.265075 -0.0574069 1.47396e-18)
(-0.316734 -0.0460383 2.5523e-18)
(-0.38012 -0.0389652 -6.86263e-18)
(-0.422182 -0.032386 6.49073e-18)
(-0.463826 -0.0277082 5.43529e-18)
(-0.496529 -0.0235092 2.48112e-17)
(-0.525868 -0.0201003 3.08177e-18)
(-0.550314 -0.0170506 -7.44814e-18)
(-0.571318 -0.0143704 1.17516e-17)
(-0.58883 -0.011933 1.54913e-17)
(-0.603325 -0.00970513 1.94653e-17)
(-0.614961 -0.00763851 4.56908e-17)
(-0.623965 -0.00570722 1.21571e-17)
(-0.630484 -0.00388804 1.53552e-17)
(-0.63466 -0.00216666 -2.28906e-18)
(-0.636611 -0.00053007 -1.40057e-17)
(-0.636448 0.00102212 7.78658e-19)
(-0.634271 0.00250103 1.23902e-18)
(-0.63018 0.00390554 -1.03691e-17)
(-0.624276 0.00523346 -4.24448e-19)
(-0.616661 0.00648182 1.32832e-17)
(-0.607443 0.00764606 -1.27595e-17)
(-0.596738 0.00872095 1.77336e-17)
(-0.584666 0.00970083 1.06169e-17)
(-0.571357 0.0105799 1.42144e-17)
(-0.556948 0.0113527 2.02358e-17)
(-0.541583 0.0120141 1.18228e-17)
(-0.525413 0.0125596 -1.94728e-17)
(-0.508592 0.012986 5.40809e-18)
(-0.49128 0.013291 -2.98413e-19)
(-0.473639 0.0134739 -3.38585e-18)
(-0.45583 0.0135355 -1.31264e-17)
(-0.438012 0.0134781 -1.57154e-17)
(-0.420341 0.0133059 -3.04235e-18)
(-0.402966 0.0130247 -2.28679e-18)
(-0.386026 0.012642 -1.36829e-17)
(-0.369651 0.0121669 -1.19537e-17)
(-0.353956 0.0116099 -2.2863e-17)
(-0.339043 0.0109826 -1.581e-17)
(-0.324998 0.0102975 -1.42659e-17)
(-0.311888 0.00956774 9.30572e-18)
(-0.299765 0.00880668 4.80068e-18)
(-0.288661 0.00802763 -1.22101e-17)
(-0.278591 0.00724356 -1.65639e-17)
(-0.269554 0.0064668 -9.97036e-18)
(-0.261533 0.00570874 -1.8794e-17)
(-0.254496 0.00497966 -5.961e-18)
(-0.248397 0.00428849 -2.00183e-17)
(-0.243181 0.0036427 -1.29937e-17)
(-0.238783 0.00304812 -6.89568e-18)
(-0.235131 0.00250891 -1.16446e-17)
(-0.23215 0.0020275 -6.24879e-18)
(-0.229761 0.00160484 9.47468e-19)
(-0.227887 0.0012401 -1.24071e-17)
(-0.226451 0.000930988 5.88834e-18)
(-0.225384 0.000674019 -2.78805e-18)
(-0.224618 0.000464809 3.12253e-18)
(-0.224094 0.000298387 -2.40883e-18)
(-0.22376 0.000169586 -4.46781e-18)
(-0.22357 7.29002e-05 -2.1535e-17)
(-0.223486 3.76236e-06 3.39968e-18)
(-0.223475 -4.70259e-05 -1.03385e-18)
(-0.223511 -7.86839e-05 -2.14355e-17)
(-0.223573 -9.53001e-05 -7.70419e-18)
(-0.223643 -9.9867e-05 -1.10479e-17)
(-0.223709 -9.44227e-05 -2.87879e-17)
(-0.223756 -8.04984e-05 1.01373e-18)
(-0.223777 -5.89264e-05 -2.10237e-17)
(-0.223762 -2.9971e-05 -2.23832e-17)
(-0.223701 7.20096e-06 -1.68943e-17)
(-0.223583 4.74703e-05 -2.40182e-17)
(-0.223399 9.74699e-05 -8.83815e-18)
(-0.223137 0.000157365 -2.15917e-18)
(-0.222784 0.000228645 3.72178e-18)
(-0.222323 0.000313303 3.0512e-18)
(-0.221735 0.00041344 -1.24638e-17)
(-0.221001 0.000532183 -1.53116e-17)
(-0.220091 0.000672383 -6.82449e-18)
(-0.21898 0.000839184 -2.71123e-17)
(-0.217623 0.00103617 -2.87346e-17)
(-0.215992 0.00127259 -2.36734e-17)
(-0.214005 0.00155217 -7.4817e-18)
(-0.211649 0.00189322 -1.91955e-17)
(-0.208756 0.00229702 7.50971e-18)
(-0.205378 0.00280258 -3.58108e-18)
(-0.201135 0.00340133 1.8815e-17)
(-0.196296 0.00417767 9.73869e-18)
(-0.189941 0.00510282 6.04301e-18)
(-0.182979 0.00633289 2.97773e-18)
(-0.17315 0.00786845 -2.40655e-17)
(-0.162957 0.00980689 9.65957e-18)
(-0.147335 0.0126378 2.50111e-17)
(-0.131564 0.0153828 -3.85145e-18)
(-0.107188 0.0206754 -1.97893e-18)
(-0.0804999 0.0229982 -3.33864e-18)
(-0.047498 0.0271535 -2.71679e-18)
(-0.0100979 0.0192511 -1.35924e-17)
(0.0586757 -0.0501365 4.09083e-19)
(-0.101327 -0.0648497 8.99308e-19)
(-0.16138 -0.0522857 -2.35133e-20)
(-0.267602 -0.0449445 1.13723e-18)
(-0.320264 -0.0359942 3.02354e-18)
(-0.384333 -0.0304282 -4.3697e-18)
(-0.426774 -0.0252682 6.27251e-18)
(-0.468652 -0.0216013 3.73128e-18)
(-0.501465 -0.0183179 2.04239e-17)
(-0.530857 -0.0156548 -1.35079e-18)
(-0.555306 -0.0132747 -9.56147e-18)
(-0.576287 -0.0111844 9.82391e-18)
(-0.593753 -0.00928421 1.6887e-17)
(-0.608188 -0.00754782 2.71012e-17)
(-0.619753 -0.0059374 4.46919e-17)
(-0.628677 -0.00443258 1.70763e-17)
(-0.635109 -0.00301514 2.91472e-17)
(-0.639193 -0.00167393 -8.03892e-18)
(-0.641048 -0.000398403 -4.42187e-18)
(-0.640785 0.000809837 -6.67777e-18)
(-0.638504 0.00196175 1.12673e-17)
(-0.634307 0.00305633 -1.14126e-17)
(-0.628295 0.00409114 -4.14948e-18)
(-0.62057 0.00506396 1.70387e-17)
(-0.611241 0.00597125 -2.14633e-17)
(-0.600422 0.00680896 1.95505e-17)
(-0.588236 0.00757265 2.04796e-17)
(-0.574812 0.00825786 1.26614e-17)
(-0.560287 0.00886022 1.38357e-17)
(-0.544806 0.00937578 1.85589e-17)
(-0.528519 0.0098011 -1.852e-17)
(-0.511582 0.0101336 4.76453e-18)
(-0.494155 0.0103715 -6.17767e-19)
(-0.476398 0.0105143 -1.73033e-18)
(-0.458475 0.0105625 -1.71277e-17)
(-0.440544 0.0105179 -1.73802e-17)
(-0.422761 0.0103839 -2.53883e-18)
(-0.405276 0.010165 -1.19635e-17)
(-0.388228 0.00986688 -1.03926e-17)
(-0.371747 0.00949678 -8.02953e-18)
(-0.35595 0.00906279 -1.089e-17)
(-0.340937 0.00857397 -9.99167e-18)
(-0.326796 0.00804005 -1.82107e-17)
(-0.313594 0.00747123 1.11418e-17)
(-0.301382 0.00687791 6.74545e-18)
(-0.290195 0.00627049 -4.34633e-18)
(-0.280047 0.00565905 -1.43151e-17)
(-0.270937 0.00505318 -9.73193e-18)
(-0.262848 0.00446177 -2.13624e-17)
(-0.255748 0.00389282 -1.28944e-17)
(-0.249593 0.00335328 -2.62245e-17)
(-0.244328 0.00284897 -1.04075e-17)
(-0.239887 0.00238443 -1.21518e-17)
(-0.236199 0.00196293 -8.02438e-18)
(-0.233189 0.00158633 -1.72332e-18)
(-0.230778 0.00125549 5.29128e-18)
(-0.228888 0.000969846 -5.71919e-18)
(-0.227444 0.000727635 6.87067e-19)
(-0.226373 0.00052615 -1.82966e-19)
(-0.225611 0.000361995 -3.44674e-18)
(-0.225096 0.000231309 -3.44095e-18)
(-0.224775 0.000130106 -7.54706e-18)
(-0.224603 5.41149e-05 -2.12082e-17)
(-0.224541 6.86655e-07 3.96739e-18)
(-0.224556 -4.10854e-05 1.35278e-18)
(-0.224621 -6.67685e-05 -2.41583e-17)
(-0.224714 -8.05605e-05 -2.90873e-18)
(-0.224819 -8.48541e-05 -1.18776e-18)
(-0.22492 -8.12812e-05 -2.72058e-17)
(-0.225006 -7.10409e-05 -1.54604e-18)
(-0.225067 -5.4733e-05 -2.04247e-17)
(-0.225093 -3.22525e-05 -2.25078e-17)
(-0.225076 -2.60518e-06 -1.7364e-17)
(-0.225004 2.74986e-05 -2.23041e-17)
(-0.224867 6.51608e-05 -1.3718e-17)
(-0.224655 0.000110757 -1.18929e-17)
(-0.224352 0.000165315 6.44793e-18)
(-0.223943 0.000230341 6.63015e-18)
(-0.223409 0.000307449 -1.98131e-17)
(-0.22273 0.000399072 -1.3566e-17)
(-0.221876 0.000507426 -1.0599e-17)
(-0.220822 0.000636524 -2.62897e-17)
(-0.219522 0.000789157 -2.9376e-17)
(-0.217948 0.000972553 -2.02314e-17)
(-0.216017 0.00118962 -1.19094e-17)
(-0.213716 0.00145467 -2.82541e-17)
(-0.210872 0.00176872 -2.8971e-18)
(-0.20754 0.00216223 -5.96848e-18)
(-0.203331 0.00262875 1.15046e-17)
(-0.19852 0.00323378 7.74391e-18)
(-0.192164 0.0039564 4.9095e-18)
(-0.185187 0.00491548 2.1734e-18)
(-0.175291 0.0061194 -2.60025e-17)
(-0.16498 0.00762959 5.25147e-18)
(-0.149176 0.00985552 2.14963e-17)
(-0.133035 0.0119959 -1.02532e-17)
(-0.10828 0.0161511 -2.65844e-18)
(-0.080851 0.0180069 -3.84059e-18)
(-0.0471143 0.021225 -2.87392e-18)
(-0.00982569 0.015217 -1.43244e-17)
(0.0655723 -0.0362441 -1.25775e-19)
(-0.10053 -0.0468883 8.57436e-19)
(-0.161899 -0.0375537 -2.90689e-19)
(-0.269521 -0.032271 1.04166e-18)
(-0.322948 -0.0258195 3.89972e-18)
(-0.387538 -0.0218101 -2.4342e-18)
(-0.430269 -0.0181009 8.01006e-18)
(-0.472323 -0.0154666 3.46536e-18)
(-0.505217 -0.0131114 1.95455e-17)
(-0.534647 -0.0112025 2.84417e-18)
(-0.559096 -0.00949749 9.07755e-19)
(-0.580056 -0.00800072 1.22218e-17)
(-0.597486 -0.00664034 2.26513e-17)
(-0.611872 -0.00539737 2.51084e-17)
(-0.623382 -0.00424458 3.45154e-17)
(-0.632244 -0.00316736 2.1806e-17)
(-0.638609 -0.00215259 2.85207e-17)
(-0.642621 -0.00119231 -5.83144e-19)
(-0.644403 -0.000278684 4.31216e-18)
(-0.644063 0.00058481 -1.32439e-17)
(-0.641702 0.00140893 2.3354e-17)
(-0.637424 0.00219337 -1.52299e-17)
(-0.631329 0.00293469 -6.17744e-18)
(-0.62352 0.00363153 2.32067e-17)
(-0.614106 0.00428144 -3.46471e-17)
(-0.603202 0.00488154 9.87948e-18)
(-0.590929 0.00542864 1.43975e-17)
(-0.577417 0.00591955 1.14124e-17)
(-0.562805 0.00635114 1.00104e-17)
(-0.547235 0.00672057 2.55508e-17)
(-0.53086 0.00702538 -2.26384e-17)
(-0.513835 0.00726369 7.81524e-18)
(-0.49632 0.00743429 -1.27209e-18)
(-0.478476 0.00753674 -9.85736e-19)
(-0.460466 0.00757145 -2.45532e-17)
(-0.442449 0.00753976 -7.63421e-18)
(-0.424582 0.00744396 -1.06013e-18)
(-0.407014 0.00728731 -1.18297e-17)
(-0.389885 0.00707398 -8.23365e-18)
(-0.373324 0.00680906 -4.75568e-18)
(-0.357449 0.00649836 -8.40723e-19)
(-0.342362 0.00614836 -5.93927e-18)
(-0.328147 0.00576603 -1.43369e-17)
(-0.314876 0.00535866 1.70913e-17)
(-0.302598 0.00493371 9.00712e-18)
(-0.291347 0.0044986 1.59073e-18)
(-0.28114 0.00406055 -1.42509e-17)
(-0.271975 0.00362643 -1.11739e-17)
(-0.263835 0.00320259 -1.82107e-17)
(-0.256688 0.00279475 -1.2202e-17)
(-0.250492 0.0024079 -2.74326e-17)
(-0.245189 0.00204617 -8.38146e-18)
(-0.240716 0.00171283 -1.05719e-17)
(-0.237001 0.00141017 -5.21583e-18)
(-0.233968 0.00113949 3.51267e-18)
(-0.23154 0.000901658 1.08983e-17)
(-0.229638 0.000696362 -1.02911e-17)
(-0.228187 0.000522288 -3.45708e-18)
(-0.227114 0.000377462 2.46741e-18)
(-0.226354 0.000259422 -1.05778e-17)
(-0.225845 0.000165379 -4.97971e-18)
(-0.225535 9.24728e-05 -2.54846e-18)
(-0.225376 3.75925e-05 -1.53858e-17)
(-0.225331 -9.90992e-07 6.59456e-18)
(-0.225365 -3.20039e-05 3.52638e-18)
(-0.225452 -5.09313e-05 -2.17054e-17)
(-0.225568 -6.13637e-05 2.92986e-18)
(-0.225698 -6.49839e-05 8.84806e-18)
(-0.225826 -6.29679e-05 -2.11212e-17)
(-0.22594 -5.61731e-05 -3.02062e-18)
(-0.226031 -4.50478e-05 -1.41445e-17)
(-0.226089 -2.97028e-05 -2.60726e-17)
(-0.226104 -9.35259e-06 -1.98299e-17)
(-0.226067 1.2448e-05 -2.43667e-17)
(-0.225965 3.8968e-05 -2.03117e-17)
(-0.225789 7.10882e-05 -1.26896e-17)
(-0.225524 0.000109573 1.15737e-17)
(-0.225154 0.00015553 1.00048e-17)
(-0.224661 0.00021012 -2.08884e-17)
(-0.224023 0.000275084 -1.37033e-17)
(-0.22321 0.000352008 -1.58133e-17)
(-0.2222 0.000443764 -1.95354e-17)
(-0.220942 0.000552347 -2.30469e-17)
(-0.219411 0.000682929 -1.90694e-17)
(-0.217522 0.000837602 -1.7455e-17)
(-0.215261 0.00102659 -3.1165e-17)
(-0.212455 0.0012507 -1.27032e-18)
(-0.209158 0.00153166 2.07532e-18)
(-0.204974 0.00186513 7.09331e-18)
(-0.200184 0.00229759 6.44286e-18)
(-0.193828 0.00281556 4.59887e-18)
(-0.186841 0.00350137 1.95529e-18)
(-0.176896 0.00436841 -2.15383e-17)
(-0.166498 0.00544693 3.69685e-18)
(-0.150559 0.00705282 1.07212e-17)
(-0.13414 0.00858154 -8.70375e-18)
(-0.109104 0.0115747 -3.47322e-18)
(-0.0811211 0.0129294 -4.89924e-18)
(-0.0468196 0.0152355 -2.87867e-18)
(-0.00961168 0.0110714 -1.82237e-17)
(0.0704244 -0.0219271 -8.33325e-19)
(-0.0999771 -0.0283706 4.93485e-19)
(-0.162239 -0.0226229 -6.40857e-19)
(-0.270812 -0.0194422 1.25788e-18)
(-0.324756 -0.0155492 5.47743e-18)
(-0.389698 -0.0131332 -1.02582e-18)
(-0.432624 -0.0108984 1.15776e-17)
(-0.474796 -0.00931266 3.77653e-18)
(-0.507744 -0.00789511 2.17915e-17)
(-0.537199 -0.00674679 6.17768e-18)
(-0.561646 -0.00572094 1.21446e-17)
(-0.582591 -0.00482036 1.84645e-17)
(-0.599994 -0.00400156 1.73978e-17)
(-0.614348 -0.00325321 2.83212e-17)
(-0.625819 -0.00255888 2.98922e-17)
(-0.634638 -0.00190981 2.88861e-17)
(-0.640957 -0.00129807 3.12565e-17)
(-0.644921 -0.000718823 3.79167e-18)
(-0.646653 -0.000166724 -6.47805e-18)
(-0.646261 0.000350834 -2.19851e-17)
(-0.643847 0.000846711 2.19391e-17)
(-0.639513 0.00132119 -6.72098e-18)
(-0.633363 0.00176909 -4.42597e-18)
(-0.625497 0.00218997 3.12255e-17)
(-0.616026 0.00258249 -3.8158e-17)
(-0.605063 0.00294494 6.97119e-18)
(-0.592732 0.00327541 1.06425e-17)
(-0.579161 0.00357195 -5.83287e-18)