/*--------------------------------*- C++ -*----------------------------------*\
  =========                 |
  \\      /  F ield         | OpenFOAM: The Open Source CFD Toolbox
   \\    /   O peration     | Website:  https://openfoam.org
    \\  /    A nd           | Version:  7
     \\/     M anipulation  |
\*---------------------------------------------------------------------------*/
FoamFile
{
    version     2.0;
    format      ascii;
    class       volVectorField;
    location    "114";
    object      U;
}
// * * * * * * * * * * * * * * * * * * * * * * * * * * * * * * * * * * * * * //

dimensions      [0 1 -1 0 0 0 0];

internalField   nonuniform List<vector> 
4000
(
(1.25701 0.222107 4.08187e-18)
(1.25266 0.240244 1.42826e-18)
(1.24534 0.247956 5.42381e-20)
(1.23965 0.262051 -1.49272e-18)
(1.23316 0.273486 7.58163e-19)
(1.22776 0.287585 1.80597e-18)
(1.22192 0.301447 6.98138e-18)
(1.21663 0.317202 5.47375e-18)
(1.2111 0.334339 8.10115e-18)
(1.20613 0.352761 1.24298e-17)
(1.20047 0.374906 7.51265e-18)
(1.19612 0.397722 5.92563e-18)
(1.18973 0.429157 -1.8743e-18)
(1.18843 0.459862 5.2644e-18)
(1.18195 0.505412 9.20373e-18)
(1.18767 0.536455 1.48102e-17)
(1.14823 0.55111 4.98293e-18)
(1.06561 0.472772 2.23499e-18)
(0.717407 0.246717 8.28299e-19)
(0.397536 0.00318115 2.28835e-18)
(1.26428 0.227119 3.26392e-18)
(1.25974 0.24505 9.05326e-19)
(1.25273 0.25309 -2.01636e-19)
(1.2473 0.267314 1.74119e-19)
(1.24119 0.27906 9.87052e-19)
(1.23611 0.293508 2.4812e-18)
(1.23069 0.307892 5.90175e-18)
(1.22592 0.324296 5.03914e-18)
(1.22119 0.342209 7.56982e-18)
(1.2172 0.361975 9.32848e-18)
(1.21325 0.385477 5.66704e-18)
(1.21114 0.410953 2.68018e-18)
(1.20965 0.444154 1.62688e-18)
(1.21269 0.477284 8.29761e-18)
(1.20444 0.513382 7.00732e-18)
(1.16846 0.516644 1.02068e-17)
(1.03314 0.476091 4.50281e-18)
(0.75574 0.340808 -6.39571e-18)
(0.33589 0.226977 -4.03827e-17)
(-0.093292 0.0981561 -3.17478e-18)
(1.27102 0.231884 2.37538e-18)
(1.26623 0.249686 9.06066e-19)
(1.25951 0.257932 4.79704e-19)
(1.25426 0.272287 3.84364e-19)
(1.24858 0.284346 1.16298e-18)
(1.244 0.29919 2.67118e-18)
(1.23942 0.314127 5.61192e-18)
(1.23576 0.331154 5.12335e-18)
(1.23242 0.349697 7.83734e-18)
(1.23003 0.370375 8.0039e-18)
(1.22831 0.394542 4.1256e-18)
(1.22912 0.421033 4.28676e-18)
(1.22998 0.452031 1.76085e-18)
(1.22538 0.475571 2.57103e-18)
(1.18446 0.481227 -5.1296e-18)
(1.06893 0.431717 5.86093e-18)
(0.819271 0.322612 -1.73337e-17)
(0.46072 0.15898 -4.34696e-17)
(0.0619073 0.013399 -2.35491e-17)
(-0.00566827 -0.0273734 -1.43496e-17)
(1.27744 0.236417 2.42548e-18)
(1.27253 0.254124 2.65614e-19)
(1.26613 0.26248 -1.08643e-18)
(1.26109 0.276914 2.32449e-19)
(1.25585 0.289135 1.36648e-18)
(1.25167 0.30413 3.43022e-18)
(1.24761 0.319228 4.2433e-18)
(1.24441 0.33649 4.56676e-18)
(1.2417 0.355422 5.09266e-18)
(1.24068 0.376862 3.49084e-18)
(1.24155 0.401441 5.10795e-19)
(1.24417 0.426921 -2.41629e-18)
(1.23977 0.450195 -1.38414e-18)
(1.209 0.45469 4.63877e-18)
(1.10855 0.425022 -3.29678e-18)
(0.89902 0.336203 -3.89459e-20)
(0.565549 0.212535 -2.37738e-17)
(0.19146 0.0795277 -2.64833e-17)
(-0.0384779 0.0816037 -5.54657e-17)
(-0.0934403 0.0640602 -1.33048e-17)
(1.28363 0.240692 4.75952e-19)
(1.27874 0.258292 7.50481e-19)
(1.27269 0.26669 2.87768e-18)
(1.26797 0.281191 1.21288e-18)
(1.26326 0.293582 1.82179e-18)
(1.25973 0.308868 1.52283e-18)
(1.25668 0.324448 3.8856e-18)
(1.25501 0.342367 4.18823e-18)
(1.25456 0.36176 6.63568e-18)
(1.25602 0.383007 6.61858e-18)
(1.25796 0.405506 2.34976e-18)
(1.25564 0.425237 9.16137e-18)
(1.23177 0.434301 1.21954e-17)
(1.15535 0.413793 -6.4885e-18)
(0.980569 0.350735 -8.37687e-18)
(0.689681 0.237583 -7.43282e-18)
(0.32737 0.118627 -1.8218e-17)
(0.0457832 0.0550181 -1.00085e-17)
(-0.0979271 0.0550681 -1.26384e-17)
(-0.0314736 0.0229943 -3.68373e-17)
(1.28962 0.244723 3.84735e-18)
(1.28481 0.262203 3.60056e-19)
(1.27913 0.270604 -1.12422e-18)
(1.27476 0.285127 -1.14773e-18)
(1.27053 0.297536 1.93478e-19)
(1.2675 0.312783 5.66594e-18)
(1.26488 0.328122 3.59149e-18)
(1.2635 0.345486 5.18996e-18)
(1.26319 0.364007 1.88865e-18)
(1.26422 0.384099 2.98047e-18)
(1.26322 0.403664 1.68322e-18)
(1.24929 0.41536 -9.17004e-18)
(1.19487 0.406705 -8.57967e-18)
(1.06134 0.361045 3.1249e-18)
(0.813906 0.274859 7.77298e-18)
(0.47586 0.160679 3.00645e-17)
(0.153423 0.0890832 1.79937e-17)
(-0.0508767 0.0708186 -4.99049e-18)
(-0.0980643 0.0908631 4.6751e-18)
(-0.0529653 0.0495243 -4.5751e-18)
(1.29536 0.248489 3.80666e-18)
(1.2907 0.265795 2.06555e-19)
(1.28539 0.274123 -3.0447e-19)
(1.28142 0.288624 -2.01246e-18)
(1.27774 0.30106 4.4971e-19)
(1.27541 0.316486 1.92442e-18)
(1.27396 0.332194 2.86956e-18)
(1.27451 0.350104 -2.17771e-19)
(1.27674 0.368879 8.8539e-18)
(1.27886 0.387325 7.525e-18)
(1.2718 0.400059 -7.29786e-18)
(1.23547 0.397305 1.74906e-18)
(1.13545 0.367528 1.20891e-17)
(0.937407 0.301195 -3.86011e-18)
(0.633034 0.20544 -1.39498e-17)
(0.295327 0.112508 2.09009e-17)
(0.0393314 0.082412 -3.11151e-18)
(-0.0816452 0.0893307 -2.97018e-17)
(-0.105866 0.0926251 2.88987e-17)
(-0.0349054 0.0380619 3.29194e-18)
(1.30087 0.252034 1.02789e-18)
(1.29639 0.269169 -1.42608e-19)
(1.29143 0.277445 -2.44562e-18)
(1.28789 0.291922 1.51057e-18)
(1.28469 0.30427 9.02767e-19)
(1.28291 0.319449 6.89401e-19)
(1.28193 0.334396 1.18796e-18)
(1.28222 0.350619 4.80935e-18)
(1.28197 0.366133 7.13705e-18)
(1.27646 0.37902 -5.28392e-19)
(1.25219 0.382995 -7.32083e-18)
(1.18438 0.367925 -6.07527e-18)
(1.03733 0.322662 -3.63496e-18)
(0.786089 0.243751 -8.64679e-18)
(0.456941 0.15247 -5.05848e-18)
(0.158382 0.0936 1.63379e-17)
(-0.0261959 0.0952097 -3.28901e-19)
(-0.108955 0.103082 -1.06857e-17)
(-0.101632 0.102005 3.38791e-19)
(-0.0439588 0.0442288 -2.53771e-18)
(1.30613 0.255304 5.24194e-18)
(1.30189 0.272167 -2.28027e-19)
(1.29731 0.280239 4.46686e-18)
(1.29423 0.294561 -5.40578e-18)
(1.29155 0.30677 -7.97744e-19)
(1.29044 0.321866 3.00359e-18)
(1.29037 0.336896 4.33682e-18)
(1.2918 0.353432 -3.52555e-18)
(1.29213 0.368964 2.96962e-18)
(1.28315 0.379446 7.17762e-18)
(1.24431 0.374513 -4.53643e-18)
(1.14292 0.341776 1.67753e-17)
(0.94454 0.276144 2.45789e-17)
(0.647136 0.189375 1.45495e-17)
(0.318142 0.1164 4.04088e-18)
(0.069227 0.0888117 4.33801e-17)
(-0.0690359 0.0968897 2.48745e-17)
(-0.116964 0.100952 -2.75793e-17)
(-0.103782 0.0954714 -7.90448e-18)
(-0.0411074 0.0396889 -8.39831e-19)
(1.31115 0.258381 6.39187e-18)
(1.30717 0.27504 1.39239e-18)
(1.30288 0.283091 -1.95486e-18)
(1.30028 0.297416 -1.16166e-18)
(1.29803 0.309493 5.44214e-18)
(1.2975 0.324191 -3.61221e-19)
(1.29756 0.338025 5.41014e-18)
(1.29731 0.351566 6.25878e-19)
(1.29031 0.360377 1.41329e-17)
(1.26215 0.358293 4.73124e-18)
(1.18654 0.335422 2.97042e-18)
(1.03328 0.286404 1.48269e-17)
(0.785148 0.216455 -4.55938e-18)
(0.472085 0.144027 1.1256e-17)
(0.181139 0.0975775 1.80512e-18)
(-0.00786414 0.0849023 8.86079e-18)
(-0.0993253 0.0889956 -1.56108e-18)
(-0.121789 0.0879939 -5.52489e-18)
(-0.0955002 0.0836567 -1.37015e-17)
(-0.0375583 0.0366102 -2.79234e-18)
(1.18039 0.169289 1.83756e-17)
(1.17034 0.193393 7.89209e-18)
(1.15969 0.201987 -8.0808e-19)
(1.14592 0.220486 -1.51605e-17)
(1.13323 0.233866 -8.07025e-18)
(1.11713 0.250808 3.70635e-17)
(1.10103 0.266788 1.195e-17)
(1.08138 0.284389 3.84041e-17)
(1.05961 0.302279 1.50824e-18)
(1.03328 0.320967 7.00758e-18)
(1.0026 0.340052 2.32539e-17)
(0.965046 0.358974 -2.34718e-17)
(0.920774 0.377703 -5.24305e-17)
(0.866136 0.394668 -4.01385e-18)
(0.805483 0.409509 4.84031e-17)
(0.72894 0.418206 1.20716e-16)
(0.653262 0.426841 1.58817e-16)
(0.547625 0.412985 9.71878e-17)
(0.431206 0.398032 1.39342e-17)
(0.192138 0.19603 2.15654e-17)
(1.18809 0.17479 1.61969e-17)
(1.17862 0.198665 6.9739e-18)
(1.16828 0.207319 5.37928e-19)
(1.15535 0.225758 -1.36905e-17)
(1.14337 0.239244 -6.69206e-18)
(1.12842 0.256439 1.55626e-17)
(1.11353 0.272677 1.23987e-17)
(1.09552 0.290925 1.33369e-17)
(1.07577 0.309666 1.96711e-17)
(1.05196 0.329649 2.88122e-17)
(1.0244 0.350633 -4.74505e-18)
(0.990476 0.371922 -1.6664e-17)
(0.950678 0.394043 -1.5885e-18)
(0.901396 0.414338 4.57307e-19)
(0.846868 0.435719 -3.51623e-18)
(0.778322 0.448262 9.23225e-17)
(0.708422 0.469448 1.12533e-16)
(0.618477 0.45778 1.43985e-17)
(0.49533 0.450914 8.35682e-17)
(0.245578 0.220054 2.0755e-17)
(1.1957 0.180285 1.06015e-17)
(1.18694 0.203807 4.90904e-18)
(1.17687 0.212458 -4.42499e-18)
(1.16494 0.230722 -7.58469e-18)
(1.15362 0.244236 -3.79629e-18)
(1.13993 0.261538 9.64522e-18)
(1.12622 0.277913 4.40216e-18)
(1.10983 0.296593 1.45775e-17)
(1.0919 0.315993 1.97951e-17)
(1.07028 0.337015 1.73876e-17)
(1.04523 0.359701 2.87055e-19)
(1.01407 0.38321 -1.74971e-17)
(0.977257 0.408912 -1.94554e-17)
(0.93035 0.433097 -1.19745e-17)
(0.877752 0.460942 -3.15014e-18)
(0.809998 0.479139 5.59856e-17)
(0.73881 0.508447 5.55147e-17)
(0.645331 0.500908 3.81814e-17)
(0.504328 0.485161 4.87844e-17)
(0.229306 0.224327 -1.73944e-18)
(1.20326 0.185728 1.53789e-17)
(1.19521 0.208791 3.80089e-18)
(1.18541 0.217387 8.97107e-18)
(1.17441 0.235359 -1.59699e-17)
(1.16372 0.248823 -6.8053e-18)
(1.1512 0.266076 1.19712e-17)
(1.13863 0.282459 1.79014e-17)
(1.12381 0.301337 6.39639e-19)
(1.10769 0.321155 1.06036e-17)
(1.08837 0.342834 3.04203e-17)
(1.06612 0.366794 3.15141e-18)
(1.03845 0.391795 7.68767e-18)
(1.00578 0.420537 2.02519e-17)
(0.964064 0.44728 2.06955e-17)
(0.916266 0.481853 1.82939e-18)
(0.856892 0.504053 8.24448e-17)
(0.787205 0.546956 8.10268e-17)
(0.706811 0.542432 -1.50635e-17)
(0.544828 0.520927 2.63331e-17)
(0.246012 0.235298 6.44093e-18)
(1.21088 0.191145 1.28035e-17)
(1.20349 0.213665 5.41943e-18)
(1.19401 0.222191 -4.44434e-18)
(1.18388 0.239788 -1.2498e-17)
(1.17385 0.253146 4.13203e-18)
(1.16248 0.270234 -8.8906e-19)
(1.15109 0.286521 1.21822e-17)
(1.13789 0.305408 -2.23097e-18)
(1.12369 0.325417 2.16093e-17)
(1.10685 0.347414 2.47494e-17)
(1.08758 0.372283 4.96858e-18)
(1.06364 0.398283 7.4041e-18)
(1.03507 0.429508 -8.46453e-18)
(0.998501 0.458359 1.5065e-17)
(0.954883 0.497448 4.33081e-18)
(0.901152 0.523117 6.18138e-17)
(0.833256 0.566562 5.61241e-17)
(0.74507 0.565315 1.70785e-18)
(0.575531 0.528723 1.38055e-17)
(0.236439 0.230403 3.30155e-18)
(1.21856 0.196454 9.66701e-18)
(1.21182 0.218312 -2.31979e-18)
(1.20271 0.226693 2.88822e-18)
(1.19345 0.243774 -9.6572e-18)
(1.18411 0.256888 2.76418e-18)
(1.17393 0.273601 7.59029e-20)
(1.16373 0.289578 1.26487e-17)
(1.15221 0.30814 1.18545e-17)
(1.13997 0.327981 1.78363e-17)
(1.12581 0.349779 1.97972e-17)
(1.10959 0.374976 5.17658e-18)
(1.08995 0.401182 5.43243e-18)
(1.06541 0.434246 -1.46553e-19)
(1.0357 0.46442 1.09371e-17)
(0.995514 0.509289 4.75315e-18)
(0.953558 0.540891 4.70974e-17)
(0.885048 0.604467 4.04897e-17)
(0.824406 0.614546 7.04543e-18)
(0.62229 0.588818 1.0773e-17)
(0.279316 0.255458 9.51106e-19)
(1.22629 0.201769 7.94937e-18)
(1.22013 0.222936 -9.35331e-19)
(1.21139 0.231199 2.1254e-18)
(1.20295 0.247757 -6.6739e-18)
(1.19426 0.260632 1.85725e-18)
(1.18521 0.276951 5.1648e-19)
(1.17613 0.292618 1.87275e-18)
(1.16621 0.310814 9.7772e-18)
(1.15585 0.330371 1.45396e-17)
(1.1442 0.351862 1.70999e-17)
(1.1309 0.377137 6.99818e-18)
(1.1151 0.40351 5.19748e-18)
(1.09502 0.437584 -1.04922e-17)
(1.071 0.468964 7.3745e-18)
(1.03717 0.514377 6.30435e-18)
(1.00024 0.545583 3.55676e-17)
(0.941237 0.591036 2.96605e-17)
(0.849848 0.593372 1.14703e-17)
(0.660136 0.53269 5.3825e-18)
(0.237798 0.225047 5.095e-18)
(1.23398 0.206835 4.95489e-18)
(1.22844 0.227136 -2.0725e-18)
(1.2201 0.235096 6.33346e-19)
(1.21249 0.250869 -7.2663e-18)
(1.20449 0.263227 8.78907e-19)
(1.19658 0.27878 1.32594e-19)
(1.18862 0.293729 -9.92388e-19)
(1.18036 0.310969 8.42912e-18)
(1.1718 0.32962 1.13702e-17)
(1.1626 0.349928 1.17724e-17)
(1.15207 0.374319 3.13457e-18)
(1.14061 0.399189 1.58238e-18)
(1.12502 0.433159 -9.29928e-18)
(1.10846 0.46397 1.74796e-18)
(1.0797 0.514563 1.54637e-18)
(1.05482 0.5546 2.75271e-17)
(1.00032 0.640457 2.36071e-17)
(0.965688 0.680415 1.19721e-17)
(0.761755 0.699215 6.57808e-18)
(0.380717 0.314356 -4.61865e-18)
(1.24168 0.212076 6.49719e-18)
(1.2366 0.231677 2.38338e-18)
(1.22857 0.239585 1.31052e-18)
(1.22165 0.254852 3.95054e-20)
(1.21419 0.26698 9.33286e-19)
(1.20723 0.282125 8.13782e-19)
(1.20015 0.296768 5.07846e-18)
(1.19315 0.313612 6.03558e-18)
(1.18583 0.331956 9.21589e-18)
(1.17832 0.351866 1.62181e-17)
(1.16991 0.375917 1.08504e-17)
(1.16133 0.400492 8.83463e-18)
(1.14959 0.434235 -5.57455e-18)
(1.13867 0.465237 8.57767e-18)
(1.11809 0.51253 9.07334e-18)
(1.10026 0.543322 2.01936e-17)
(1.05287 0.578236 1.49488e-17)
(0.970849 0.563561 1.21065e-17)
(0.743936 0.464222 8.78301e-18)
(0.252947 0.175404 -6.18477e-19)
(1.24924 0.216687 5.23809e-18)
(1.24482 0.235144 1.89331e-18)
(1.23725 0.242379 -6.97072e-19)
(1.23115 0.256341 -1.66716e-18)
(1.22438 0.26744 5.16018e-19)
(1.21852 0.281157 5.31649e-19)
(1.21244 0.294414 5.68118e-18)
(1.20681 0.309429 8.36798e-18)
(1.20093 0.325908 7.19174e-18)
(1.19583 0.343137 1.53831e-17)
(1.18977 0.364493 1.06215e-17)
(1.18588 0.384839 9.06301e-18)
(1.17773 0.414901 -2.21594e-18)
(1.17445 0.440943 2.42362e-18)
(1.15512 0.490716 4.54054e-18)
(1.14712 0.538528 1.64704e-17)
(1.11042 0.641795 1.49325e-17)
(1.12277 0.729512 1.47389e-17)
(0.993068 0.819664 -2.22805e-18)
(0.668382 0.394545 6.28844e-19)
(1.24924 -0.216687 5.59106e-18)
(1.24482 -0.235144 6.18145e-18)
(1.23725 -0.242379 2.79261e-18)
(1.23115 -0.256341 3.14047e-18)
(1.22438 -0.26744 -2.3977e-18)
(1.21852 -0.281157 -4.61991e-18)
(1.21244 -0.294414 2.06672e-19)
(1.20681 -0.309429 -1.97977e-18)
(1.20093 -0.325908 -6.62785e-18)
(1.19583 -0.343137 -1.1562e-17)
(1.18977 -0.364493 -1.33412e-18)
(1.18588 -0.384839 3.34915e-18)
(1.17773 -0.414901 -8.53035e-18)
(1.17445 -0.440943 -5.9243e-18)
(1.15512 -0.490716 -5.81792e-18)
(1.14712 -0.538528 -2.426e-17)
(1.11042 -0.641795 -1.09413e-17)
(1.12277 -0.729512 -9.28626e-18)
(0.993068 -0.819664 5.43789e-19)
(0.668382 -0.394545 1.39928e-19)
(1.24168 -0.212076 5.35107e-18)
(1.2366 -0.231677 6.92639e-18)
(1.22857 -0.239585 3.39371e-18)
(1.22165 -0.254852 4.57124e-18)
(1.21419 -0.26698 -3.47946e-18)
(1.20723 -0.282125 -5.00459e-18)
(1.20015 -0.296768 1.35541e-19)
(1.19315 -0.313612 -1.74781e-18)
(1.18583 -0.331956 -9.15569e-18)
(1.17832 -0.351866 -1.35976e-17)
(1.16991 -0.375917 2.48447e-18)
(1.16133 -0.400492 3.20127e-18)
(1.14959 -0.434235 -1.56629e-17)
(1.13867 -0.465237 -8.05783e-18)
(1.11809 -0.51253 -7.5125e-18)
(1.10026 -0.543322 -2.67482e-17)
(1.05287 -0.578236 -5.93601e-18)
(0.970849 -0.563561 -1.24535e-17)
(0.743936 -0.464222 -9.81774e-18)
(0.252947 -0.175404 7.50707e-18)
(1.23398 -0.206835 6.49493e-18)
(1.22844 -0.227136 8.62311e-18)
(1.2201 -0.235096 3.57876e-18)
(1.21249 -0.250869 5.96711e-18)
(1.20449 -0.263227 -1.13692e-17)
(1.19658 -0.27878 -6.49486e-18)
(1.18862 -0.293729 9.49623e-19)
(1.18036 -0.310969 -1.82164e-18)
(1.1718 -0.32962 -1.15135e-17)
(1.1626 -0.349928 -1.75563e-17)
(1.15207 -0.374319 4.36214e-18)
(1.14061 -0.399189 4.91784e-18)
(1.12502 -0.433159 -2.04101e-17)
(1.10846 -0.46397 -7.03768e-18)
(1.0797 -0.514563 -8.89249e-18)
(1.05482 -0.5546 -2.81239e-17)
(1.00032 -0.640456 1.28373e-18)
(0.965688 -0.680415 -1.71178e-17)
(0.761755 -0.699215 -9.46818e-18)
(0.380717 -0.314356 5.04654e-18)
(1.22629 -0.201769 2.7532e-18)
(1.22013 -0.222936 1.07343e-17)
(1.21139 -0.231199 3.51884e-18)
(1.20295 -0.247757 1.14037e-18)
(1.19426 -0.260632 -1.26941e-17)
(1.18521 -0.276951 -7.48655e-18)
(1.17613 -0.292618 -7.9057e-18)
(1.16621 -0.310814 -1.314e-18)
(1.15585 -0.330371 -3.11238e-18)
(1.1442 -0.351862 -2.28952e-17)
(1.1309 -0.377137 8.93138e-18)
(1.1151 -0.40351 4.52155e-18)
(1.09502 -0.437584 -1.49611e-17)
(1.071 -0.468964 8.24445e-18)
(1.03717 -0.514377 -1.00673e-17)
(1.00024 -0.545582 -4.00028e-17)
(0.941237 -0.591036 2.58426e-18)
(0.849848 -0.593372 -2.04419e-17)
(0.660136 -0.53269 -1.29261e-17)
(0.237798 -0.225047 -1.05638e-18)
(1.21856 -0.196454 4.18481e-18)
(1.21182 -0.218313 1.34442e-17)
(1.20271 -0.226693 4.30896e-18)
(1.19345 -0.243774 -3.98998e-18)
(1.18411 -0.256888 -1.73109e-17)
(1.17393 -0.273601 -8.2774e-18)
(1.16373 -0.289578 -5.98884e-18)
(1.15221 -0.30814 -1.28818e-17)
(1.13997 -0.327981 -8.04406e-18)
(1.12581 -0.349779 -1.62726e-17)
(1.10959 -0.374976 -2.81594e-20)
(1.08995 -0.401182 6.14095e-18)
(1.06541 -0.434246 -2.71236e-17)
(1.0357 -0.46442 7.77911e-18)
(0.995514 -0.509288 -1.58767e-17)
(0.953558 -0.540891 -5.14421e-17)
(0.885048 -0.604467 1.03271e-17)
(0.824406 -0.614546 -2.8758e-17)
(0.62229 -0.588818 -1.91442e-17)
(0.279316 -0.255458 -2.45765e-20)
(1.21088 -0.191145 3.18708e-18)
(1.20349 -0.213665 1.69373e-17)
(1.19401 -0.222191 5.47608e-18)
(1.18388 -0.239788 -1.77531e-18)
(1.17385 -0.253146 -9.67512e-18)
(1.16248 -0.270234 -2.17725e-17)
(1.15109 -0.286521 -7.70065e-18)
(1.13789 -0.305408 -1.1619e-17)
(1.12369 -0.325417 -6.17193e-18)
(1.10685 -0.347414 -8.74263e-18)
(1.08758 -0.372283 -1.18744e-17)
(1.06364 -0.398283 2.94151e-17)
(1.03507 -0.429508 -3.66868e-17)
(0.998501 -0.458359 1.88053e-17)
(0.954883 -0.497448 -2.19491e-17)
(0.901152 -0.523117 -3.62267e-17)
(0.833256 -0.566562 2.49324e-17)
(0.74507 -0.565315 -3.9517e-17)
(0.575531 -0.528723 -3.03266e-17)
(0.236439 -0.230403 3.22643e-18)
(1.20326 -0.185728 2.63328e-18)
(1.19521 -0.208791 1.1469e-17)
(1.18541 -0.217387 6.19e-18)
(1.17441 -0.235359 -2.88172e-18)
(1.16372 -0.248823 -3.1829e-18)
(1.1512 -0.266076 -8.43459e-18)
(1.13863 -0.282459 8.53434e-18)
(1.12381 -0.301337 -1.47798e-17)
(1.10769 -0.321155 -8.50619e-18)
(1.08837 -0.342834 4.25668e-18)
(1.06612 -0.366794 -1.12365e-17)
(1.03845 -0.391795 3.47283e-17)
(1.00578 -0.420537 -2.97664e-17)
(0.964064 -0.44728 -2.02484e-18)
(0.916266 -0.481853 2.65908e-18)
(0.856892 -0.504053 -1.18084e-17)
(0.787205 -0.546956 3.80305e-17)
(0.706811 -0.542432 1.04156e-17)
(0.544828 -0.520927 -4.37394e-17)
(0.246012 -0.235298 1.05804e-17)
(1.1957 -0.180285 2.54233e-18)
(1.18694 -0.203807 1.78404e-17)
(1.17687 -0.212458 7.81577e-18)
(1.16494 -0.230722 -3.63199e-18)
(1.15362 -0.244236 -7.40741e-18)
(1.13993 -0.261538 -1.87861e-17)
(1.12622 -0.277913 -1.10285e-17)
(1.10983 -0.296593 -9.0251e-20)
(1.0919 -0.315993 -9.34627e-18)
(1.07028 -0.337015 -2.21831e-17)
(1.04523 -0.359701 -1.79194e-17)
(1.01407 -0.38321 2.23914e-17)
(0.977257 -0.408912 -2.26986e-17)
(0.93035 -0.433097 1.17502e-17)
(0.877752 -0.460942 -5.22058e-17)
(0.809998 -0.479139 -2.63675e-17)
(0.73881 -0.508447 4.99764e-17)
(0.645331 -0.500908 5.32961e-18)
(0.504328 -0.485161 1.79662e-17)
(0.229306 -0.224327 4.18923e-17)
(1.18809 -0.17479 1.58173e-18)
(1.17862 -0.198665 2.12166e-17)
(1.16828 -0.207319 9.2795e-18)
(1.15535 -0.225758 -4.70811e-18)
(1.14337 -0.239244 -6.60634e-18)
(1.12842 -0.256439 -1.92931e-17)
(1.11353 -0.272677 -5.30116e-18)
(1.09552 -0.290925 -4.60795e-18)
(1.07577 -0.309666 -1.42041e-17)
(1.05196 -0.329649 -1.73283e-17)
(1.0244 -0.350633 -1.69454e-17)
(0.990476 -0.371922 3.93738e-17)
(0.950678 -0.394043 -4.42715e-17)
(0.901396 -0.414338 1.65005e-17)
(0.846868 -0.435719 -4.92959e-17)
(0.778322 -0.448262 -2.11405e-17)
(0.708422 -0.469448 7.24986e-17)
(0.618477 -0.45778 8.85563e-18)
(0.49533 -0.450914 1.14195e-17)
(0.245578 -0.220054 9.04157e-17)
(1.18039 -0.169289 1.10534e-17)
(1.17034 -0.193393 3.94701e-17)
(1.15969 -0.201987 -2.39377e-18)
(1.14592 -0.220486 1.00189e-17)
(1.13323 -0.233866 -8.44954e-18)
(1.11713 -0.250808 -2.56849e-17)
(1.10103 -0.266788 -8.57926e-18)
(1.08138 -0.284389 -2.37558e-17)
(1.05961 -0.302279 -4.15302e-17)
(1.03328 -0.320967 2.42428e-18)
(1.0026 -0.340052 8.73689e-18)
(0.965046 -0.358974 5.23292e-17)
(0.920774 -0.377703 -2.33394e-17)
(0.866136 -0.394668 -1.67418e-17)
(0.805483 -0.409509 -8.31033e-17)
(0.72894 -0.418206 -2.28727e-17)
(0.653262 -0.426841 1.04595e-16)
(0.547625 -0.412985 9.11452e-18)
(0.431206 -0.398032 8.02229e-20)
(0.192138 -0.19603 1.48279e-17)
(1.31115 -0.258381 -2.26123e-19)
(1.30717 -0.27504 4.89218e-18)
(1.30288 -0.283091 7.52841e-19)
(1.30028 -0.297416 -2.42361e-18)
(1.29803 -0.309493 -4.23137e-18)
(1.2975 -0.324191 -1.25441e-19)
(1.29756 -0.338025 -2.76066e-18)
(1.29731 -0.351566 -4.38529e-18)
(1.29031 -0.360377 -8.96712e-19)
(1.26215 -0.358293 -8.7083e-18)
(1.18654 -0.335422 -3.02209e-18)
(1.03328 -0.286403 7.57921e-18)
(0.785147 -0.216455 -2.84111e-17)
(0.472085 -0.144027 2.91188e-17)
(0.181139 -0.0975773 -3.48906e-17)
(-0.00786413 -0.0849021 -4.61327e-17)
(-0.0993253 -0.0889954 -3.86402e-18)
(-0.121789 -0.0879937 -4.07973e-17)
(-0.0955001 -0.0836565 -1.19071e-17)
(-0.0375583 -0.0366101 -1.09087e-18)
(1.30613 -0.255305 -9.40423e-19)
(1.30189 -0.272168 -5.58846e-19)
(1.29731 -0.280239 1.48763e-18)
(1.29423 -0.294561 -1.90738e-18)
(1.29155 -0.30677 1.47604e-18)
(1.29044 -0.321866 7.33703e-20)
(1.29037 -0.336896 5.50503e-18)
(1.2918 -0.353432 -5.24315e-18)
(1.29213 -0.368964 7.93201e-19)
(1.28315 -0.379446 2.71227e-18)
(1.24431 -0.374513 -8.04767e-18)
(1.14292 -0.341775 -2.69056e-18)
(0.94454 -0.276144 -1.88349e-17)
(0.647136 -0.189375 6.92984e-18)
(0.318142 -0.1164 1.66829e-17)
(0.069227 -0.0888116 -1.59728e-17)
(-0.0690358 -0.0968895 1.25921e-18)
(-0.116964 -0.100952 -2.27826e-17)
(-0.103782 -0.0954713 -3.54592e-17)
(-0.0411073 -0.0396888 -2.58286e-18)
(1.30087 -0.252034 -8.42161e-19)
(1.29639 -0.269169 1.70787e-18)
(1.29143 -0.277445 1.97146e-18)
(1.28789 -0.291922 -3.07466e-18)
(1.28469 -0.30427 -1.25131e-18)
(1.28291 -0.319449 -1.42796e-18)
(1.28193 -0.334396 -2.65904e-18)
(1.28222 -0.350619 2.98961e-18)
(1.28197 -0.366133 -1.99019e-18)
(1.27646 -0.37902 -1.06395e-17)
(1.25219 -0.382995 -6.32545e-18)
(1.18438 -0.367925 -1.16504e-17)
(1.03733 -0.322662 -1.01066e-17)
(0.786089 -0.24375 3.87564e-18)
(0.456941 -0.152469 -1.32797e-17)
(0.158382 -0.0935999 -5.19088e-18)
(-0.0261959 -0.0952096 9.48728e-18)
(-0.108955 -0.103082 -1.4114e-17)
(-0.101632 -0.102005 -1.15194e-17)
(-0.0439588 -0.0442288 5.1878e-18)
(1.29536 -0.248489 -1.45601e-18)
(1.2907 -0.265796 6.76254e-19)
(1.28539 -0.274123 3.04232e-18)
(1.28142 -0.288624 -2.84617e-18)
(1.27774 -0.30106 -6.75989e-19)
(1.27541 -0.316487 -7.13962e-19)
(1.27396 -0.332194 -7.87578e-19)
(1.27451 -0.350104 5.61263e-19)
(1.27674 -0.368879 3.27438e-18)
(1.27886 -0.387324 -6.51702e-18)
(1.2718 -0.400059 -8.74332e-18)
(1.23547 -0.397304 -1.04604e-17)
(1.13545 -0.367528 -2.13495e-17)
(0.937407 -0.301195 9.11184e-18)
(0.633034 -0.20544 -1.45077e-17)
(0.295327 -0.112508 2.20509e-18)
(0.0393314 -0.082412 1.12191e-17)
(-0.0816452 -0.0893307 -8.60783e-18)
(-0.105866 -0.0926251 -9.10141e-19)
(-0.0349054 -0.0380619 2.70308e-17)
(1.28962 -0.244723 3.81136e-18)
(1.28481 -0.262203 5.72804e-18)
(1.27913 -0.270604 -2.70653e-19)
(1.27476 -0.285127 7.49061e-19)
(1.27053 -0.297536 -1.62128e-18)
(1.2675 -0.312783 -1.16308e-18)
(1.26488 -0.328122 -2.50008e-18)
(1.2635 -0.345486 -4.80019e-18)
(1.26319 -0.364007 -2.517e-18)
(1.26422 -0.384099 9.20717e-19)
(1.26322 -0.403664 -7.73115e-18)
(1.24929 -0.41536 -8.23155e-18)
(1.19487 -0.406705 -1.36374e-17)
(1.06134 -0.361045 -1.51687e-17)
(0.813906 -0.274859 -2.06974e-17)
(0.47586 -0.160679 5.72594e-18)
(0.153423 -0.0890832 2.11608e-17)
(-0.0508767 -0.0708186 -9.0252e-18)
(-0.0980643 -0.0908631 -6.81149e-18)
(-0.0529653 -0.0495244 5.27729e-18)
(1.28363 -0.240692 1.58789e-18)
(1.27874 -0.258292 1.59157e-18)
(1.27269 -0.26669 1.47091e-18)
(1.26797 -0.281191 -4.95479e-19)
(1.26326 -0.293582 -1.40992e-18)
(1.25973 -0.308868 -8.19118e-19)
(1.25668 -0.324448 -1.26532e-18)
(1.25501 -0.342367 -3.16628e-18)
(1.25456 -0.36176 -2.00601e-18)
(1.25602 -0.383007 -2.84729e-19)
(1.25796 -0.405506 -7.70869e-18)
(1.25564 -0.425237 -8.16055e-18)
(1.23177 -0.434301 -2.46359e-18)
(1.15535 -0.413793 -5.29113e-18)
(0.980569 -0.350735 -5.1826e-18)
(0.689681 -0.237583 -3.1303e-19)
(0.32737 -0.118627 -3.82124e-17)
(0.0457832 -0.0550181 -2.10856e-17)
(-0.0979271 -0.0550681 -4.22099e-17)
(-0.0314736 -0.0229943 -3.38455e-18)
(1.27744 -0.236417 3.20256e-18)
(1.27253 -0.254124 4.231e-18)
(1.26613 -0.26248 1.40997e-18)
(1.26109 -0.276914 4.30688e-19)
(1.25585 -0.289135 -1.96351e-18)
(1.25167 -0.30413 -1.1617e-18)
(1.24761 -0.319228 -1.47839e-18)
(1.24441 -0.33649 -2.23278e-18)
(1.2417 -0.355422 -3.65788e-18)
(1.24068 -0.376862 -1.41577e-18)
(1.24155 -0.401441 -7.96674e-19)
(1.24417 -0.426921 -3.47743e-18)
(1.23976 -0.450195 -1.01345e-17)
(1.209 -0.45469 -1.1051e-17)
(1.10855 -0.425022 -1.64617e-17)
(0.89902 -0.336203 -1.8611e-17)
(0.565549 -0.212535 -6.43907e-18)
(0.19146 -0.0795277 -2.60162e-17)
(-0.0384779 -0.0816037 -1.09636e-17)
(-0.0934403 -0.0640602 1.04653e-20)
(1.27102 -0.231884 2.9197e-18)
(1.26623 -0.249686 2.45626e-18)
(1.25951 -0.257932 2.17402e-18)
(1.25426 -0.272287 7.95853e-19)
(1.24858 -0.284346 -2.1894e-18)
(1.244 -0.29919 -1.24668e-18)
(1.23942 -0.314127 -1.39775e-18)
(1.23576 -0.331154 -2.47498e-18)
(1.23242 -0.349697 -4.34245e-18)
(1.23003 -0.370375 -2.01014e-18)
(1.22831 -0.394542 5.4267e-19)
(1.22912 -0.421033 -2.35894e-18)
(1.22998 -0.452031 -5.639e-18)
(1.22538 -0.475571 -7.39189e-18)
(1.18446 -0.481227 -1.24362e-17)
(1.06893 -0.431717 -1.89614e-17)
(0.819271 -0.322612 -1.49337e-17)
(0.46072 -0.15898 -4.01529e-17)
(0.0619073 -0.013399 3.03497e-19)
(-0.00566827 0.0273734 1.00289e-17)
(1.26428 -0.227119 3.88208e-18)
(1.25974 -0.24505 3.16566e-18)
(1.25273 -0.25309 2.65632e-18)
(1.2473 -0.267315 1.77671e-18)
(1.24119 -0.27906 -2.13981e-18)
(1.23611 -0.293508 -1.56611e-18)
(1.23069 -0.307892 -1.36257e-18)
(1.22592 -0.324296 -1.98693e-18)
(1.22119 -0.342209 -6.06913e-18)
(1.2172 -0.361975 -4.03569e-18)
(1.21325 -0.385477 7.07786e-19)
(1.21114 -0.410953 -4.09988e-18)
(1.20965 -0.444154 -7.00128e-18)
(1.21269 -0.477284 -7.90474e-18)
(1.20444 -0.513382 -1.06808e-17)
(1.16846 -0.516643 -2.17685e-17)
(1.03314 -0.476091 -1.06037e-17)
(0.75574 -0.340808 3.62009e-18)
(0.33589 -0.226977 4.57984e-18)
(-0.093292 -0.0981561 1.48846e-17)
(1.25701 -0.222107 4.47274e-18)
(1.25266 -0.240245 3.6815e-18)
(1.24534 -0.247956 3.3124e-18)
(1.23965 -0.262051 2.93403e-18)
(1.23316 -0.273486 -2.4466e-18)
(1.22776 -0.287585 -1.95928e-18)
(1.22192 -0.301447 -1.48921e-18)
(1.21663 -0.317202 -9.02106e-19)
(1.2111 -0.334339 -6.67906e-18)
(1.20613 -0.352761 -6.82607e-18)
(1.20047 -0.374906 2.10531e-18)
(1.19612 -0.397722 -8.53297e-19)
(1.18973 -0.429157 -6.43061e-18)
(1.18843 -0.459862 -3.14676e-18)
(1.18195 -0.505412 -6.05439e-18)
(1.18767 -0.536455 -1.22167e-17)
(1.14823 -0.55111 -6.66646e-18)
(1.06561 -0.472772 -1.23285e-17)
(0.717407 -0.246717 -1.64969e-18)
(0.397536 -0.00318114 5.55673e-17)
(1.15538 -0.151643 -3.63085e-18)
(1.14426 -0.176005 1.27257e-17)
(1.13251 -0.184308 5.82026e-18)
(1.11808 -0.202683 2.39915e-18)
(1.10366 -0.215448 -1.48937e-17)
(1.0868 -0.231195 -4.33077e-17)
(1.06903 -0.245816 -4.21605e-18)
(1.0485 -0.260507 -1.29101e-17)
(1.02559 -0.274624 -4.89735e-17)
(0.999029 -0.287651 -8.68739e-18)
(0.968535 -0.299118 -1.64957e-17)
(0.932847 -0.308118 -1.69391e-17)
(0.891487 -0.313013 2.17806e-17)
(0.842504 -0.312719 1.83903e-17)
(0.786475 -0.30551 3.01145e-17)
(0.72267 -0.290335 -1.19957e-17)
(0.653844 -0.264275 -3.40082e-17)
(0.576029 -0.227478 -2.63675e-18)
(0.509734 -0.169928 3.14564e-18)
(0.391062 -0.0841359 2.02823e-17)
(1.12153 -0.117272 -7.96673e-19)
(1.11227 -0.136087 -3.30378e-18)
(1.10175 -0.141611 5.3606e-18)
(1.08944 -0.154436 3.59123e-17)
(1.07614 -0.162725 -5.02498e-18)
(1.0617 -0.172552 -1.34732e-17)
(1.04587 -0.181221 -1.38987e-17)
(1.02884 -0.189519 -1.5922e-17)
(1.01036 -0.19719 -1.70315e-17)
(0.990604 -0.20404 -7.08292e-18)
(0.96944 -0.209532 -1.49398e-18)
(0.946955 -0.213161 -7.62863e-19)
(0.923023 -0.21428 -7.16575e-18)
(0.897798 -0.211702 5.57936e-22)
(0.870838 -0.204137 8.63164e-18)
(0.842266 -0.189819 2.8348e-19)
(0.812657 -0.168516 1.89799e-18)
(0.783421 -0.134219 -3.55738e-18)
(0.758234 -0.0949551 5.96517e-18)
(0.74757 -0.0359696 3.86575e-18)
(1.09176 -0.095908 -3.52303e-18)
(1.08329 -0.112287 -3.95534e-18)
(1.07379 -0.116986 -9.23744e-18)
(1.06245 -0.127718 -1.94072e-17)
(1.05036 -0.133934 -2.13874e-17)
(1.03701 -0.140813 -6.72367e-17)
(1.02252 -0.146015 -3.35019e-17)
(1.00657 -0.150057 -4.32954e-17)
(0.989099 -0.152591 -9.44936e-17)
(0.969876 -0.153382 -3.02589e-17)
(0.948925 -0.152239 -2.10742e-17)
(0.926334 -0.148899 -7.92211e-18)
(0.902478 -0.143096 -1.43276e-17)
(0.877907 -0.134664 1.0866e-17)
(0.853593 -0.123293 5.80962e-17)
(0.830453 -0.108932 -1.68439e-17)
(0.809404 -0.0906581 -8.12355e-18)
(0.790651 -0.0693347 -1.80043e-17)
(0.776114 -0.0431106 1.19466e-17)
(0.762049 -0.0147255 1.046e-16)
(1.06941 -0.0689515 -8.39969e-18)
(1.06272 -0.0812298 -6.28322e-18)
(1.05537 -0.0845475 -8.79977e-18)
(1.04657 -0.0923279 -7.60324e-18)
(1.03731 -0.0968054 -8.84812e-18)
(1.02752 -0.101869 -1.78235e-17)
(1.01737 -0.105779 -6.8713e-17)
(1.00703 -0.108906 -6.49064e-17)
(0.996577 -0.111039 -7.51203e-17)
(0.986157 -0.111987 -7.77509e-17)
(0.975805 -0.111519 -6.07828e-17)
(0.965531 -0.10938 -9.49624e-18)
(0.955262 -0.105296 -6.22122e-17)
(0.944942 -0.0989712 -1.17866e-17)
(0.934537 -0.090234 -7.3289e-17)
(0.924319 -0.0788751 -7.29864e-17)
(0.914778 -0.0651833 -1.17542e-17)
(0.907061 -0.0488301 -7.45407e-17)
(0.901831 -0.0308916 -1.655e-17)
(0.900738 -0.0107617 -7.90854e-17)
(1.05119 -0.0557674 -1.99653e-17)
(1.04568 -0.0652425 -1.28065e-17)
(1.03951 -0.0675292 -2.87024e-17)
(1.03201 -0.0730772 -3.50678e-17)
(1.02399 -0.0757403 -3.21533e-17)
(1.01522 -0.0784935 -5.87183e-17)
(1.00573 -0.0800369 2.46776e-18)
(0.995498 -0.080675 2.86612e-17)
(0.984538 -0.0803048 -3.86249e-17)
(0.972914 -0.0788805 1.18898e-17)
(0.960803 -0.0763824 4.53451e-17)
(0.948471 -0.0727954 2.53602e-17)
(0.936295 -0.0681092 5.16397e-17)
(0.924704 -0.0623275 3.87689e-17)
(0.914133 -0.0554117 1.3146e-16)
(0.904865 -0.0473999 6.37844e-17)
(0.89707 -0.0381987 2.75319e-17)
(0.890614 -0.0280766 5.3437e-17)
(0.885686 -0.0170121 3.76497e-17)
(0.882237 -0.00563635 1.38089e-16)
(1.03797 -0.0384213 -5.59136e-17)
(1.03391 -0.0457431 -1.53679e-17)
(1.02957 -0.0476908 -6.73505e-17)
(1.02437 -0.0522027 -8.53866e-17)
(1.01906 -0.0546298 -6.00363e-17)
(1.01359 -0.0572113 -3.32624e-18)
(1.00814 -0.0589704 -4.84953e-17)
(1.00281 -0.060113 6.7102e-17)