/*--------------------------------*- C++ -*----------------------------------*\
  =========                 |
  \\      /  F ield         | OpenFOAM: The Open Source CFD Toolbox
   \\    /   O peration     | Website:  https://openfoam.org
    \\  /    A nd           | Version:  7
     \\/     M anipulation  |
\*---------------------------------------------------------------------------*/
FoamFile
{
    version     2.0;
    format      ascii;
    class       volVectorField;
    location    "114";
    object      U;
}
// * * * * * * * * * * * * * * * * * * * * * * * * * * * * * * * * * * * * * //

dimensions      [0 1 -1 0 0 0 0];

internalField   nonuniform List<vector> 
125
(
(0.0513866 -0.0142889 1.70324e-18)
(0.0587128 -0.014788 8.16309e-19)
(0.0664311 -0.0153554 1.8897e-18)
(0.0745524 -0.0159925 9.62763e-19)
(0.0830878 -0.0167 1.14788e-18)
(0.0920489 -0.0174784 -1.41095e-18)
(0.101447 -0.0183278 7.37537e-19)
(0.111296 -0.0192478 -1.98295e-18)
(0.121606 -0.0202378 -4.54222e-20)
(0.132392 -0.021297 3.80345e-20)
(0.143666 -0.0224242 -1.63728e-20)
(0.155444 -0.0236184 1.54053e-19)
(0.0848658 -0.0170305 -9.20264e-20)
(0.0920042 -0.0174927 7.56916e-20)
(0.0995784 -0.0180174 4.96529e-21)
(0.107598 -0.0186082 -1.1816e-18)
(0.116074 -0.0192682 -7.49027e-18)
(0.125017 -0.0200001 -1.23043e-18)
(0.134438 -0.0208063 -7.84641e-18)
(0.144347 -0.0216887 -8.08118e-19)
(0.154757 -0.0226489 -6.51125e-18)
(0.165679 -0.0236879 8.93904e-18)
(0.177126 -0.0248066 1.40566e-18)
(0.18911 -0.0260051 8.95962e-18)
(0.201644 -0.0272836 -5.89941e-19)
(0.214742 -0.0286417 4.70141e-20)
(0.228419 -0.0300791 -3.40446e-20)
(0.24269 -0.0315952 -3.89847e-20)
(0.257571 -0.0331898 4.25201e-20)
(0.159476 -0.0225282 6.81342e-20)
(0.168501 -0.0233289 3.31775e-19)
(0.178058 -0.0241994 9.56057e-19)
(0.188158 -0.0251434 -6.4577e-19)
(0.198809 -0.0261642 -1.34496e-18)
(0.210023 -0.0272646 -5.60931e-19)
(0.221811 -0.0284474 -1.48957e-18)
(0.234183 -0.0297145 -2.56411e-19)
(0.24715 -0.0310679 -7.82104e-19)
(0.260724 -0.0325087 1.67931e-18)
(0.274916 -0.0340381 4.33883e-19)
(0.289738 -0.0356567 1.42909e-18)
(0.305204 -0.0373649 -1.80471e-19)
(0.321325 -0.039163 2.3124e-21)
(0.338117 -0.0410514 -2.56715e-20)
(0.355593 -0.0430303 1.31586e-19)
(0.373772 -0.0451004 4.9886e-19)
(0.244464 -0.029414 4.42993e-19)
(0.255591 -0.0306213 1.64647e-18)
(0.267341 -0.0319054 7.34265e-18)
(0.279723 -0.03327 7.78101e-21)
(0.292746 -0.0347185 7.93592e-19)
(0.306417 -0.0362539 1.36786e-19)
(0.320746 -0.0378789 9.13856e-19)
(0.335741 -0.0395956 2.23469e-19)
(0.35141 -0.0414059 2.92982e-19)
(0.36776 -0.0433113 -9.70692e-19)
(0.384802 -0.0453131 -2.18478e-19)
(0.402542 -0.0474121 -7.77481e-19)
(0.420989 -0.0496093 3.09357e-19)
(0.440152 -0.0519054 4.35379e-20)
(0.46004 -0.0543014 5.62376e-20)
(0.480663 -0.0567983 1.6461e-19)
(0.502032 -0.0593978 4.55381e-19)
(0.339617 -0.037817 3.85518e-19)
(0.352959 -0.0394927 1.0281e-18)
(0.366998 -0.0412506 2.08991e-18)
(0.381741 -0.0430944 2.30084e-18)
(0.39719 -0.0450272 7.89842e-18)
(0.413349 -0.0470517 1.73643e-18)
(0.430222 -0.0491704 7.89879e-18)
(0.44781 -0.0513851 5.12448e-19)
(0.466114 -0.0536976 4.65197e-18)
(0.485135 -0.0561092 -9.80073e-18)
(0.504874 -0.058621 -1.20767e-18)
(0.525328 -0.0612339 -8.15992e-18)
(0.546497 -0.0639486 1.43736e-18)
(0.568379 -0.0667659 -4.61314e-19)
(0.590969 -0.0696868 -3.94481e-20)
(0.614264 -0.0727123 -1.04397e-19)
(0.638258 -0.0758439 -3.89767e-19)
(0.443897 -0.0477794 2.53372e-19)
(0.459406 -0.0499697 6.93461e-19)
(0.475656 -0.0522442 8.00016e-19)
(0.492643 -0.0546056 1.03274e-18)
(0.510363 -0.0570565 1.80428e-18)
(0.528809 -0.0595986 4.833e-19)
(0.547974 -0.0622338 1.28078e-18)
(0.56785 -0.0649631 -1.65736e-19)
(0.588424 -0.0677874 3.47739e-20)
(0.609684 -0.0707071 -2.48038e-18)
(0.631615 -0.0737224 -4.56856e-19)
(0.6542 -0.0768333 -1.59841e-18)
(0.677419 -0.0800394 5.22486e-19)
(0.701251 -0.0833403 -4.70051e-19)
(0.72567 -0.0867354 -1.81733e-19)
(0.750649 -0.0902242 -3.4233e-19)
(0.776154 -0.0938056 -7.8885e-19)
(0.555228 -0.0592139 3.1372e-19)
(0.572638 -0.0619375 1.66245e-18)
(0.59078 -0.0647403 8.4644e-19)
(0.60964 -0.0676238 6.96126e-19)
(0.629198 -0.070589 -3.65624e-20)
(0.649435 -0.0736362 -1.49058e-19)
(0.670328 -0.0767656 -2.07207e-19)
(0.691849 -0.0799766 -6.63148e-19)
(0.713972 -0.0832683 -1.06396e-18)
(0.736662 -0.0866393 -1.51226e-18)
(0.759884 -0.0900878 -7.35343e-19)
(0.7836 -0.0936115 -1.44392e-18)
(0.807766 -0.0972077 -5.23046e-19)
(0.832336 -0.100873 -1.40616e-18)
(0.857257 -0.104604 -6.48843e-19)
(0.882474 -0.108397 -8.18595e-19)
(0.907924 -0.112246 -1.19829e-18)
(0.670394 -0.071865 -1.93096e-18)
(0.689182 -0.0751002 1.02646e-17)
(0.708629 -0.0783996 6.22932e-18)
(0.728705 -0.0817626 4.59641e-18)
(0.749374 -0.0851879 -1.34405e-18)
(0.770598 -0.0886736 -2.2573e-19)
(0.792334 -0.0922173 -1.06003e-18)
(0.814536 -0.095816 -1.9668e-18)
(0.837156 -0.0994662 -3.95749e-18)
(0.86014 -0.103164 -8.33873e-18)
(0.883429 -0.106904 -2.50341e-18)
)
;

boundaryField
{
    inlet
    {
        type            uniformFixedValue;
        uniformValue    constant (1 0 0);
        value           nonuniform 0();
    }
    outlet
    {
        type            pressureInletOutletVelocity;
        value           nonuniform 0();
    }
    polygon
    {
        type            fixedValue;
        value           nonuniform 0();
    }
    top
    {
        type            symmetryPlane;
    }
    bottom
    {
        type            symmetryPlane;
    }
    outside
    {
        type            zeroGradient;
    }
    procBoundary12to4
    {
        type            processor;
        value           nonuniform List<vector> 
18
(
(0.906964 -0.110682 -9.68398e-18)
(0.930679 -0.114491 -3.15393e-18)
(0.954504 -0.118325 -1.17866e-17)
(0.978367 -0.122177 -6.40435e-18)
(1.00219 -0.126039 -3.19822e-18)
(1.02589 -0.129902 -9.39821e-18)
(0.785185 -0.0852929 9.56379e-19)
(0.804585 -0.0889698 3.12333e-18)
(0.824505 -0.0926836 9.57391e-19)
(0.844898 -0.096431 2.14075e-19)
(0.865709 -0.100208 -6.02411e-19)
(0.886883 -0.10401 -3.82719e-19)
(0.908359 -0.107831 -8.60061e-19)
(0.930075 -0.111666 -1.1984e-18)
(0.951963 -0.11551 -1.87261e-18)
(0.973954 -0.119354 -2.20812e-18)
(0.906964 -0.110682 -9.68398e-18)
(0.995976 -0.123191 -1.6799e-18)
)
;
    }
    procBoundary12to5
    {
        type            processor;
        value           uniform (0.652294 -0.0686944 1.0421e-18);
    }
    procBoundary12to11
    {
        type            processor;
        value           nonuniform List<vector> 7((0.16774 -0.0248786 4.34112e-19) (0.27308 -0.0348627 7.67464e-19) (0.39267 -0.0472629 1.58776e-18) (0.524157 -0.062102 8.18709e-19) (0.662942 -0.0790834 -9.10736e-19) (0.802148 -0.097479 -1.09963e-18) (0.933539 -0.116146 -9.28045e-19));
    }
    procBoundary12to13
    {
        type            processor;
        value           nonuniform List<vector> 6((0.0781531 -0.0166271 -5.23605e-20) (0.150973 -0.0217932 1.26098e-19) (0.233952 -0.0282794 1.61453e-20) (0.326967 -0.0362197 3.32174e-20) (0.429129 -0.04567 2.43542e-19) (0.538562 -0.0565677 3.74402e-19));
    }
    procBoundary12to20
    {
        type            processor;
        value           nonuniform List<vector> 
18
(
(-0.0114402 -0.00991626 1.01978e-17)
(-0.00589257 -0.0101754 9.95315e-18)
(-4.41368e-05 -0.0104956 1.03296e-17)
(0.00611506 -0.0108779 9.52894e-18)
(0.0125952 -0.011323 1.96764e-19)
(0.0194065 -0.0118312 -9.26164e-18)
(0.0265598 -0.0124023 -1.79692e-18)
(0.0340658 -0.0130358 -9.97353e-18)
(0.0419355 -0.0137308 -8.72242e-19)
(0.0501803 -0.0144863 -6.14026e-20)
(0.0588116 -0.0153007 -1.98065e-19)
(0.0678413 -0.0161727 -2.81613e-20)
(0.0202747 -0.0127431 2.75716e-20)
(0.0257942 -0.0129347 3.48784e-19)
(0.0316555 -0.013182 7.19236e-20)
(0.0378681 -0.0134882 3.55034e-19)
(0.0444418 -0.0138563 6.47847e-19)
(0.0444418 -0.0138563 6.47847e-19)
)
;
    }
}


// ************************************************************************* //
