/*--------------------------------*- C++ -*----------------------------------*\
  =========                 |
  \\      /  F ield         | OpenFOAM: The Open Source CFD Toolbox
   \\    /   O peration     | Website:  https://openfoam.org
    \\  /    A nd           | Version:  7
     \\/     M anipulation  |
\*---------------------------------------------------------------------------*/
FoamFile
{
    version     2.0;
    format      ascii;
    class       volVectorField;
    location    "48";
    object      U;
}
// * * * * * * * * * * * * * * * * * * * * * * * * * * * * * * * * * * * * * //

dimensions      [0 1 -1 0 0 0 0];

internalField   nonuniform List<vector> 
175
(
(-0.41054 -0.0305055 1.18335e-17)
(-0.394059 -0.0301024 1.78969e-17)
(-0.377859 -0.0294488 -1.06432e-17)
(-0.362075 -0.0285625 -4.98333e-18)
(-0.346832 -0.027465 -1.15739e-17)
(-0.332242 -0.0261808 5.09633e-18)
(-0.318402 -0.0247373 1.58991e-18)
(-0.305392 -0.0231636 1.59444e-17)
(-0.293276 -0.0214903 -4.73876e-18)
(-0.282101 -0.0197484 8.60441e-18)
(-0.271896 -0.0179688 -8.95143e-18)
(-0.262671 -0.0161816 1.21332e-18)
(-0.254421 -0.014415 -5.92685e-18)
(-0.247126 -0.0126955 9.2162e-18)
(-0.240749 -0.0110465 -5.96151e-18)
(-0.235244 -0.00948851 4.28564e-18)
(-0.23055 -0.00803849 4.5924e-18)
(-0.226601 -0.00670949 4.96819e-18)
(-0.404838 -0.0328164 8.64793e-18)
(-0.388595 -0.0323747 1.10992e-17)
(-0.37263 -0.0316629 -6.94904e-18)
(-0.357079 -0.0307003 -4.36418e-18)
(-0.342064 -0.0295103 -6.26645e-18)
(-0.327696 -0.0281196 7.94394e-19)
(-0.314072 -0.0265579 1.24251e-18)
(-0.301271 -0.0248567 1.22399e-17)
(-0.289355 -0.0230493 2.95499e-19)
(-0.278372 -0.0211693 5.10017e-18)
(-0.268347 -0.01925 -6.2629e-18)
(-0.259293 -0.017324 -1.34322e-18)
(-0.251201 -0.0154219 -4.06556e-18)
(-0.244051 -0.013572 8.80837e-18)
(-0.237807 -0.0117998 -2.17193e-18)
(-0.232418 -0.0101274 3.99225e-18)
(-0.227827 -0.00857275 4.76829e-18)
(-0.223964 -0.0071499 1.65042e-18)
(-0.398752 -0.0350666 6.79322e-18)
(-0.382762 -0.0345858 4.98155e-18)
(-0.367048 -0.0338154 -4.92098e-18)
(-0.351744 -0.0327767 1.04658e-18)
(-0.336971 -0.0314947 -1.81128e-18)
(-0.32284 -0.0299985 -3.27862e-18)
(-0.309446 -0.0283198 1.01588e-18)
(-0.296866 -0.026493 9.71031e-18)
(-0.285164 -0.0245536 5.11011e-18)
(-0.274383 -0.0225379 2.43109e-18)
(-0.264551 -0.0204818 -4.30908e-18)
(-0.255676 -0.0184201 6.21706e-19)
(-0.247752 -0.0163858 -2.52942e-18)
(-0.240756 -0.0144092 1.0106e-17)
(-0.234651 -0.0125177 1.18007e-18)
(-0.229387 -0.0107347 4.42779e-18)
(-0.224903 -0.00907959 5.13204e-18)
(-0.221131 -0.00756708 2.51931e-18)
(-0.392293 -0.0372872 4.68591e-18)
(-0.376571 -0.0367668 -1.35799e-18)
(-0.361122 -0.0359377 -4.24963e-18)
(-0.346079 -0.0348227 2.1347e-18)
(-0.331562 -0.0334488 2.53424e-18)
(-0.317681 -0.0318471 -2.84849e-18)
(-0.304529 -0.030052 1.26936e-18)
(-0.292184 -0.0281 8.91947e-18)
(-0.280706 -0.0260293 5.56264e-18)
(-0.27014 -0.0238789 -1.00123e-18)
(-0.260509 -0.021687 -3.19671e-18)
(-0.251825 -0.0194909 2.5207e-18)
(-0.244077 -0.0173259 -1.29856e-18)
(-0.237243 -0.0152243 8.91262e-18)
(-0.231284 -0.0132154 6.80288e-19)
(-0.22615 -0.011324 -2.59912e-18)
(-0.221778 -0.00957066 6.13124e-18)
(-0.218101 -0.00797092 3.31649e-18)
(-0.38547 -0.0394694 2.59179e-18)
(-0.37003 -0.0389092 -2.50502e-18)
(-0.35486 -0.0380213 -4.18471e-18)
(-0.340091 -0.03683 3.7313e-18)
(-0.325844 -0.0353644 2.50025e-18)
(-0.312225 -0.0336578 -3.1226e-18)
(-0.299328 -0.0317468 -2.40771e-18)
(-0.287229 -0.0296705 4.82757e-18)
(-0.275987 -0.0274697 6.65972e-18)
(-0.265645 -0.0251858 -5.30202e-18)
(-0.256227 -0.0228597 -2.44879e-18)
(-0.247741 -0.0205311 1.1288e-18)
(-0.240178 -0.0182374 -1.61418e-19)
(-0.233514 -0.0160132 4.89559e-18)
(-0.227708 -0.0138892 -6.34194e-19)
(-0.222709 -0.0118922 -1.04293e-17)
(-0.218455 -0.0100435 4.10756e-18)
(-0.214875 -0.00835956 5.07416e-20)
(-0.378295 -0.0416072 -8.08214e-19)
(-0.363149 -0.0410068 6.68817e-19)
(-0.34827 -0.0400599 -4.87051e-18)
(-0.333789 -0.0387925 1.61827e-18)
(-0.319824 -0.0372356 2.42471e-18)
(-0.30648 -0.0354247 -3.96042e-18)
(-0.293849 -0.0333988 -6.75018e-18)
(-0.282007 -0.0311994 1.29335e-18)
(-0.271011 -0.0288699 8.02117e-18)
(-0.260904 -0.0264543 -6.20979e-18)
(-0.251708 -0.0239959 -1.39054e-18)
(-0.24343 -0.0215369 -4.01583e-19)
(-0.23606 -0.0191169 1.07313e-18)
(-0.229571 -0.0167727 1.67994e-18)
(-0.223924 -0.0145367 -2.6002e-18)
(-0.219066 -0.012437 -1.14254e-17)
(-0.214933 -0.0104964 3.20218e-18)
(-0.211453 -0.00873168 -3.14807e-18)
(-0.370779 -0.043697 -2.40383e-19)
(-0.355939 -0.0430562 4.00944e-18)
(-0.341364 -0.0420503 -4.28989e-19)
(-0.327182 -0.040707 4.6729e-18)
(-0.313509 -0.0390594 2.14943e-18)
(-0.300452 -0.0371451 -1.07553e-18)
(-0.288098 -0.0350052 -7.55022e-18)
(-0.276523 -0.0326841 -1.35668e-18)
(-0.265784 -0.0302276 5.85687e-18)
(-0.255921 -0.0276821 -4.04164e-18)
(-0.246955 -0.0250936 -2.73645e-19)
(-0.238893 -0.0225066 -1.46912e-18)
(-0.231723 -0.0199631 2.41051e-18)
(-0.225418 -0.0175017 2.64681e-18)
(-0.219936 -0.0151568 -5.39709e-19)
(-0.215223 -0.0129579 -1.01131e-17)
(-0.211214 -0.0109288 -8.28194e-19)
(-0.207837 -0.00908704 -2.93321e-18)
(-0.362932 -0.0457417 -9.43212e-19)
(-0.34841 -0.0450598 8.23334e-18)
(-0.334149 -0.0439945 3.98193e-18)
(-0.320277 -0.0425753 9.04239e-18)
(-0.306909 -0.0408372 2.41462e-18)
(-0.294148 -0.0388197 -3.06347e-18)
(-0.282082 -0.0365668 -9.38874e-18)
(-0.270784 -0.034125 3.85184e-19)
(-0.260311 -0.0315426 4.79568e-18)
(-0.2507 -0.0288688 -3.10918e-18)
(-0.241974 -0.0261521 1.33189e-18)
(-0.234136 -0.0234392 -2.99576e-18)
(-0.227173 -0.0207746 4.36666e-18)
(-0.221057 -0.0181988 -6.38444e-19)
(-0.215745 -0.0157482 7.84809e-19)
(-0.211181 -0.0134534 -1.02085e-17)
(-0.207299 -0.0113394 -4.65757e-18)
(-0.204026 -0.0094243 -3.30403e-18)
(-0.354767 -0.047767 -2.50419e-18)
(-0.340572 -0.0470422 8.25522e-18)
(-0.326636 -0.0459158 8.9453e-18)
(-0.313085 -0.044419 1.01587e-17)
(-0.300031 -0.0425886 2.13313e-18)
(-0.287576 -0.0404667 -5.89807e-18)
(-0.275807 -0.0380993 -7.88855e-18)
(-0.264795 -0.0355358 -1.33645e-18)
(-0.254596 -0.0328269 -5.31728e-19)
(-0.245247 -0.0300245 -2.66584e-18)
(-0.236767 -0.0271795 3.10341e-18)
(-0.22916 -0.0243413 -4.86072e-18)
(-0.222411 -0.0215565 7.09381e-18)
(-0.216491 -0.0188677 2.37381e-19)
(-0.211353 -0.0163131 3.0375e-18)
(-0.206942 -0.0139248 -8.0993e-18)
(-0.203189 -0.0117286 -8.83666e-18)
(-0.20002 -0.00974311 -3.92681e-18)
(-0.346293 -0.0497614 -6.36676e-18)
(-0.332435 -0.0489947 4.11814e-18)
(-0.318834 -0.0478081 9.96536e-18)
(-0.305612 -0.0462346 6.82292e-18)
(-0.292881 -0.0443131 1.46668e-18)
(-0.280741 -0.0420878 -4.90063e-18)
(-0.269278 -0.0396072 -7.49874e-18)
(-0.258562 -0.036923 1.39753e-18)
(-0.250142 -0.011669 6.35431e-18)
(-0.243631 -0.0101619 -1.628e-17)
(-0.238005 -0.00873654 1.47135e-18)
(-0.233206 -0.00740851 9.39624e-18)
(-0.229167 -0.00618987 4.44119e-18)
)
;

boundaryField
{
    inlet
    {
        type            uniformFixedValue;
        uniformValue    constant (1 0 0);
        value           nonuniform 0();
    }
    outlet
    {
        type            pressureInletOutletVelocity;
        value           nonuniform 0();
    }
    polygon
    {
        type            fixedValue;
        value           nonuniform 0();
    }
    top
    {
        type            symmetryPlane;
    }
    bottom
    {
        type            symmetryPlane;
    }
    outside
    {
        type            zeroGradient;
    }
    procBoundary21to13
    {
        type            processor;
        value           nonuniform List<vector> 
19
(
(-0.248645 -0.0340889 -1.36112e-18)
(-0.239565 -0.0311591 -2.43983e-18)
(-0.23134 -0.0281872 7.27807e-19)
(-0.223971 -0.0252252 -7.58301e-18)
(-0.217442 -0.0223218 7.07271e-18)
(-0.211721 -0.0195221 -3.70777e-18)
(-0.206762 -0.0168656 1.60007e-18)
(-0.202506 -0.0143861 -7.08648e-18)
(-0.198885 -0.0121103 -1.40328e-17)
(-0.195821 -0.0100574 -5.05483e-18)
(-0.320385 -0.0550708 -6.15138e-18)
(-0.307585 -0.0542083 -6.44675e-18)
(-0.295031 -0.052878 6.71729e-19)
(-0.28284 -0.0511167 -1.83479e-18)
(-0.271119 -0.0489681 -4.3872e-19)
(-0.259962 -0.0464818 -6.06011e-18)
(-0.249452 -0.0437124 -8.78283e-18)
(-0.248645 -0.0340889 -1.36112e-18)
(-0.239652 -0.040718 -2.36535e-18)
)
;
    }
    procBoundary21to20
    {
        type            processor;
        value           nonuniform List<vector> 8((-0.220757 -0.00586828 -3.37858e-19) (-0.217997 -0.00620706 7.20157e-19) (-0.215042 -0.00653505 1.86015e-18) (-0.211894 -0.00685094 3.06559e-18) (-0.208551 -0.00715386 4.67365e-18) (-0.205014 -0.0074438 -9.5113e-19) (-0.201283 -0.00771949 -6.75081e-18) (-0.197357 -0.00797988 -9.29607e-18));
    }
    procBoundary21to22
    {
        type            processor;
        value           nonuniform List<vector> 10((-0.427155 -0.0306443 3.96305e-18) (-0.421214 -0.0329726 3.95346e-18) (-0.414874 -0.0352415 1.23993e-17) (-0.408146 -0.037481 1.77006e-17) (-0.40104 -0.0396828 2.0536e-17) (-0.39357 -0.0418406 2.17207e-17) (-0.385746 -0.043951 2.08896e-17) (-0.377581 -0.0460172 1.83569e-17) (-0.369086 -0.0480656 1.924e-17) (-0.360275 -0.0500824 1.71679e-17));
    }
    procBoundary21to28
    {
        type            processor;
        value           nonuniform List<vector> 2((-0.223322 -0.00551063 -1.45525e-18) (-0.225815 -0.00508918 -3.24068e-18));
    }
    procBoundary21to29
    {
        type            processor;
        value           nonuniform List<vector> 
19
(
(-0.416231 -0.0278591 1.76811e-17)
(-0.399508 -0.0274974 2.09342e-17)
(-0.383068 -0.0269079 -1.15288e-17)
(-0.367048 -0.0261065 -6.45494e-18)
(-0.351573 -0.0251124 -1.2766e-17)
(-0.336756 -0.0239479 6.09679e-18)
(-0.322696 -0.0226375 1.67851e-18)
(-0.309473 -0.0212077 1.79844e-17)
(-0.297153 -0.0196861 -6.36265e-18)
(-0.285784 -0.0181008 9.03938e-18)
(-0.275394 -0.0164799 -1.3187e-17)
(-0.265996 -0.0148507 8.08503e-18)
(-0.257586 -0.0132391 -4.18279e-18)
(-0.253051 -0.0105195 -3.98896e-18)
(-0.246407 -0.00916418 -2.13819e-17)
(-0.240662 -0.00788165 -2.53872e-19)
(-0.235759 -0.00668585 6.41251e-18)
(-0.23163 -0.00558767 4.4256e-18)
(-0.257586 -0.0132391 -4.18279e-18)
)
;
    }
}


// ************************************************************************* //
