/*--------------------------------*- C++ -*----------------------------------*\
  =========                 |
  \\      /  F ield         | OpenFOAM: The Open Source CFD Toolbox
   \\    /   O peration     | Website:  https://openfoam.org
    \\  /    A nd           | Version:  7
     \\/     M anipulation  |
\*---------------------------------------------------------------------------*/
FoamFile
{
    version     2.0;
    format      ascii;
    class       volScalarField;
    location    "62";
    object      p;
}
// * * * * * * * * * * * * * * * * * * * * * * * * * * * * * * * * * * * * * //

dimensions      [0 2 -2 0 0 0 0];

internalField   nonuniform List<scalar> 
250
(
-0.217547
-0.232226
-0.235833
-0.245263
-0.248689
-0.254275
-0.256774
-0.259953
-0.261516
-0.262904
-0.214
-0.230299
-0.232875
-0.243141
-0.245579
-0.251403
-0.25349
-0.256548
-0.25803
-0.259311
-0.209734
-0.2265
-0.228763
-0.238861
-0.241116
-0.246518
-0.248551
-0.251283
-0.252737
-0.253877
-0.204678
-0.221097
-0.223479
-0.232899
-0.235245
-0.240036
-0.242058
-0.244425
-0.245817
-0.246814
-0.198715
-0.214557
-0.217097
-0.225733
-0.228133
-0.232305
-0.234243
-0.236256
-0.237525
-0.23838
-0.191774
-0.207053
-0.209671
-0.217615
-0.219973
-0.223602
-0.22537
-0.227057
-0.228154
-0.228865
-0.184029
-0.198863
-0.201487
-0.208856
-0.211093
-0.214246
-0.215784
-0.217159
-0.218053
-0.218612
-0.175728
-0.190202
-0.1928
-0.1997
-0.201787
-0.204527
-0.205813
-0.206894
-0.207575
-0.20798
-0.167257
-0.181392
-0.183967
-0.190461
-0.192402
-0.194778
-0.195814
-0.196619
-0.197088
-0.197344
-0.158972
-0.1727
-0.175272
-0.181391
-0.183221
-0.185281
-0.186094
-0.186653
-0.186928
-0.187047
-0.15124
-0.164429
-0.167021
-0.172764
-0.174523
-0.176311
-0.176937
-0.177292
-0.177397
-0.177399
-0.14434
-0.156805
-0.159435
-0.164781
-0.166513
-0.168072
-0.168564
-0.168757
-0.16873
-0.168641
-0.138497
-0.150044
-0.15271
-0.157626
-0.159359
-0.160732
-0.161141
-0.161218
-0.161099
-0.160947
-0.133827
-0.14428
-0.146958
-0.151413
-0.153156
-0.154386
-0.154757
-0.154767
-0.154599
-0.154412
-0.130377
-0.139601
-0.142247
-0.146216
-0.147957
-0.14908
-0.149447
-0.149436
-0.149256
-0.149062
-0.128099
-0.136019
-0.138576
-0.142047
-0.143754
-0.144807
-0.145191
-0.145199
-0.14504
-0.144865
-0.12689
-0.133496
-0.135903
-0.138876
-0.140513
-0.141513
-0.141926
-0.141982
-0.14187
-0.141735
-0.126587
-0.131934
-0.134131
-0.136628
-0.138161
-0.139111
-0.139559
-0.13968
-0.139637
-0.139558
-0.126997
-0.131192
-0.133136
-0.135197
-0.136594
-0.13749
-0.13797
-0.138162
-0.138199
-0.138186
-0.127908
-0.131096
-0.132764
-0.134444
-0.135684
-0.136527
-0.137035
-0.137301
-0.137425
-0.137491
-0.129107
-0.131453
-0.132848
-0.134208
-0.135291
-0.136082
-0.136614
-0.136948
-0.137156
-0.137297
-0.130385
-0.132062
-0.133208
-0.134314
-0.135267
-0.136022
-0.136587
-0.136994
-0.137298
-0.137535
-0.131553
-0.132721
-0.13366
-0.134583
-0.135447
-0.136192
-0.136802
-0.137283
-0.137668
-0.137975
-0.132427
-0.133229
-0.134012
-0.134828
-0.135665
-0.136452
-0.137156
-0.137759
-0.13828
-0.138731
-0.132827
-0.133375
-0.134059
-0.134841
-0.135718
-0.136604
-0.137448
-0.138188
-0.138813
-0.13932
)
;

boundaryField
{
    inlet
    {
        type            zeroGradient;
    }
    outlet
    {
        type            fixedValue;
        value           nonuniform 0();
    }
    polygon
    {
        type            zeroGradient;
    }
    top
    {
        type            symmetryPlane;
    }
    bottom
    {
        type            symmetryPlane;
    }
    outside
    {
        type            slip;
    }
    procBoundary2to1
    {
        type            processor;
        value           nonuniform List<scalar> 9(-0.132551 -0.132938 -0.133595 -0.134416 -0.135419 -0.1365 -0.137603 -0.138628 -0.139547);
    }
    procBoundary2to3
    {
        type            processor;
        value           nonuniform List<scalar> 10(-0.217904 -0.231942 -0.23634 -0.245374 -0.249683 -0.25505 -0.258183 -0.261233 -0.263075 -0.264449);
    }
    procBoundary2to5
    {
        type            processor;
        value           uniform -0.140352;
    }
    procBoundary2to6
    {
        type            processor;
        value           nonuniform List<scalar> 
25
(
-0.263412
-0.259815
-0.254361
-0.247255
-0.238756
-0.229164
-0.218828
-0.208113
-0.197398
-0.187033
-0.17733
-0.168533
-0.160818
-0.154279
-0.148937
-0.144762
-0.141662
-0.139527
-0.138199
-0.137562
-0.137419
-0.137739
-0.138218
-0.139114
-0.139705
)
;
    }
}


// ************************************************************************* //
