/*--------------------------------*- C++ -*----------------------------------*\
  =========                 |
  \\      /  F ield         | OpenFOAM: The Open Source CFD Toolbox
   \\    /   O peration     | Website:  https://openfoam.org
    \\  /    A nd           | Version:  7
     \\/     M anipulation  |
\*---------------------------------------------------------------------------*/
FoamFile
{
    version     2.0;
    format      ascii;
    class       volScalarField;
    location    "6";
    object      p;
}
// * * * * * * * * * * * * * * * * * * * * * * * * * * * * * * * * * * * * * //

dimensions      [0 2 -2 0 0 0 0];

internalField   nonuniform List<scalar> 
8000
(
0.000260534
0.000765886
0.00127787
0.0017853
0.00229612
0.00280523
0.00331618
0.00382678
0.00433866
0.00485095
0.00536446
0.00587892
0.00639482
0.00691217
0.00743136
0.00795258
0.00847621
0.00900255
0.00953204
0.0100651
0.0106022
0.011144
0.0116909
0.0122438
0.0128033
0.0133702
0.0139454
0.0145299
0.0151246
0.0157307
0.0163493
0.0169817
0.0176293
0.0182933
0.0189753
0.0196767
0.0203992
0.0211443
0.0219137
0.0227089
0.0235315
0.0243831
0.0252652
0.0261791
0.0271261
0.0281073
0.0291235
0.0301753
0.0312631
0.0323869
0.0335466
0.0347418
0.0359722
0.0372376
0.0385385
0.0398765
0.0412542
0.0426763
0.044149
0.0456797
0.0472765
0.0489456
0.0506893
0.0525023
0.0543676
0.0562517
0.0581004
0.0598331
0.0613379
0.0624632
0.0630062
0.0626939
0.061138
0.0578061
0.0519898
0.0427494
0.0289177
0.0091513
-0.0179503
-0.0536611
-0.0987671
-0.153362
-0.216249
-0.285154
-0.356221
-0.425233
-0.487448
-0.539515
-0.578798
-0.603991
-0.615329
-0.612676
-0.596633
-0.569626
-0.53555
-0.498991
-0.468056
-0.443519
-0.439389
-0.435503
0.00026059
0.000764659
0.00127633
0.00178291
0.00229321
0.0028016
0.00331198
0.00382192
0.00433322
0.00484491
0.00535786
0.00587177
0.00638714
0.006904
0.00742272
0.0079435
0.00846671
0.00899268
0.00952182
0.0100546
0.0105914
0.011133
0.0116797
0.0122325
0.0127918
0.0133587
0.0139339
0.0145184
0.0151132
0.0157195
0.0163383
0.016971
0.0176188
0.0182832
0.0189657
0.0196678
0.0203909
0.0211369
0.0219072
0.0227036
0.0235277
0.0243811
0.0252654
0.0261821
0.0271324
0.0281177
0.029139
0.030197
0.0312922
0.0324249
0.0335952
0.0348027
0.0360475
0.0373295
0.0386494
0.0400088
0.0414109
0.0428606
0.0443648
0.045932
0.0475714
0.0492916
0.0510973
0.0529865
0.0549464
0.0569481
0.0589422
0.0608534
0.0625743
0.0639574
0.064802
0.0648347
0.0637031
0.0608906
0.0556944
0.0471954
0.0342449
0.0155084
-0.0104186
-0.0448538
-0.0886323
-0.141966
-0.203754
-0.272077
-0.343139
-0.412401
-0.475849
-0.52962
-0.570984
-0.598472
-0.611483
-0.61055
-0.596392
-0.570759
-0.537458
-0.50108
-0.469674
-0.444069
-0.437579
-0.433834
0.000260485
0.000763549
0.00127479
0.00178066
0.00229046
0.00279823
0.00330807
0.00381743
0.00432819
0.00483932
0.00535174
0.00586512
0.00637998
0.00689633
0.00741456
0.00793486
0.00845762
0.00898314
0.00951186
0.0100442
0.0105807
0.0111219
0.0116683
0.0122207
0.0127798
0.0133464
0.0139214
0.0145057
0.0151003
0.0157064
0.0163251
0.0169577
0.0176055
0.0182699
0.0189524
0.0196545
0.0203779
0.021124
0.0218947
0.0226915
0.0235163
0.0243706
0.0252561
0.0261743
0.0271268
0.0281149
0.0291397
0.0302021
0.0313028
0.0324424
0.0336208
0.0348382
0.0360945
0.03739
0.0387254
0.0401026
0.041525
0.0429977
0.0445282
0.0461258
0.0478008
0.0495633
0.0514204
0.0533732
0.0554124
0.0575139
0.0596335
0.0617018
0.0636179
0.065241
0.066378
0.066761
0.0660318
0.0637043
0.0590836
0.0512693
0.0391285
0.0213352
-0.00351856
-0.0367907
-0.0793632
-0.131554
-0.192312
-0.259968
-0.33058
-0.400303
-0.464553
-0.519594
-0.562511
-0.591639
-0.606506
-0.607091
-0.59427
-0.569773
-0.53737
-0.501474
-0.469982
-0.444216
-0.435504
-0.431789
0.000260345
0.000762516
0.00127333
0.00177849
0.00228779
0.00279493
0.00330424
0.00381302
0.00432324
0.00483381
0.0053457
0.00585855
0.0063729
0.00688875
0.0074065
0.00792633
0.00844863
0.00897372
0.00950202
0.010034
0.0105701
0.0111109
0.011657
0.0122091
0.0127679
0.0133342
0.0139089
0.0144929
0.0150873
0.0156932
0.0163117
0.0169441
0.0175918
0.018256
0.0189384
0.0196405
0.0203637
0.0211099
0.0218807
0.0226778
0.0235029
0.0243577
0.0252441
0.0261635
0.0271176
0.0281078
0.0291353
0.0302014
0.0313067
0.0324519
0.0336374
0.0348632
0.0361295
0.0374368
0.0387859
0.0401788
0.0416189
0.0431119
0.0446653
0.046289
0.0479943
0.0497925
0.0516926
0.0536982
0.0558034
0.0579881
0.0602132
0.0624146
0.0644972
0.0663264
0.067716
0.0684068
0.0680406
0.066142
0.0620349
0.0548403
0.043446
0.0265418
0.00272846
-0.0293789
-0.0707078
-0.121572
-0.181311
-0.247831
-0.318065
-0.387865
-0.452763
-0.508956
-0.553402
-0.584245
-0.600759
-0.602898
-0.59151
-0.568213
-0.536698
-0.501273
-0.469673
-0.443667
-0.433187
-0.429169
0.00026016
0.000761489
0.00127182
0.00177629
0.00228506
0.00279157
0.00330032
0.0038085
0.00431816
0.00482816
0.0053395
0.0058518
0.00636561
0.00688093
0.00739815
0.00791748
0.00843928
0.00896388
0.00949171
0.0100232
0.0105589
0.0110992
0.0116449
0.0121966
0.012755
0.0133209
0.0138952
0.0144789
0.015073
0.0156785
0.0162967
0.0169287
0.017576
0.01824
0.0189221
0.0196238
0.0203468
0.0210927
0.0218633
0.0226602
0.0234853
0.0243403
0.025227
0.026147
0.0271021
0.0280937
0.0291232
0.030192
0.0313008
0.0324505
0.0336415
0.0348742
0.0361488
0.0374659
0.0388263
0.0402323
0.0416875
0.0431973
0.0447698
0.0464153
0.0481456
0.049973
0.0519082
0.0539569
0.0561162
0.0583698
0.060683
0.0629969
0.065222
0.0672292
0.0688384
0.069798
0.0697574
0.0682526
0.0646255
0.0580187
0.047344
0.0313101
0.00853132
-0.0224033
-0.0624744
-0.112089
-0.170321
-0.236026
-0.305672
-0.375451
-0.440901
-0.498149
-0.544036
-0.57651
-0.594695
-0.598323
-0.588324
-0.566195
-0.535555
-0.500604
-0.468898
-0.442656
-0.430751
-0.426041
0.000259935
0.000760473
0.0012703
0.00177408
0.0022823
0.00278818
0.00329636
0.00380394
0.00431303
0.00482244
0.00533321
0.00584493
0.00635819
0.00687295
0.00738963
0.00790841
0.00842969
0.00895377
0.00948108
0.0100121
0.0105472
0.0110871
0.0116323
0.0121835
0.0127414
0.0133068
0.0138807
0.0144639
0.0150574
0.0156625
0.0162801
0.0169117
0.0175585
0.0182219
0.0189034
0.0196046
0.020327
0.0210724
0.0218424
0.0226389
0.0234636
0.0243182
0.0252047
0.0261248
0.0270801
0.0280723
0.029103
0.0301733
0.0312845
0.0324373
0.0336324
0.0348701
0.036151
0.0374755
0.0388449
0.0402611
0.041728
0.0432511
0.0448387
0.0465011
0.0482508
0.0501008
0.0520631
0.0541452
0.0563466
0.0586545
0.0610384
0.0634442
0.0657876
0.0679455
0.0697438
0.0709381
0.0711865
0.0700366
0.0668488
0.0607864
0.050786
0.0355774
0.0137918
-0.0159974
-0.0547964
-0.103059
-0.160079
-0.224715
-0.293689
-0.363324
-0.429196
-0.487376
-0.534605
-0.568635
-0.588443
-0.593667
-0.585055
-0.564096
-0.53432
-0.499825
-0.467984
-0.441457
-0.428348
-0.422623
0.000259679
0.000759466
0.00126875
0.00177186
0.00227953
0.00278478
0.00329239
0.00379936
0.00430786
0.00481668
0.00532687
0.00583801
0.00635069
0.00686487
0.00738098
0.00789919
0.00841989
0.00894341
0.00947016
0.0100006
0.0105352
0.0110745
0.0116191
0.0121697
0.0127271
0.0132919
0.0138652
0.0144478
0.0150407
0.0156451
0.0162621
0.016893
0.017539
0.0182017
0.0188825
0.0195828
0.0203044
0.021049
0.0218182
0.0226138
0.0234376
0.0242915
0.0251773
0.0260967
0.0270517
0.0280438
0.0290746
0.0301455
0.0312578
0.0324123
0.0336098
0.0348508
0.0361358
0.0374655
0.038841
0.0402645
0.0417398
0.0432724
0.0448707
0.0465451
0.0483085
0.0501745
0.0521558
0.0542615
0.0564934
0.0588414
0.0612786
0.0637555
0.0661929
0.0684734
0.0704289
0.0718231
0.0723235
0.0714846
0.0686885
0.0631209
0.053744
0.0393089
0.0184637
-0.0102098
-0.0479097
-0.0946559
-0.150595
-0.214194
-0.282505
-0.351963
-0.418211
-0.477266
-0.525781
-0.561345
-0.582774
-0.589279
-0.582071
-0.562288
-0.533366
-0.49931
-0.46731
-0.440399
-0.426213
-0.419129
0.000259399
0.000758457
0.00126716
0.00176958
0.00227664
0.00278123
0.00328821
0.00379454
0.00430242
0.00481061
0.00532017
0.00583069
0.00634275
0.00685631
0.00737181
0.00788942
0.00840952
0.00893242
0.00945857
0.00998838
0.0105224
0.011061
0.0116051
0.012155
0.0127117
0.013276
0.0138485
0.0144304
0.0150226
0.0156263
0.0162425
0.0168725
0.0175177
0.0181795
0.0188593
0.0195586
0.0202792
0.0210226
0.0217907
0.0225851
0.0234077
0.0242604
0.025145
0.0260634
0.0270173
0.0280085
0.0290387
0.0301093
0.0312215
0.0323764
0.0335748
0.0348173
0.0361044
0.037437
0.038816
0.0402439
0.0417242
0.0432626
0.0448672
0.0465488
0.0483202
0.0501955
0.0521882
0.0543085
0.0565598
0.0589346
0.0614091
0.0639378
0.066446
0.0688216
0.070903
0.0724614
0.0731742
0.0726025
0.0701481
0.0650201
0.0562095
0.0424924
0.0225373
-0.00504201
-0.0415467
-0.0870251
-0.141679
-0.204168
-0.271706
-0.34086
-0.40736
-0.467189
-0.516921
-0.553962
-0.577059
-0.585491
-0.579708
-0.561195
-0.533176
-0.499549
-0.467311
-0.439863
-0.424625
-0.415876
0.000259109
0.000757538
0.00126573
0.0017676
0.00227415
0.00277821
0.00328468
0.00379048
0.00429783
0.00480548
0.00531452
0.00582449
0.00633601
0.00684902
0.00736396
0.007881
0.00840053
0.00892286
0.00944841
0.00997762
0.010511
0.011049
0.0115924
0.0121417
0.0126977
0.0132612
0.0138331
0.0144142
0.0150056
0.0156084
0.0162237
0.0168528
0.017497
0.0181577
0.0188364
0.0195346
0.020254
0.0209961
0.0217628
0.0225558
0.0233769
0.0242281
0.0251112
0.026028
0.0269803
0.0279701
0.0289988
0.0300681
0.0311792
0.0323333
0.0335311
0.0347734
0.0360608
0.0373939
0.0387741
0.0402034
0.0416856
0.0432263
0.0448335
0.046518
0.0482926
0.0501718
0.0521694
0.0542964
0.0565576
0.0589472
0.0614438
0.0640051
0.0665602
0.0690017
0.0711738
0.0728552
0.0737336
0.0733913
0.0712518
0.0665189
0.0582063
0.0451078
0.0259053
-0.000766756
-0.0363425
-0.0808593
-0.134582
-0.196306
-0.26337
-0.33243
-0.399271
-0.459835
-0.51064
-0.548979
-0.573469
-0.582762
-0.578274
-0.56086
-0.533653
-0.500406
-0.468081
-0.440136
-0.423971
-0.413353
0.000258722
0.000756266
0.00126361
0.00176458
0.00227024
0.0027734
0.00327897
0.00378388
0.00429034
0.0047971
0.00530525
0.00581433
0.00632496
0.00683709
0.00735115
0.0078673
0.00838593
0.00890735
0.00943199
0.00996026
0.0104927
0.0110298
0.0115721
0.0121204
0.0126754
0.0132378
0.0138084
0.0143883
0.0149785
0.0155799
0.0161938
0.0168213
0.0174639
0.0181228
0.0187996
0.0194958
0.020213
0.0209529
0.0217171
0.0225075
0.0233258
0.0241741
0.025054
0.0259675
0.0269165
0.0279026
0.0289277
0.0299931
0.0311002
0.0322502
0.0334439
0.0346819
0.0359649
0.0372936
0.0386692
0.0400937
0.0415707
0.0431057
0.0447065
0.0463838
0.0481502
0.0500203
0.0520082
0.0541257
0.0563784
0.0587624
0.0612587
0.0638282
0.0664043
0.0688851
0.0711213
0.0729008
0.0739203
0.073732
0.0718392
0.0674839
0.0597103
0.0473415
0.0290783
0.00355171
-0.0305565
-0.0736021
-0.125841
-0.186254
-0.252391
-0.321059
-0.388162
-0.449631
-0.501905
-0.542113
-0.568825
-0.580854
-0.578249
-0.562633
-0.536696
-0.503915
-0.471132
-0.441926
-0.424227
-0.411202
-0.247696
-0.243373
-0.242325
-0.241291
-0.241696
-0.243068
-0.245703
-0.249637
-0.2551
-0.262323
-0.271712
-0.283525
-0.298558
-0.317523
-0.342449
-0.37472
-0.420571
-0.48046
-0.571734
-0.677905
-0.252615
-0.248588
-0.247737
-0.247003
-0.247694
-0.249378
-0.252334
-0.256605
-0.262407
-0.269985
-0.279707
-0.291814
-0.307156
-0.326563
-0.352093
-0.38565
-0.433946
-0.495949
-0.566745
-0.616474
-0.257268
-0.253509
-0.252886
-0.25248
-0.253542
-0.255646
-0.259082
-0.2639
-0.270321
-0.278588
-0.289075
-0.302129
-0.318643
-0.33958
-0.367051
-0.402603
-0.451211
-0.508674
-0.556139
-0.608517
-0.261697
-0.258222
-0.257844
-0.257777
-0.259227
-0.26178
-0.265731
-0.271134
-0.278215
-0.287215
-0.298513
-0.312538
-0.330175
-0.352403
-0.381185
-0.41753
-0.463747
-0.515159
-0.546305
-0.590748
-0.26592
-0.262751
-0.262629
-0.2629
-0.264729
-0.267714
-0.272152
-0.278095
-0.285767
-0.295405
-0.307379
-0.322143
-0.340534
-0.363429
-0.392488
-0.428325
-0.470359
-0.512971
-0.536463
-0.569322
-0.269935
-0.267084
-0.267225
-0.267833
-0.270033
-0.273435
-0.278332
-0.284774
-0.292978
-0.303174
-0.315713
-0.331045
-0.349944
-0.373107
-0.401684
-0.436019
-0.473171
-0.504653
-0.526444
-0.543862
-0.27373
-0.271207
-0.271615
-0.272564
-0.275133
-0.278947
-0.284291
-0.291213
-0.299918
-0.310622
-0.323643
-0.339392
-0.358545
-0.381573
-0.408991
-0.440911
-0.473606
-0.493951
-0.515902
-0.521103
-0.277299
-0.275111
-0.27579
-0.277083
-0.280023
-0.284249
-0.290037
-0.297428
-0.306614
-0.317791
-0.331244
-0.347335
-0.366636
-0.389388
-0.415311
-0.443921
-0.471898
-0.483963
-0.50448
-0.501467
-0.280635
-0.278798
-0.279746
-0.281391
-0.284705
-0.289345
-0.295575
-0.303427
-0.313076
-0.324686
-0.338487
-0.354735
-0.373787
-0.395594
-0.419195
-0.443641
-0.467075
-0.475748
-0.492243
-0.485597
-0.28373
-0.282268
-0.283477
-0.285489
-0.289182
-0.294246
-0.300923
-0.30924
-0.319346
-0.331375
-0.345511
-0.361949
-0.380928
-0.402231
-0.424315
-0.445444
-0.464692
-0.473
-0.487326
-0.471972
-0.187369
-0.179359
-0.175666
-0.171167
-0.167749
-0.16479
-0.162539
-0.161032
-0.160436
-0.16088
-0.162644
-0.165859
-0.171136
-0.178496
-0.189341
-0.203277
-0.22317
-0.244984
-0.273471
-0.286941
-0.195006
-0.187177
-0.184173
-0.180211
-0.177616
-0.175614
-0.174521
-0.174376
-0.175383
-0.177702
-0.181684
-0.187456
-0.195725
-0.206443
-0.22122
-0.239305
-0.264067
-0.289353
-0.32076
-0.316946
-0.201921
-0.194411
-0.191796
-0.18823
-0.186135
-0.184677
-0.184213
-0.184754
-0.18651
-0.18962
-0.194448
-0.201091
-0.210427
-0.222289
-0.238614
-0.25819
-0.285416
-0.311954
-0.34774
-0.339544
-0.208146
-0.201042
-0.198628
-0.195377
-0.193629
-0.192542
-0.192508
-0.193522
-0.195811
-0.199509
-0.20503
-0.212454
-0.222874
-0.235996
-0.254165
-0.275678
-0.306166
-0.334801
-0.375513
-0.365662
-0.214109
-0.207425
-0.205193
-0.202257
-0.200852
-0.200146
-0.200568
-0.202103
-0.205009
-0.209429
-0.21584
-0.224279
-0.236075
-0.250772
-0.271134
-0.294964
-0.329106
-0.360137
-0.404546
-0.3925
-0.220018
-0.213743
-0.211723
-0.209123
-0.208081
-0.20779
-0.2087
-0.210794
-0.214354
-0.219527
-0.226842
-0.236256
-0.249357
-0.2655
-0.287812
-0.313677
-0.351003
-0.384115
-0.431689
-0.418558
-0.225865
-0.219988
-0.218193
-0.215933
-0.21525
-0.215368
-0.216743
-0.219358
-0.223507
-0.229335
-0.237401
-0.247572
-0.261699
-0.279006
-0.30285
-0.330576
-0.370876
-0.407236
-0.458451
-0.44483
-0.231584
-0.2261
-0.224521
-0.222592
-0.222239
-0.222734
-0.224522
-0.227587
-0.232227
-0.238584
-0.247227
-0.257968
-0.272844
-0.29116
-0.316113
-0.345455
-0.387667
-0.426645
-0.481325
-0.471178
-0.237134
-0.23204
-0.23066
-0.229046
-0.22899
-0.229828
-0.231973
-0.235422
-0.240461
-0.247248
-0.256212
-0.267721
-0.282967
-0.301971
-0.327579
-0.358637
-0.402942
-0.449304
-0.508745
-0.508751
-0.242509
-0.237804
-0.236601
-0.235287
-0.235491
-0.236633
-0.239078
-0.242839
-0.248186
-0.255289
-0.264599
-0.276571
-0.292019
-0.311427
-0.337154
-0.368722
-0.411863
-0.457752
-0.516791
-0.503724
0.0546905
0.0537871
0.0552171
0.0540087
0.0562124
0.0547107
0.0582361
0.0564118
0.0622147
0.0601253
0.0701247
0.0679924
0.0860695
0.0844725
0.119401
0.119871
0.194057
0.2022
0.369455
0.430227
0.0546884
0.0537883
0.0552134
0.054016
0.0562097
0.054733
0.0582409
0.0564674
0.0622466
0.0602569
0.070232
0.0683117
0.0863625
0.0852464
0.120164
0.121798
0.196062
0.206633
0.375104
0.422904
0.0546854
0.0537861
0.0552072
0.0540185
0.0562021
0.0547407
0.0582339
0.056489
0.0622457
0.0603163
0.0702508
0.068459
0.0864355
0.0856015
0.120353
0.122624
0.196442
0.207764
0.375398
0.41029
0.0546816
0.0537818
0.0551983
0.0540201
0.0561897
0.0547486
0.0582183
0.0565122
0.0622315
0.0603768
0.0702521
0.0686146
0.0864834
0.0859799
0.120499
0.123461
0.196616
0.20832
0.374492
0.391132
0.054677
0.0537752
0.0551868
0.0540199
0.0561725
0.0547515
0.0581938
0.0565241
0.0621989
0.0604146
0.0702127
0.068717
0.086437
0.0862241
0.120398
0.123905
0.196015
0.207394
0.370821
0.3657
0.0546715
0.053766
0.0551728
0.0540178
0.0561506
0.0547507
0.0581603
0.0565283
0.0621489
0.0604346
0.0701381
0.0687801
0.0863149
0.0863714
0.120111
0.124054
0.194798
0.205265
0.364685
0.334016
0.0546653
0.0537544
0.0551563
0.0540138
0.0561239
0.0547458
0.0581176
0.0565235
0.0620809
0.0604353
0.0700274
0.0687995
0.0861128
0.0864095
0.119621
0.123876
0.192912
0.201924
0.355876
0.295834
0.0546584
0.0537401
0.0551379
0.0540086
0.0560929
0.0547374
0.0580663
0.0565101
0.061995
0.0604159
0.0698784
0.068773
0.085827
0.0863335
0.118925
0.123367
0.190358
0.197432
0.344116
0.250715
0.0546511
0.0537212
0.0551184
0.0539988
0.0560593
0.0547227
0.0580095
0.0564849
0.061898
0.0603736
0.0697011
0.0686962
0.0854681
0.0861328
0.118025
0.122497
0.187134
0.191805
0.329294
0.198248
0.0546419
0.0537033
0.0550918
0.0539909
0.0560139
0.0547069
0.0579304
0.0564585
0.0617673
0.0603311
0.0694836
0.0686217
0.0850558
0.085933
0.117048
0.121586
0.183572
0.185789
0.312256
0.137259
0.0546419
0.0537033
0.0550918
0.0539909
0.0560139
0.0547069
0.0579304
0.0564585
0.0617673
0.0603311
0.0694836
0.0686217
0.0850558
0.085933
0.117048
0.121586
0.183572
0.185789
0.312256
0.137259
0.0546511
0.0537212
0.0551184
0.0539988
0.0560593
0.0547227
0.0580094
0.0564849
0.061898
0.0603736
0.0697011
0.0686962
0.0854681
0.0861328
0.118025
0.122497
0.187134
0.191805
0.329294
0.198248
0.0546584
0.0537401
0.0551379
0.0540086
0.0560929
0.0547374
0.0580663
0.0565101
0.061995
0.0604159
0.0698784
0.068773
0.085827
0.0863335
0.118925
0.123367
0.190358
0.197432
0.344116
0.250715
0.0546653
0.0537544
0.0551563
0.0540138
0.0561239
0.0547458
0.0581176
0.0565235
0.0620809
0.0604353
0.0700274
0.0687995
0.0861128
0.0864095
0.119621
0.123876
0.192912
0.201924
0.355876
0.295834
0.0546715
0.053766
0.0551728
0.0540178
0.0561506
0.0547507
0.0581603
0.0565283
0.0621489
0.0604346
0.0701381
0.0687801
0.0863149
0.0863714
0.120111
0.124054
0.194798
0.205265
0.364685
0.334016
0.054677
0.0537752
0.0551868
0.0540199
0.0561725
0.0547515
0.0581938
0.0565241
0.0621989
0.0604146
0.0702127
0.068717
0.086437
0.0862241
0.120398
0.123905
0.196015
0.207394
0.370821
0.3657
0.0546816
0.0537818
0.0551983
0.0540201
0.0561897
0.0547486
0.0582183
0.0565122
0.0622315
0.0603768
0.0702521
0.0686146
0.0864834
0.0859799
0.120499
0.123461
0.196616
0.20832
0.374492
0.391132
0.0546854
0.0537861
0.0552072
0.0540185
0.0562021
0.0547407
0.0582339
0.056489
0.0622457
0.0603163
0.0702508
0.068459
0.0864355
0.0856015
0.120353
0.122624
0.196442
0.207764
0.375398
0.41029
0.0546884
0.0537883
0.0552134
0.054016
0.0562097
0.054733
0.0582409
0.0564674
0.0622466
0.0602569
0.070232
0.0683117
0.0863625
0.0852464
0.120164
0.121798
0.196062
0.206633
0.375104
0.422904
0.0546905
0.0537871
0.0552171
0.0540087
0.0562124
0.0547107
0.0582361
0.0564118
0.0622147
0.0601253
0.0701247
0.0679924
0.0860695
0.0844725
0.119401
0.119871
0.194057
0.2022
0.369455
0.430227
-0.242509
-0.237804
-0.236601
-0.235287
-0.235491
-0.236633
-0.239078
-0.242839
-0.248186
-0.255289
-0.264599
-0.276571
-0.292019
-0.311427
-0.337154
-0.368722
-0.411863
-0.457752
-0.516791
-0.503724
-0.237134
-0.23204
-0.23066
-0.229046
-0.22899
-0.229828
-0.231973
-0.235422
-0.240462
-0.247248
-0.256212
-0.267721
-0.282967
-0.301971
-0.327579
-0.358637
-0.402942
-0.449304
-0.508745
-0.508751
-0.231584
-0.2261
-0.224521
-0.222592
-0.222239
-0.222734
-0.224522
-0.227587
-0.232227
-0.238584
-0.247227
-0.257968
-0.272844
-0.29116
-0.316113
-0.345455
-0.387667
-0.426645
-0.481325
-0.471178
-0.225865
-0.219988
-0.218193
-0.215933
-0.21525
-0.215368
-0.216743
-0.219358
-0.223507
-0.229335
-0.237401
-0.247572
-0.261699
-0.279006
-0.30285
-0.330576
-0.370876
-0.407236
-0.458451
-0.44483
-0.220018
-0.213743
-0.211723
-0.209123
-0.208081
-0.20779
-0.2087
-0.210794
-0.214354
-0.219527
-0.226843
-0.236256
-0.249357
-0.2655
-0.287812
-0.313677
-0.351003
-0.384115
-0.431689
-0.418558
-0.214109
-0.207425
-0.205193
-0.202257
-0.200852
-0.200146
-0.200568
-0.202103
-0.205009
-0.209429
-0.21584
-0.224279
-0.236075
-0.250772
-0.271134
-0.294964
-0.329106
-0.360137
-0.404546
-0.3925
-0.208146
-0.201042
-0.198628
-0.195377
-0.193629
-0.192542
-0.192508
-0.193522
-0.195811
-0.199509
-0.20503
-0.212454
-0.222874
-0.235996
-0.254165
-0.275678
-0.306166
-0.334801
-0.375513
-0.365662
-0.201921
-0.194411
-0.191796
-0.18823
-0.186135
-0.184677
-0.184213
-0.184754
-0.18651
-0.18962
-0.194448
-0.201091
-0.210427
-0.222289
-0.238614
-0.25819
-0.285416
-0.311954
-0.34774
-0.339544
-0.195006
-0.187177
-0.184173
-0.180211
-0.177616
-0.175614
-0.174521
-0.174376
-0.175383
-0.177702
-0.181684
-0.187456
-0.195725
-0.206443
-0.22122
-0.239305
-0.264067
-0.289353
-0.32076
-0.316946
-0.187369
-0.179359
-0.175666
-0.171167
-0.167749
-0.16479
-0.162539
-0.161032
-0.160436
-0.16088
-0.162644
-0.165859
-0.171136
-0.178496
-0.189341
-0.203277
-0.22317
-0.244984
-0.273471
-0.286941
-0.28373
-0.282268
-0.283477
-0.285489
-0.289182
-0.294246
-0.300923
-0.30924
-0.319346
-0.331375
-0.345511
-0.361949
-0.380928
-0.402231
-0.424315
-0.445444
-0.464692
-0.473
-0.487326
-0.471972
-0.280635
-0.278798
-0.279746
-0.281391
-0.284705
-0.289345
-0.295575
-0.303427
-0.313076
-0.324686
-0.338487
-0.354735
-0.373787
-0.395594
-0.419195
-0.443641
-0.467075
-0.475748
-0.492243
-0.485597
-0.277299
-0.275111
-0.27579
-0.277083
-0.280023
-0.284249
-0.290037
-0.297428
-0.306614
-0.317791
-0.331244
-0.347335
-0.366636
-0.389388
-0.415311
-0.443921
-0.471898
-0.483963
-0.50448
-0.501467
-0.27373
-0.271207
-0.271615
-0.272564
-0.275133
-0.278947
-0.284291
-0.291213
-0.299918
-0.310622
-0.323643
-0.339392
-0.358545
-0.381573
-0.408991
-0.440911
-0.473606
-0.493951
-0.515902
-0.521103
-0.269935
-0.267084
-0.267225
-0.267833
-0.270033
-0.273435
-0.278332
-0.284774
-0.292978
-0.303174
-0.315713
-0.331045
-0.349944
-0.373107
-0.401684
-0.436019
-0.473171
-0.504653
-0.526444
-0.543862
-0.26592
-0.262751
-0.262629
-0.2629
-0.264729
-0.267714
-0.272152
-0.278095
-0.285767
-0.295405
-0.307379
-0.322143
-0.340534
-0.363429
-0.392488
-0.428325
-0.470359
-0.512971
-0.536463
-0.569322
-0.261697
-0.258222
-0.257844
-0.257777
-0.259227
-0.26178
-0.265731
-0.271134
-0.278215
-0.287215
-0.298513
-0.312538
-0.330175
-0.352403
-0.381185
-0.41753
-0.463747
-0.515159
-0.546305
-0.590748
-0.257268
-0.253509
-0.252886
-0.25248
-0.253542
-0.255646
-0.259082
-0.2639
-0.270321
-0.278588
-0.289075
-0.302129
-0.318643
-0.33958
-0.367051
-0.402603
-0.451211
-0.508674
-0.556139
-0.608517
-0.252615
-0.248588
-0.247737
-0.247003
-0.247694
-0.249378
-0.252334
-0.256605
-0.262407
-0.269985
-0.279707
-0.291814
-0.307156
-0.326563
-0.352093
-0.38565
-0.433946
-0.495949
-0.566745
-0.616474
-0.247696
-0.243373
-0.242325
-0.241291
-0.241696
-0.243068
-0.245703
-0.249637
-0.2551
-0.262323
-0.271712
-0.283525
-0.298558
-0.317523
-0.342449
-0.37472
-0.420571
-0.48046
-0.571734
-0.677905
0.000258722
0.000756266
0.00126361
0.00176458
0.00227024
0.0027734
0.00327897
0.00378388
0.00429034
0.0047971
0.00530525
0.00581433
0.00632496
0.00683709
0.00735115
0.0078673
0.00838593
0.00890735
0.00943199
0.00996026
0.0104927
0.0110298
0.0115721
0.0121204
0.0126754
0.0132378
0.0138084
0.0143883
0.0149785
0.0155799
0.0161938
0.0168213
0.0174639
0.0181228
0.0187996
0.0194958
0.020213
0.0209529
0.0217171
0.0225075
0.0233258
0.0241741
0.025054
0.0259675
0.0269165
0.0279026
0.0289277
0.0299931
0.0311002
0.0322502
0.0334439
0.0346819
0.0359649
0.0372936
0.0386692
0.0400937
0.0415707
0.0431057
0.0447065
0.0463838
0.0481502
0.0500203
0.0520082
0.0541257
0.0563784
0.0587624
0.0612587
0.0638282
0.0664043
0.0688851
0.0711213
0.0729008
0.0739203
0.073732
0.0718392
0.0674839
0.0597103
0.0473415
0.0290783
0.00355171
-0.0305566
-0.0736021
-0.125841
-0.186254
-0.252391
-0.321059
-0.388162
-0.449631
-0.501905
-0.542113
-0.568825
-0.580854
-0.578249
-0.562633
-0.536696
-0.503915
-0.471132
-0.441926
-0.424227
-0.411202
0.000259109
0.000757538
0.00126573
0.0017676
0.00227415
0.00277821
0.00328468
0.00379048
0.00429783
0.00480548
0.00531452
0.00582449
0.00633601
0.00684902
0.00736396
0.007881
0.00840053
0.00892286
0.00944841
0.00997762
0.010511
0.011049
0.0115924
0.0121417
0.0126977
0.0132612
0.0138331
0.0144142
0.0150056
0.0156084
0.0162237
0.0168528
0.017497
0.0181577
0.0188364
0.0195346
0.020254
0.0209961
0.0217628
0.0225558
0.0233769
0.0242281
0.0251112
0.026028
0.0269803
0.0279701
0.0289988
0.0300681
0.0311792
0.0323333
0.0335311
0.0347734
0.0360608
0.0373939
0.0387741
0.0402034
0.0416856
0.0432263
0.0448335
0.046518
0.0482926
0.0501718
0.0521694
0.0542964
0.0565576
0.0589472
0.0614438
0.0640051
0.0665602
0.0690017
0.0711738
0.0728552
0.0737336
0.0733913
0.0712518
0.066519
0.0582063
0.0451078
0.0259053
-0.000766756
-0.0363425
-0.0808593
-0.134582
-0.196306
-0.26337
-0.33243
-0.399271
-0.459835
-0.51064
-0.548979
-0.573469
-0.582762
-0.578274
-0.56086
-0.533653
-0.500406
-0.468081
-0.440136
-0.423971
-0.413353
0.000259399
0.000758457
0.00126716
0.00176958
0.00227664
0.00278123
0.00328821
0.00379454
0.00430242
0.00481061
0.00532017
0.00583069
0.00634275
0.00685631
0.00737181
0.00788942
0.00840952
0.00893242
0.00945857
0.00998838
0.0105224
0.011061
0.0116051
0.012155
0.0127117
0.013276
0.0138485
0.0144304
0.0150226
0.0156263
0.0162425
0.0168725
0.0175177
0.0181795
0.0188593
0.0195586
0.0202792
0.0210226
0.0217907
0.0225851
0.0234077
0.0242604
0.025145
0.0260634
0.0270173
0.0280085
0.0290387
0.0301093
0.0312215
0.0323764
0.0335748
0.0348173
0.0361044
0.037437
0.038816
0.0402439
0.0417241
0.0432626
0.0448672
0.0465488
0.0483202
0.0501955
0.0521882
0.0543085
0.0565598
0.0589346
0.0614091
0.0639378
0.066446
0.0688216
0.070903
0.0724614
0.0731742
0.0726025
0.0701481
0.0650201
0.0562095
0.0424924
0.0225373
-0.00504201
-0.0415467
-0.0870251
-0.141679
-0.204168
-0.271706
-0.34086
-0.40736
-0.467189
-0.516921
-0.553962
-0.577059
-0.585491
-0.579708
-0.561195
-0.533176
-0.499549
-0.467311
-0.439863
-0.424625
-0.415876
0.000259679
0.000759466
0.00126875
0.00177186
0.00227953
0.00278478
0.00329239
0.00379936
0.00430786
0.00481668
0.00532687
0.00583801
0.00635068
0.00686487
0.00738098
0.00789919
0.00841989
0.00894341
0.00947016
0.0100006
0.0105352
0.0110745
0.0116191
0.0121697
0.0127271
0.0132919
0.0138652
0.0144478
0.0150407
0.0156451
0.0162621
0.016893
0.017539
0.0182017
0.0188825
0.0195828
0.0203044
0.021049
0.0218182
0.0226138
0.0234376
0.0242915
0.0251773
0.0260967
0.0270517
0.0280438
0.0290746
0.0301455
0.0312578
0.0324123
0.0336098
0.0348508
0.0361358
0.0374655
0.038841
0.0402645
0.0417398
0.0432724
0.0448707
0.0465451
0.0483085
0.0501745
0.0521558
0.0542615
0.0564934
0.0588414
0.0612786
0.0637555
0.066193
0.0684734
0.0704289
0.0718231
0.0723235
0.0714846
0.0686885
0.0631209
0.053744
0.0393089
0.0184637
-0.0102098
-0.0479097
-0.0946559
-0.150595
-0.214194
-0.282505
-0.351963
-0.418211
-0.477266
-0.525781
-0.561345
-0.582774
-0.589279
-0.582071
-0.562288
-0.533366
-0.49931
-0.46731
-0.440399
-0.426213
-0.419129
0.000259935
0.000760473
0.0012703
0.00177408
0.0022823
0.00278818
0.00329636
0.00380394
0.00431303
0.00482244
0.00533321
0.00584493
0.00635819
0.00687295
0.00738963
0.00790841
0.00842969
0.00895377
0.00948108
0.0100121
0.0105472
0.0110871
0.0116323
0.0121835
0.0127414
0.0133068
0.0138807
0.0144639
0.0150574
0.0156625
0.0162801
0.0169117
0.0175585
0.0182219
0.0189034
0.0196046
0.020327
0.0210724
0.0218424
0.0226389
0.0234636
0.0243182
0.0252047
0.0261248
0.0270801
0.0280723
0.029103
0.0301733
0.0312845
0.0324373
0.0336324
0.0348701
0.036151
0.0374755
0.0388449
0.0402611
0.041728
0.0432511
0.0448387
0.0465011
0.0482508
0.0501008
0.0520631
0.0541452
0.0563466
0.0586545
0.0610384
0.0634442
0.0657876
0.0679455
0.0697438
0.0709381
0.0711865
0.0700366
0.0668488
0.0607864
0.050786
0.0355774
0.0137918
-0.0159974
-0.0547964
-0.103059
-0.160079
-0.224715
-0.293689
-0.363324
-0.429196
-0.487377
-0.534605
-0.568635
-0.588443
-0.593667
-0.585055
-0.564096
-0.53432
-0.499825
-0.467984
-0.441457
-0.428348
-0.422623
0.00026016
0.000761489
0.00127182
0.00177629
0.00228506
0.00279157
0.00330032
0.0038085
0.00431816
0.00482816
0.0053395
0.0058518
0.00636561
0.00688092
0.00739815
0.00791748
0.00843928
0.00896388
0.00949171
0.0100232
0.0105589
0.0110992
0.0116449
0.0121966
0.012755
0.0133209
0.0138952
0.0144789
0.015073
0.0156785
0.0162967
0.0169287
0.0175761
0.01824
0.0189221
0.0196238
0.0203468
0.0210927
0.0218633
0.0226602
0.0234853
0.0243403
0.025227
0.026147
0.0271021
0.0280937
0.0291232
0.030192
0.0313008
0.0324505
0.0336415
0.0348742
0.0361488
0.0374659
0.0388263
0.0402323
0.0416875
0.0431973
0.0447698
0.0464153
0.0481456
0.049973
0.0519082
0.0539569
0.0561162
0.0583698
0.060683
0.0629969
0.065222
0.0672292
0.0688384
0.069798
0.0697574
0.0682526
0.0646255
0.0580186
0.047344
0.0313101
0.00853132
-0.0224033
-0.0624744
-0.112089
-0.170321
-0.236026
-0.305672
-0.375451
-0.440901
-0.498149
-0.544036
-0.57651
-0.594695
-0.598323
-0.588324
-0.566195
-0.535555
-0.500604
-0.468898
-0.442656
-0.430751
-0.426041
0.000260345
0.000762516
0.00127333
0.00177849
0.00228779
0.00279493
0.00330424
0.00381302
0.00432324
0.00483381
0.00534571
0.00585855
0.0063729
0.00688875
0.0074065
0.00792633
0.00844863
0.00897372
0.00950202
0.010034
0.0105701
0.0111109
0.011657
0.0122091
0.0127679
0.0133342
0.0139089
0.0144929
0.0150873
0.0156932
0.0163117
0.0169441
0.0175918
0.018256
0.0189384
0.0196405
0.0203638
0.0211099
0.0218807
0.0226778
0.0235029
0.0243577
0.0252441
0.0261635
0.0271176
0.0281077
0.0291353
0.0302014
0.0313067
0.0324519
0.0336374
0.0348632
0.0361295
0.0374368
0.0387859
0.0401788
0.0416189
0.0431119
0.0446653
0.046289
0.0479943
0.0497925
0.0516926
0.0536982
0.0558034
0.0579881
0.0602132
0.0624146
0.0644972
0.0663264
0.067716
0.0684068
0.0680406
0.066142
0.0620349
0.0548403
0.043446
0.0265418
0.00272846
-0.0293789
-0.0707078
-0.121572
-0.181311
-0.247831
-0.318065
-0.387865
-0.452763
-0.508956
-0.553402
-0.584245
-0.600759
-0.602898
-0.59151
-0.568213
-0.536698
-0.501273
-0.469673
-0.443667
-0.433187
-0.429169
0.000260485
0.000763549
0.00127479
0.00178066
0.00229046
0.00279823
0.00330807
0.00381743
0.00432819
0.00483932
0.00535174
0.00586512
0.00637998
0.00689633
0.00741456
0.00793486
0.00845762
0.00898314
0.00951186
0.0100442
0.0105807
0.0111219
0.0116683
0.0122207
0.0127798
0.0133464
0.0139214
0.0145057
0.0151003
0.0157064
0.0163251