/*--------------------------------*- C++ -*----------------------------------*\
  =========                 |
  \\      /  F ield         | OpenFOAM: The Open Source CFD Toolbox
   \\    /   O peration     | Website:  https://openfoam.org
    \\  /    A nd           | Version:  7
     \\/     M anipulation  |
\*---------------------------------------------------------------------------*/
FoamFile
{
    version     2.0;
    format      ascii;
    class       volVectorField;
    location    "6";
    object      U;
}
// * * * * * * * * * * * * * * * * * * * * * * * * * * * * * * * * * * * * * //

dimensions      [0 1 -1 0 0 0 0];

internalField   nonuniform List<vector> 
8000
(
(1.00089 -0.000135968 1.46286e-20)
(1.00081 -0.000163478 -6.53958e-20)
(1.00078 -0.000172867 3.77614e-20)
(1.0007 -0.000198679 -1.64826e-19)
(1.00064 -0.000216572 2.03403e-19)
(1.00056 -0.000243948 -7.65314e-20)
(1.00048 -0.000269158 -2.86848e-19)
(1.00038 -0.000300619 1.84566e-19)
(1.00027 -0.000333069 1.89754e-19)
(1.00015 -0.000370591 3.62915e-19)
(1.00002 -0.000410995 5.74062e-19)
(0.999879 -0.000456366 6.16603e-19)
(0.999719 -0.00050598 1.04293e-18)
(0.99954 -0.00056105 -9.03154e-19)
(0.999343 -0.000621561 -4.14152e-19)
(0.999125 -0.000688386 -3.80228e-19)
(0.998884 -0.000761883 -9.73194e-19)
(0.998617 -0.000842832 1.82445e-19)
(0.998322 -0.000931824 -9.18363e-19)
(0.997996 -0.00102967 -2.1449e-19)
(0.997637 -0.00113713 -1.71997e-18)
(0.99724 -0.00125512 -5.15401e-19)
(0.996803 -0.00138457 2.10567e-19)
(0.996321 -0.00152653 -1.60104e-19)
(0.995791 -0.00168209 -3.07256e-19)
(0.995207 -0.00185249 -4.11616e-19)
(0.994564 -0.00203904 -2.97916e-19)
(0.993857 -0.00224316 -9.72705e-19)
(0.99308 -0.0024664 2.58024e-19)
(0.992227 -0.00271045 -8.31191e-19)
(0.99129 -0.00297717 -4.30841e-19)
(0.990261 -0.00326859 -5.98284e-19)
(0.989132 -0.00358697 -2.09902e-18)
(0.987895 -0.00393485 1.4613e-18)
(0.986538 -0.00431507 9.45139e-19)
(0.985052 -0.0047309 -1.43833e-18)
(0.983423 -0.00518607 -1.91453e-18)
(0.98164 -0.00568491 -3.91932e-18)
(0.979689 -0.0062324 -1.23975e-18)
(0.977554 -0.00683426 -3.64149e-18)
(0.975219 -0.00749697 -2.82053e-20)
(0.972667 -0.00822769 -1.29375e-18)
(0.96988 -0.00903413 -2.64181e-18)
(0.966838 -0.00992418 1.76961e-18)
(0.963522 -0.0109054 -5.24779e-19)
(0.959912 -0.0119844 1.17574e-18)
(0.955988 -0.0131658 3.2967e-18)
(0.951733 -0.0144515 -1.21327e-18)
(0.94713 -0.0158395 3.566e-19)
(0.942167 -0.0173233 3.01725e-19)
(0.936834 -0.0188914 9.87459e-19)
(0.931128 -0.0205273 1.59981e-18)
(0.92505 -0.0222107 9.61719e-19)
(0.918608 -0.0239191 1.28319e-18)
(0.911814 -0.0256309 -6.92088e-19)
(0.904685 -0.0273296 3.5853e-19)
(0.897237 -0.0290093 1.07592e-18)
(0.889482 -0.0306807 -1.11978e-18)
(0.881424 -0.0323778 8.07103e-20)
(0.873043 -0.0341633 -3.63658e-18)
(0.864295 -0.0361318 -7.55917e-18)
(0.855096 -0.0384082 -2.2148e-18)
(0.845321 -0.0411404 -7.61642e-18)
(0.834802 -0.0444861 -1.08317e-18)
(0.823335 -0.0485938 -3.98073e-18)
(0.810698 -0.0535837 -4.45362e-18)
(0.796668 -0.0595333 -3.08813e-18)
(0.781046 -0.0664765 -9.46841e-18)
(0.763667 -0.0744179 -9.3922e-20)
(0.744393 -0.083365 -4.20341e-18)
(0.723087 -0.093365 -1.20003e-17)
(0.699562 -0.104527 -4.6914e-18)
(0.673532 -0.116989 -1.03907e-17)
(0.644599 -0.130893 1.40889e-18)
(0.612282 -0.146316 -4.58202e-19)
(0.576067 -0.163109 2.72237e-18)
(0.535488 -0.180809 -2.08041e-19)
(0.490235 -0.198582 -1.02071e-18)
(0.440248 -0.21521 2.14387e-18)
(0.385828 -0.229164 1.64454e-18)
(0.327663 -0.23868 1.30676e-17)
(0.267036 -0.242231 5.11371e-18)
(0.205559 -0.238099 2.84536e-17)
(0.145307 -0.225388 -7.17741e-18)
(0.0884597 -0.204064 5.24939e-17)
(0.0375262 -0.174854 6.45915e-17)
(-0.00563285 -0.139996 7.48555e-17)
(-0.0402472 -0.101591 -1.50623e-17)
(-0.0656372 -0.0614598 7.00179e-17)
(-0.0822345 -0.0207838 -5.05747e-17)
(-0.0905471 0.0199321 -1.54151e-17)
(-0.0917235 0.0610257 -1.72133e-17)
(-0.086715 0.102154 -6.95653e-18)
(-0.0771465 0.140994 -4.73218e-18)
(-0.0640175 0.173791 2.40539e-18)
(-0.0516232 0.195092 3.72986e-17)
(-0.0401477 0.202088 3.29019e-18)
(-0.0411428 0.187059 -1.01437e-16)
(-0.040325 0.158346 -2.38228e-17)
(-0.0361937 0.0729934 -1.31638e-16)
(1.00089 -0.000122278 3.91215e-20)
(1.0008 -0.000146904 -8.25405e-21)
(1.00077 -0.000155719 2.76915e-20)
(1.00069 -0.00017884 1.56707e-20)
(1.00063 -0.000195112 2.5158e-19)
(1.00055 -0.000219734 2.47717e-19)
(1.00047 -0.000242498 1.51499e-19)
(1.00037 -0.000270818 1.755e-19)
(1.00026 -0.00030005 1.56569e-19)
(1.00014 -0.000333812 2.73435e-19)
(1.00001 -0.000370163 4.59332e-19)
(0.999863 -0.000410962 9.31788e-19)
(0.999702 -0.000455562 8.68052e-19)
(0.999522 -0.000505049 -8.82755e-19)
(0.999323 -0.00055941 -1.03724e-18)
(0.999102 -0.000619427 -3.73533e-19)
(0.998859 -0.000685421 -3.02814e-19)
(0.998589 -0.00075809 -3.58266e-19)
(0.998292 -0.000837963 -1.56442e-18)
(0.997963 -0.000925764 -3.33383e-19)
(0.9976 -0.00102218 -1.51135e-18)
(0.9972 -0.00112802 -1.97559e-18)
(0.996759 -0.00124413 -4.73078e-19)
(0.996272 -0.00137143 8.1026e-19)
(0.995737 -0.00151092 -2.89067e-19)
(0.995148 -0.00166369 -3.81629e-19)
(0.994499 -0.00183091 2.64344e-19)
(0.993786 -0.00201386 -1.78773e-18)
(0.993002 -0.00221391 1.12928e-18)
(0.992142 -0.00243259 -9.40228e-19)
(0.991196 -0.00267154 -2.41112e-19)
(0.990159 -0.00293259 6.06576e-19)
(0.989021 -0.00321776 -3.94678e-19)
(0.987774 -0.00352932 2.35984e-18)
(0.986406 -0.00386984 -1.07307e-18)
(0.984907 -0.00424225 -5.51778e-19)
(0.983266 -0.00464995 -1.52037e-18)
(0.981469 -0.00509689 -2.05412e-18)
(0.979502 -0.00558762 -1.33986e-18)
(0.977349 -0.00612744 -1.18576e-18)
(0.974993 -0.00672238 4.43453e-20)
(0.972417 -0.00737916 -4.44018e-19)
(0.9696 -0.00810509 1.61967e-19)
(0.966522 -0.00890773 3.71562e-18)
(0.963161 -0.00979449 -6.57445e-19)
(0.959493 -0.0107719 8.45135e-19)
(0.955498 -0.011845 8.30894e-19)
(0.951151 -0.0130162 -7.78891e-19)
(0.946433 -0.0142845 2.99844e-19)
(0.941325 -0.0156447 -1.99203e-19)
(0.935814 -0.017087 1.26725e-19)
(0.929889 -0.018597 -1.85819e-19)
(0.923548 -0.0201562 2.28513e-18)
(0.916794 -0.0217441 5.03046e-19)
(0.909634 -0.0233405 1.80602e-18)
(0.902082 -0.0249294 6.22749e-19)
(0.894154 -0.0265035 4.9365e-18)
(0.885864 -0.0280701 -8.60111e-19)
(0.877213 -0.0296569 3.0512e-18)
(0.86819 -0.0313171 -2.32032e-18)
(0.858754 -0.0331325 -2.92509e-18)
(0.848827 -0.0352129 -1.31715e-18)
(0.838287 -0.0376908 -2.18999e-18)
(0.826967 -0.0407099 7.42494e-19)
(0.814657 -0.0444092 -4.89446e-18)
(0.801118 -0.0489062 -8.4242e-18)
(0.786098 -0.054283 -1.32818e-18)
(0.769356 -0.0605825 -4.40785e-18)
(0.750675 -0.0678189 -6.21158e-19)
(0.729862 -0.0760024 -3.95252e-18)
(0.706727 -0.0851711 -7.78336e-18)
(0.681052 -0.0954105 -1.0395e-17)
(0.652536 -0.106825 -9.21482e-18)
(0.62076 -0.119505 3.29995e-19)
(0.585238 -0.133529 -1.64497e-18)
(0.545451 -0.148773 7.90668e-18)
(0.500921 -0.164833 1.06658e-18)
(0.451327 -0.180979 -3.78462e-18)
(0.396608 -0.19613 1.70907e-18)
(0.337108 -0.208928 1.47183e-18)
(0.273558 -0.21778 6.13575e-18)
(0.207408 -0.22136 7.1743e-18)
(0.140459 -0.218065 1.22455e-17)
(0.0749098 -0.207007 -4.06967e-17)
(0.0132 -0.187989 1.67231e-17)
(-0.0422066 -0.161639 1.83443e-17)
(-0.0893152 -0.130328 3.74704e-17)
(-0.1271 -0.0955185 -6.82307e-17)
(-0.154873 -0.0589377 -5.06339e-18)
(-0.17286 -0.0216465 -1.30563e-16)
(-0.18148 0.016096 -2.35447e-17)
(-0.181663 0.0547494 -3.17784e-17)
(-0.173643 0.0933964 -1.72337e-17)
(-0.158629 0.130688 -5.76259e-18)
(-0.137226 0.163437 1.26308e-18)
(-0.113457 0.18649 6.63802e-17)
(-0.0876885 0.197401 9.12483e-18)
(-0.0706432 0.187244 -7.91015e-17)
(-0.0526846 0.161984 -2.13302e-17)
(-0.0259826 0.0766477 -6.01293e-17)
(1.00089 -0.000108397 3.99612e-20)
(1.0008 -0.00012994 5.23672e-20)
(1.00076 -0.000138001 2.04158e-20)
(1.00069 -0.000158262 8.5124e-20)
(1.00063 -0.000172743 3.22502e-19)
(1.00054 -0.000194431 -7.23026e-20)
(1.00046 -0.000214582 -1.99019e-19)
(1.00036 -0.000239585 2.15097e-19)
(1.00025 -0.000265432 1.69222e-19)
(1.00013 -0.000295267 1.60343e-19)
(0.999997 -0.000327403 2.27538e-19)
(0.999849 -0.000363468 -1.23427e-20)
(0.999686 -0.000402899 5.13581e-19)
(0.999504 -0.00044665 -4.93904e-19)
(0.999304 -0.000494713 -4.7731e-19)
(0.999081 -0.000547777 -8.64114e-19)
(0.998835 -0.000606125 2.54077e-19)
(0.998563 -0.000670376 -2.53638e-19)
(0.998263 -0.000740994 -6.11066e-19)
(0.997931 -0.000818622 -5.23875e-19)
(0.997565 -0.000903864 -1.37334e-18)
(0.997162 -0.000997436 -1.97137e-18)
(0.996717 -0.00110008 4.54822e-19)
(0.996226 -0.00121261 -1.07882e-18)
(0.995686 -0.00133591 1.69751e-19)
(0.995092 -0.00147094 -8.65542e-19)
(0.994438 -0.00161873 2.03355e-18)
(0.993718 -0.00178041 -4.31536e-19)
(0.992928 -0.00195719 2.63296e-18)
(0.99206 -0.00215041 -1.14366e-18)
(0.991107 -0.00236153 -1.08445e-18)
(0.990061 -0.00259216 2.37329e-18)
(0.988914 -0.00284407 -8.59644e-20)
(0.987656 -0.00311928 2.87153e-19)
(0.986278 -0.00342008 -2.44107e-18)
(0.984768 -0.00374906 3.30604e-19)
(0.983113 -0.00410928 -1.17566e-18)
(0.981302 -0.00450427 -1.63666e-18)
(0.979318 -0.00493816 -2.59795e-18)
(0.977147 -0.00541575 -2.52772e-19)
(0.974771 -0.00594256 1.87497e-20)
(0.97217 -0.00652479 -1.11786e-19)
(0.969324 -0.00716923 6.78786e-19)
(0.966209 -0.00788299 1.61153e-18)
(0.962802 -0.00867312 -5.29577e-20)
(0.959078 -0.00954601 2.45118e-19)
(0.955009 -0.0105067 -4.09939e-20)
(0.950571 -0.011558 -7.2983e-19)
(0.945737 -0.0126998 -4.18926e-20)
(0.940484 -0.0139279 -9.3297e-19)
(0.934793 -0.0152342 -6.84721e-19)
(0.928649 -0.0166062 -3.41656e-18)
(0.922043 -0.0180276 5.0075e-18)
(0.914972 -0.0194801 1.15044e-19)
(0.907441 -0.020945 5.625e-18)
(0.89946 -0.0224073 -1.17434e-18)
(0.891042 -0.023859 1.94168e-18)
(0.8822 -0.0253049 -1.18953e-18)
(0.872939 -0.026767 -3.13653e-18)
(0.863249 -0.0282899 3.48753e-19)
(0.853092 -0.0299435 -3.26203e-20)
(0.842396 -0.031823 -1.13942e-18)
(0.831045 -0.0340448 1.15398e-18)
(0.818873 -0.0367374 5.53937e-18)
(0.805666 -0.040028 -4.95959e-18)
(0.791173 -0.0440274 -3.30803e-18)
(0.775121 -0.0488175 -1.07027e-18)
(0.757234 -0.0544463 -2.30278e-18)
(0.737247 -0.0609343 -6.4861e-19)
(0.714918 -0.0682927 -2.66085e-18)
(0.690005 -0.076549 -4.14738e-18)
(0.66225 -0.085767 -2.03373e-18)
(0.631334 -0.0960481 2.81315e-18)
(0.596831 -0.107465 -2.78604e-18)
(0.558243 -0.120066 -9.63602e-18)
(0.515056 -0.13375 4.40011e-18)
(0.466789 -0.148178 -5.76425e-18)
(0.413116 -0.162719 -4.72176e-18)
(0.353976 -0.176437 1.72091e-18)
(0.289748 -0.188143 3.50822e-19)
(0.221175 -0.196419 -3.61474e-18)
(0.149848 -0.200128 1.80189e-17)
(0.0777607 -0.197871 2.32637e-19)
(0.00725529 -0.188194 -5.22471e-17)
(-0.0591884 -0.171486 -3.25278e-17)
(-0.119019 -0.148363 -5.87338e-17)
(-0.169994 -0.12038 9.36634e-18)
(-0.210936 -0.0890005 -3.36743e-17)
(-0.241042 -0.0557346 -7.73302e-17)
(-0.260394 -0.0215508 -1.47058e-16)
(-0.269143 0.0130589 -2.5388e-17)
(-0.267964 0.0487827 -6.44543e-17)
(-0.256721 0.084929 -2.36351e-17)
(-0.236275 0.120166 -8.49398e-18)
(-0.206847 0.151814 6.1979e-19)
(-0.17222 0.175165 1.14257e-16)
(-0.132941 0.188119 2.02587e-17)
(-0.0988435 0.181485 -1.14207e-16)
(-0.0646962 0.159398 -2.18358e-17)
(-0.0231142 0.0791296 -4.87381e-17)
(1.00088 -9.42769e-05 5.42331e-20)
(1.00079 -0.000112816 1.5383e-19)
(1.00076 -0.000119965 7.35241e-22)
(1.00068 -0.000137431 2.04488e-20)
(1.00062 -0.000150062 5.84794e-20)
(1.00053 -0.000168828 -1.91569e-19)
(1.00045 -0.000186332 6.4271e-20)
(1.00035 -0.000208006 2.23944e-19)
(1.00024 -0.000230434 2.80255e-19)
(1.00012 -0.000256309 1.1151e-19)
(0.999986 -0.000284188 2.85872e-19)
(0.999836 -0.000315471 4.9253e-19)
(0.999671 -0.000349675 8.29227e-19)
(0.999488 -0.000387626 1.62128e-20)
(0.999286 -0.000429317 6.52919e-20)
(0.999062 -0.000475345 -1.74689e-20)
(0.998814 -0.000525958 7.55205e-19)
(0.99854 -0.00058169 1.37323e-19)
(0.998237 -0.000642944 1.86892e-19)
(0.997902 -0.000710278 -4.65119e-19)
(0.997533 -0.000784216 -1.29728e-18)
(0.997126 -0.000865379 -1.15647e-18)
(0.996678 -0.000954405 1.73504e-18)
(0.996183 -0.00105201 -2.3353e-19)
(0.995639 -0.00115895 7.58163e-19)
(0.995039 -0.00127606 7.21113e-19)
(0.99438 -0.00140423 1.24344e-18)
(0.993655 -0.00154443 -2.39603e-20)
(0.992858 -0.00169773 2.36059e-18)
(0.991984 -0.00186528 -3.74773e-19)
(0.991023 -0.00204833 1.11159e-19)
(0.989969 -0.00224828 6.08768e-19)
(0.988813 -0.00246668 7.95334e-19)
(0.987545 -0.00270527 -1.45897e-19)
(0.986156 -0.00296605 -3.3437e-19)
(0.984634 -0.00325129 1.03989e-18)
(0.982967 -0.00356365 -5.7502e-19)
(0.981142 -0.00390625 -1.38238e-18)
(0.979143 -0.00428275 1.73686e-19)
(0.976954 -0.00469741 -5.0931e-19)
(0.974557 -0.00515518 -2.09666e-19)
(0.971932 -0.00566163 -3.15333e-19)
(0.969056 -0.00622293 6.61918e-19)
(0.965906 -0.00684558 1.004e-18)
(0.962454 -0.0075361 1.0685e-18)
(0.958674 -0.00830053 -3.52517e-19)
(0.954534 -0.00914375 -3.25928e-19)
(0.950005 -0.0100688 -1.2424e-18)
(0.945058 -0.0110759 -5.57219e-19)
(0.939664 -0.0121623 -1.75801e-18)
(0.933797 -0.013321 -4.38126e-19)
(0.927437 -0.0145416 -2.31542e-18)
(0.92057 -0.0158099 -6.63767e-19)
(0.913188 -0.0171099 -1.50543e-18)
(0.905291 -0.018425 3.5948e-18)
(0.896885 -0.0197413 -3.19627e-18)
(0.887981 -0.0210509 1.52254e-19)
(0.878589 -0.0223564 6.37393e-20)
(0.868716 -0.0236752 -9.33616e-20)
(0.858352 -0.0250441 2.85573e-18)
(0.847464 -0.0265217 4.0308e-18)
(0.835983 -0.028189 -2.19651e-18)
(0.823798 -0.0301463 2.18939e-18)
(0.810745 -0.0325057 2.48322e-18)
(0.79661 -0.0353805 -4.81756e-18)
(0.781133 -0.0388721 -1.3485e-18)
(0.764024 -0.0430588 -1.55313e-18)
(0.744978 -0.0479907 -6.94236e-19)
(0.723694 -0.0536928 -1.01564e-18)
(0.699882 -0.0601791 -1.87596e-18)
(0.673255 -0.0674721 -1.73353e-18)
(0.643512 -0.0756194 4.03843e-18)
(0.610314 -0.0847021 -1.98236e-19)
(0.573226 -0.0947929 -3.90364e-18)
(0.531751 -0.105909 -1.15068e-17)
(0.485376 -0.117969 3.37329e-18)
(0.433626 -0.130687 -3.98521e-18)
(0.37618 -0.143532 -1.87691e-18)
(0.312979 -0.155702 1.68651e-18)
(0.24443 -0.166178 7.89901e-20)
(0.171272 -0.17372 -1.40493e-18)
(0.0951673 -0.177593 8.76497e-18)
(0.0184123 -0.175694 -2.04613e-17)
(-0.056706 -0.167508 -2.50454e-17)
(-0.127696 -0.153322 -1.87732e-17)
(-0.191724 -0.133276 -9.69617e-17)
(-0.246463 -0.108785 -1.07397e-17)
(-0.29051 -0.081099 -1.5681e-17)
(-0.322911 -0.0515357 -5.58657e-17)
(-0.343548 -0.0209802 -8.81971e-17)
(-0.352319 0.0101948 -8.36061e-18)
(-0.349719 0.0424155 -1.31708e-16)
(-0.335312 0.0752241 -3.27311e-17)
(-0.309686 0.107513 -1.49579e-17)
(-0.272746 0.137145 1.92006e-18)
(-0.228019 0.159837 9.91408e-17)
(-0.176167 0.173838 2.61129e-17)
(-0.126341 0.170487 -9.89123e-17)
(-0.0768288 0.151669 -1.81728e-17)
(-0.0236072 0.0797227 -7.62988e-17)
(1.00088 -8.00087e-05 3.63189e-20)
(1.00079 -9.56175e-05 1.75246e-19)
(1.00076 -0.000101772 2.51045e-20)
(1.00067 -0.00011648 -6.36334e-20)
(1.00061 -0.000127223 -3.01804e-20)
(1.00053 -0.000143075 -4.70052e-19)
(1.00044 -0.000157912 1.74263e-19)
(1.00034 -0.000176248 2.09048e-19)
(1.00023 -0.000195243 5.63686e-19)
(1.00011 -0.000217144 6.98369e-20)
(0.999975 -0.000240749 2.98499e-19)
(0.999824 -0.000267233 9.84567e-19)
(0.999658 -0.000296192 1.92032e-19)
(0.999474 -0.000328322 8.23022e-19)
(0.99927 -0.000363619 6.67277e-19)
(0.999044 -0.000402589 3.21259e-19)
(0.998794 -0.000445438 1.71285e-18)
(0.998518 -0.000492622 8.14662e-19)
(0.998213 -0.000544481 1.43312e-18)
(0.997876 -0.000601485 2.42793e-20)
(0.997504 -0.000664079 -1.73165e-18)
(0.997094 -0.000732789 -2.71395e-18)
(0.996642 -0.000808153 4.01656e-18)
(0.996144 -0.000890777 6.30298e-19)
(0.995595 -0.000981301 1.35088e-18)
(0.994991 -0.00108043 2.34043e-18)
(0.994327 -0.00118892 1.56946e-18)
(0.993597 -0.00130758 -4.51754e-19)
(0.992795 -0.00143733 4.07955e-18)
(0.991913 -0.00157912 1.06378e-18)
(0.990945 -0.00173402 7.74832e-19)
(0.989884 -0.00190322 -1.04205e-18)
(0.988719 -0.00208802 2.53761e-18)
(0.987443 -0.00228991 -1.85586e-19)
(0.986044 -0.00251056 8.4611e-19)
(0.984511 -0.00275193 2.88458e-18)
(0.982832 -0.00301628 9.03222e-19)
(0.980993 -0.00330629 -2.44306e-18)
(0.978979 -0.0036251 2.589e-18)
(0.976773 -0.00397641 -9.12607e-19)
(0.974356 -0.00436451 -5.45207e-19)
(0.971707 -0.00479427 -1.37133e-18)
(0.968804 -0.00527113 4.00411e-19)
(0.965619 -0.00580083 6.13696e-19)
(0.962125 -0.00638922 3.58025e-18)
(0.95829 -0.00704177 -6.00965e-19)
(0.954083 -0.00776303 -3.00002e-19)
(0.949469 -0.00855597 -2.46869e-18)
(0.944414 -0.00942131 -7.82211e-19)
(0.938884 -0.0103569 -4.12036e-18)
(0.932851 -0.0113575 3.29114e-19)
(0.926286 -0.0124141 -2.41479e-18)
(0.919171 -0.0135151 -7.29051e-18)
(0.911493 -0.0146467 -6.83992e-18)
(0.903246 -0.0157945 5.3372e-18)
(0.894433 -0.0169463 -6.52277e-18)
(0.885062 -0.0180946 -3.44038e-18)
(0.875142 -0.0192404 1.47551e-18)
(0.864676 -0.0203974 1.77921e-18)
(0.853657 -0.0215949 5.35947e-18)
(0.842054 -0.022881 1.3919e-17)
(0.829802 -0.024323 -5.3323e-18)
(0.816792 -0.026005 3.26468e-18)
(0.802863 -0.0280222 4.44941e-18)
(0.787801 -0.0304721 -6.66905e-18)
(0.771341 -0.0334443 -1.42402e-18)
(0.75318 -0.0370103 -3.76291e-18)
(0.732991 -0.0412187 -3.07029e-19)
(0.710443 -0.0460964 -1.51102e-18)
(0.685206 -0.0516596 -1.97732e-18)
(0.656953 -0.0579281 -3.22125e-18)
(0.625345 -0.064939 -7.29188e-18)
(0.590019 -0.0727523 -9.09773e-19)
(0.550535 -0.0814311 -2.58303e-18)
(0.506395 -0.0909769 -4.28458e-18)
(0.457092 -0.101322 4.40958e-18)
(0.40216 -0.112235 -2.50618e-18)
(0.34129 -0.123276 4.09777e-19)
(0.274426 -0.133782 2.073e-18)
(0.202004 -0.1429 -1.05581e-19)
(0.124677 -0.149583 -8.92974e-19)
(0.044427 -0.153455 4.85546e-18)
(-0.0365556 -0.151707 -9.69528e-18)
(-0.116013 -0.145257 5.83892e-18)
(-0.191132 -0.133446 -7.66208e-18)
(-0.259079 -0.116561 -1.11555e-16)
(-0.317366 -0.095702 -2.62306e-17)
(-0.364368 -0.0719224 -6.47547e-18)
(-0.398955 -0.0463317 -8.61767e-17)
(-0.420811 -0.0197229 -7.01541e-17)
(-0.429575 0.00757437 1.61147e-17)
(-0.425584 0.0357612 -1.21754e-16)
(-0.408201 0.0646761 -2.86699e-17)
(-0.377808 0.0933461 -1.77582e-17)
(-0.334027 0.120115 1.31224e-16)
(-0.280115 0.14121 1.48206e-16)
(-0.216802 0.155232 3.57012e-17)
(-0.152755 0.154411 -5.57584e-17)
(-0.0887493 0.139183 -1.46512e-17)
(-0.0254329 0.0775387 -4.79273e-17)
(1.00087 -6.56147e-05 2.43984e-20)
(1.00079 -7.83222e-05 9.93589e-20)
(1.00075 -8.34132e-05 -1.76613e-19)
(1.00067 -9.5385e-05 -1.74758e-19)
(1.00061 -0.000104199 -5.01067e-19)
(1.00052 -0.000117135 -3.86245e-19)
(1.00044 -0.000129279 7.2763e-20)
(1.00033 -0.000144263 7.48458e-20)
(1.00023 -0.0001598 1.055e-19)
(1.0001 -0.000177709 1.68393e-19)
(0.999966 -0.000197016 -7.17348e-20)
(0.999814 -0.000218677 5.27068e-19)
(0.999647 -0.000242365 -3.81866e-19)
(0.999461 -0.000268648 -5.82104e-20)
(0.999256 -0.000297523 -1.77062e-19)
(0.999029 -0.000329402 1.31672e-19)
(0.998777 -0.000364457 1.12528e-18)
(0.998499 -0.000403057 -5.88919e-19)
(0.998192 -0.000445483 1.42137e-18)
(0.997853 -0.000492119 -5.86939e-19)
(0.997479 -0.000543328 -1.75009e-18)
(0.997066 -0.000599539 -3.14012e-18)
(0.996611 -0.000661194 4.2356e-18)
(0.996109 -0.000728787 -6.74739e-19)
(0.995557 -0.000802841 1.72637e-18)
(0.994949 -0.000883931 1.49414e-18)
(0.99428 -0.000972675 4.26627e-19)
(0.993545 -0.00106974 1.16527e-18)
(0.992737 -0.00117587 3.44732e-18)
(0.99185 -0.00129184 8.85684e-20)
(0.990876 -0.00141853 -1.45025e-18)
(0.989807 -0.00155691 7.97455e-20)
(0.988635 -0.00170804 9.00297e-19)
(0.98735 -0.00187314 2.36026e-19)
(0.985942 -0.00205358 7.44848e-19)
(0.984399 -0.00225098 1.25643e-18)
(0.982709 -0.00246719 1.85027e-19)
(0.980857 -0.00270443 -7.22228e-19)
(0.97883 -0.00296531 1.77662e-19)
(0.976608 -0.00325291 -7.17081e-19)
(0.974173 -0.00357081 -8.84187e-19)
(0.971503 -0.00392312 -3.83098e-18)
(0.968573 -0.0043144 -4.03979e-19)
(0.965357 -0.00474956 -1.53153e-18)
(0.961823 -0.00523361 1.85559e-18)
(0.95794 -0.00577127 4.86602e-19)
(0.95367 -0.00636657 8.14362e-19)
(0.948978 -0.00702226 -5.33436e-18)
(0.943824 -0.00773925 -1.07436e-19)
(0.938171 -0.00851612 -8.92043e-19)
(0.931985 -0.00934869 1.04717e-18)
(0.925233 -0.01023 2.95689e-19)
(0.917891 -0.0111505 -6.17163e-18)
(0.909942 -0.0120988 -2.14533e-18)
(0.901375 -0.013063 8.02044e-19)
(0.892189 -0.0140328 -1.05499e-17)
(0.882388 -0.0150015 -9.06537e-19)
(0.871979 -0.0159691 1.59514e-18)
(0.860965 -0.0169457 2.14719e-18)
(0.849338 -0.0179544 4.96901e-18)
(0.837067 -0.0190333 1.19915e-17)
(0.82409 -0.0202363 -9.36151e-18)
(0.810301 -0.0216316 2.8925e-18)
(0.79554 -0.0232969 -1.11969e-18)
(0.779594 -0.0253134 -1.16046e-17)
(0.762195 -0.0277563 -3.42694e-18)
(0.74303 -0.0306877 -8.72875e-18)
(0.721758 -0.0341516 -4.09874e-20)
(0.698019 -0.0381743 -2.4862e-18)
(0.671455 -0.042772 -2.84446e-18)
(0.641703 -0.047962 -3.20747e-18)
(0.608394 -0.0537736 -6.44263e-18)
(0.571139 -0.0602522 -3.62035e-18)
(0.529496 -0.0674519 -1.88676e-18)
(0.482968 -0.0753646 5.33413e-19)
(0.431051 -0.0839323 9.74038e-18)
(0.373292 -0.0929743 -1.14988e-18)
(0.309397 -0.10214 2.91687e-18)
(0.239316 -0.110901 3.73588e-18)
(0.163517 -0.118561 -2.76507e-19)
(0.0825495 -0.124424 -2.95624e-18)
(-0.0013457 -0.12763 3.58531e-18)
(-0.0860066 -0.126575 -3.00614e-18)
(-0.169304 -0.121557 -2.00852e-17)
(-0.248121 -0.112107 -2.04833e-18)
(-0.319604 -0.0983985 -1.10376e-16)
(-0.381121 -0.0812678 -3.47286e-17)
(-0.430842 -0.0615744 -5.9987e-18)
(-0.467449 -0.04022 -3.53526e-17)
(-0.490431 -0.0179087 -7.4888e-17)
(-0.499218 0.00510264 6.00115e-17)
(-0.493966 0.0289187 -5.03794e-17)
(-0.473875 0.0534456 -1.03588e-17)
(-0.439229 0.0778823 -1.37613e-17)
(-0.389378 0.101031 1.87004e-16)
(-0.327324 0.119684 1.32732e-16)
(-0.253823 0.13278 3.36131e-17)
(-0.177246 0.1337 -7.00654e-17)
(-0.0998893 0.122164 -1.40934e-17)
(-0.0275519 0.0719877 -6.41309e-17)
(1.00087 -5.1113e-05 -1.89125e-20)
(1.00078 -6.09399e-05 -1.98998e-21)
(1.00075 -6.49237e-05 -3.60915e-19)
(1.00067 -7.41881e-05 -1.68146e-19)
(1.0006 -8.10539e-05 -5.32161e-19)
(1.00052 -9.10865e-05 -5.82389e-20)
(1.00043 -0.000100528 -1.99567e-19)
(1.00033 -0.000112163 -2.69455e-20)
(1.00022 -0.000124236 -3.82384e-19)
(1.00009 -0.000138146 5.04469e-19)
(0.999958 -0.000153146 -6.59738e-19)
(0.999806 -0.000169972 6.51151e-19)
(0.999638 -0.000188374 -9.67216e-19)
(0.999451 -0.000208791 -1.04836e-18)
(0.999244 -0.000231221 -1.28048e-18)
(0.999016 -0.000255985 -8.07978e-19)
(0.998763 -0.000283216 -5.10188e-19)
(0.998483 -0.000313202 -3.21983e-19)
(0.998174 -0.00034616 -1.5522e-19)
(0.997833 -0.000382389 7.16088e-20)
(0.997457 -0.00042217 -1.3402e-18)
(0.997042 -0.000465838 -2.94616e-18)
(0.996584 -0.000513735 3.26336e-18)
(0.99608 -0.000566244 -1.7041e-18)
(0.995524 -0.000623774 2.05864e-18)
(0.994913 -0.000686768 2.20608e-18)
(0.994241 -0.000755707 -4.42973e-19)
(0.993501 -0.000831112 1.68902e-18)
(0.992689 -0.000913549 1.57071e-18)
(0.991796 -0.00100363 1.40151e-18)
(0.990817 -0.00110204 -1.35503e-19)
(0.989742 -0.00120953 1.90834e-19)
(0.988563 -0.00132691 -4.28586e-19)
(0.987271 -0.00145515 6.66673e-19)
(0.985854 -0.0015953 4.69194e-19)
(0.984303 -0.00174862 8.10075e-19)
(0.982603 -0.00191658 4.83213e-19)
(0.98074 -0.00210089 5.01891e-19)
(0.9787 -0.00230362 -1.98892e-18)
(0.976465 -0.00252719 -3.97439e-19)
(0.974014 -0.00277442 2.13446e-19)
(0.971324 -0.00304859 -2.20063e-18)
(0.968372 -0.00335333 -2.31088e-18)
(0.965128 -0.00369258 1.14367e-18)
(0.96156 -0.00407036 5.90066e-19)
(0.957633 -0.00449052 2.41356e-18)
(0.95331 -0.0049564 6.092e-18)
(0.948549 -0.00547034 -3.31754e-18)
(0.94331 -0.00603327 -1.42213e-18)
(0.93755 -0.00664429 1.20333e-18)
(0.931231 -0.00730035 2.15521e-18)
(0.924317 -0.00799615 7.45398e-18)
(0.916779 -0.00872435 -8.13268e-18)
(0.908595 -0.00947611 -1.05284e-18)
(0.89975 -0.0102421 1.78345e-18)
(0.890239 -0.011014 -1.04075e-17)
(0.880064 -0.0117862 -3.82543e-18)
(0.869229 -0.0125583 1.28538e-18)
(0.857735 -0.0133374 1.73049e-18)
(0.845574 -0.0141408 2.7643e-18)
(0.832715 -0.0149971 1.22985e-17)
(0.819096 -0.0159475 -3.12971e-18)
(0.804614 -0.0170444 1.70347e-18)
(0.789111 -0.0183483 -3.61277e-19)
(0.772372 -0.0199227 -7.52269e-18)
(0.754128 -0.0218274 -7.75348e-18)
(0.734061 -0.024113 -3.84457e-18)
(0.711814 -0.0268163 -1.2415e-18)
(0.687012 -0.0299608 -3.65681e-18)
(0.659271 -0.033561 -5.55212e-18)
(0.628202 -0.0376318 -3.52587e-18)
(0.59341 -0.042196 -9.85076e-18)
(0.554483 -0.0472893 -1.12161e-17)
(0.51098 -0.0529585 -3.45874e-18)
(0.462407 -0.0591853 2.09623e-18)
(0.408259 -0.0659244 5.54203e-18)
(0.348097 -0.0730416 -3.27575e-19)
(0.281642 -0.0802703 6.79176e-18)
(0.208852 -0.0872107 2.51371e-18)
(0.130184 -0.0933215 -1.03034e-18)
(0.046272 -0.0982107 -1.05806e-17)
(-0.0407061 -0.100598 4.62853e-18)
(-0.128564 -0.100118 4.79317e-18)
(-0.215085 -0.0964052 -4.79733e-20)
(-0.297081 -0.08921 9.76175e-19)
(-0.371626 -0.0786224 -8.65129e-17)
(-0.435964 -0.0652564 -3.89463e-17)
(-0.488082 -0.0497795 -9.27821e-18)
(-0.526486 -0.0328829 -1.5243e-17)
(-0.550485 -0.0151627 -1.08356e-16)
(-0.559289 0.00326057 5.47264e-18)
(-0.552948 0.0220302 -4.41702e-17)
(-0.530557 0.0417244 1.48489e-17)
(-0.49228 0.061394 1.03002e-18)
(-0.437246 0.0802478 1.05446e-16)
(-0.368242 0.0957171 1.63953e-16)
(-0.286007 0.107038 2.97401e-17)
(-0.198803 0.108905 -2.22125e-17)
(-0.109627 0.100883 -5.94846e-18)
(-0.0294095 0.0627609 -2.40601e-17)
(1.00087 -3.65257e-05 -7.94612e-20)
(1.00078 -4.34651e-05 -9.95967e-20)
(1.00075 -4.62723e-05 -3.35503e-19)
(1.00066 -5.28097e-05 -1.12589e-19)
(1.0006 -5.76626e-05 -3.52846e-19)
(1.00051 -6.47568e-05 1.12026e-19)
(1.00043 -7.14418e-05 -6.10601e-19)
(1.00032 -7.96849e-05 -1.90183e-20)
(1.00021 -8.82456e-05 -2.23849e-19)
(1.00009 -9.81161e-05 1.09619e-19)
(0.999952 -0.000108765 -4.39643e-19)
(0.999799 -0.000120718 -1.22364e-19)
(0.99963 -0.000133796 -1.25325e-18)
(0.999442 -0.000148312 -4.80884e-19)
(0.999235 -0.000164265 -1.14199e-18)
(0.999005 -0.000181883 -2.88144e-19)
(0.998751 -0.000201261 -3.76162e-19)
(0.998471 -0.000222605 -2.75797e-19)
(0.99816 -0.000246068 6.59544e-19)
(0.997818 -0.000271865 1.44579e-18)
(0.99744 -0.000300195 -9.09808e-20)
(0.997023 -0.000331296 -1.1608e-18)
(0.996563 -0.000365412 1.08962e-18)
(0.996056 -0.000402817 -3.41899e-19)
(0.995498 -0.0004438 1.61974e-18)
(0.994884 -0.000488678 2.11614e-18)
(0.994209 -0.000537793 2.16153e-18)
(0.993466 -0.000591515 2.37049e-18)
(0.99265 -0.000650246 6.79998e-19)
(0.991753 -0.000714427 -1.33172e-20)
(0.990769 -0.000784538 1.6838e-18)
(0.989689 -0.00086111 7.26689e-19)
(0.988505 -0.000944738 2.58778e-18)
(0.987207 -0.00103609 8.90561e-19)
(0.985784 -0.00113594 3.20845e-19)
(0.984225 -0.00124517 8.28223e-19)
(0.982517 -0.00136483 1.26364e-18)
(0.980646 -0.00149616 3.62413e-18)
(0.978596 -0.00164063 8.25073e-19)
(0.976349 -0.0018 -1.40252e-18)
(0.973884 -0.0019763 2.52581e-18)
(0.97118 -0.0021719 -5.6832e-19)
(0.968209 -0.00238944 -4.98995e-19)
(0.964942 -0.0026318 3.44166e-18)
(0.961346 -0.00290192 -9.43643e-19)
(0.957385 -0.00320266 2.38873e-18)
(0.953018 -0.00353649 2.61377e-18)
(0.948202 -0.00390523 -1.9672e-20)
(0.942894 -0.00430967 2.90695e-18)
(0.937048 -0.00474928 1.99533e-18)
(0.930623 -0.00522201 7.64123e-19)
(0.923579 -0.00572418 6.60984e-18)
(0.915883 -0.00625058 -2.51263e-18)
(0.90751 -0.00679494 5.72494e-18)
(0.898442 -0.00735053 -1.26409e-18)
(0.888671 -0.00791123 -3.21849e-18)
(0.878195 -0.00847288 -2.37087e-18)
(0.867017 -0.00903484 -1.04405e-18)
(0.855136 -0.0096018 1.3638e-18)
(0.842542 -0.0101855 9.86884e-18)
(0.829206 -0.0108058 1.07088e-17)
(0.815065 -0.0114918 4.57259e-18)
(0.800017 -0.0122802 1.20769e-18)
(0.783904 -0.0132143 4.81295e-18)
(0.766513 -0.0143395 -4.65932e-18)
(0.747572 -0.0156995 -1.53121e-18)
(0.726758 -0.0173316 -2.64749e-18)
(0.703706 -0.0192639 -2.68851e-18)
(0.678029 -0.0215147 -5.7486e-18)
(0.649324 -0.0240964 -1.18932e-17)
(0.617183 -0.0270207 -3.02298e-18)
(0.58119 -0.0303052 -1.72805e-17)
(0.540919 -0.0339785 -7.54148e-18)
(0.495927 -0.0380773 -1.12568e-17)
(0.445727 -0.0425664 2.80074e-18)
(0.389812 -0.0474262 4.2782e-18)
(0.327753 -0.0525708 -3.46306e-19)
(0.259285 -0.0578168 2.60679e-18)
(0.184376 -0.06289 2.23568e-18)
(0.103467 -0.0674008 -6.28526e-19)
(0.0172627 -0.0710918 -4.91598e-18)
(-0.0721363 -0.0729944 1.13025e-17)
(-0.162531 -0.0728999 2.10064e-17)
(-0.251631 -0.0704862 2.62625e-17)
(-0.3362 -0.0655509 -2.71815e-18)
(-0.413253 -0.0581202 -1.36352e-16)
(-0.479926 -0.0485949 -4.6374e-17)
(-0.534047 -0.0374467 -9.28794e-18)
(-0.573967 -0.0251621 -2.95384e-17)
(-0.598823 -0.0122172 -5.85386e-17)
(-0.607802 0.00130777 -9.60547e-18)
(-0.600628 0.0151107 -6.86205e-17)
(-0.5763 0.0297077 6.02219e-17)
(-0.535127 0.0442474 2.52143e-17)
(-0.475927 0.0582822 1.33276e-16)
(-0.401328 0.0699584 1.42698e-16)
(-0.312037 0.078695 4.99992e-18)
(-0.216363 0.0807096 -1.13108e-17)
(-0.117385 0.0757573 -1.57482e-18)
(-0.0307288 0.0497041 -1.14182e-17)
(1.00087 -2.19155e-05 -9.22272e-20)
(1.00078 -2.60974e-05 -8.56405e-20)
(1.00074 -2.78346e-05 -1.76277e-19)
(1.00066 -3.17925e-05 -7.84694e-20)
(1.0006 -3.47591e-05 -5.37056e-19)
(1.00051 -3.90571e-05 -1.91238e-19)
(1.00042 -4.31166e-05 -4.64616e-19)
(1.00032 -4.81025e-05 -1.72655e-19)
(1.00021 -5.32795e-05 -3.26304e-19)
(1.00008 -5.92364e-05 -2.19637e-20)
(0.999948 -6.5658e-05 -3.73406e-19)
(0.999794 -7.28564e-05 -4.21339e-19)
(0.999625 -8.07255e-05 -3.91402e-19)
(0.999436 -8.94521e-05 -9.81506e-20)
(0.999229 -9.90359e-05 1.8843e-19)
(0.998998 -0.000109613 -2.98342e-19)
(0.998743 -0.000121241 -4.37815e-19)
(0.998462 -0.000134042 -1.0963e-18)
(0.998151 -0.000148108 1.10483e-18)
(0.997807 -0.000163567 1.35142e-18)
(0.997428 -0.00018054 -6.46686e-19)
(0.997009 -0.000199169 -8.6973e-19)
(0.996548 -0.0002196 -5.72347e-19)
(0.99604 -0.000241995 1.79521e-19)
(0.99548 -0.00026653 9.12354e-19)
(0.994864 -0.000293394 2.82924e-18)
(0.994186 -0.000322791 1.78035e-18)
(0.993441 -0.000354943 1.17601e-18)
(0.992622 -0.000390091 1.33089e-18)
(0.991723 -0.000428498 -2.09851e-18)
(0.990735 -0.000470453 -3.59377e-19)
(0.989652 -0.000516272 9.79294e-19)
(0.988464 -0.000566312 2.27212e-18)
(0.987161 -0.000620974 -2.3958e-18)
(0.985734 -0.000680717 1.54388e-19)
(0.984169 -0.000746074 8.21448e-19)
(0.982456 -0.000817674 1.08428e-18)
(0.980578 -0.000896259 3.42957e-18)
(0.978521 -0.000982716 4.27467e-19)