/*--------------------------------*- C++ -*----------------------------------*\
  =========                 |
  \\      /  F ield         | OpenFOAM: The Open Source CFD Toolbox
   \\    /   O peration     | Website:  https://openfoam.org
    \\  /    A nd           | Version:  7
     \\/     M anipulation  |
\*---------------------------------------------------------------------------*/
FoamFile
{
    version     2.0;
    format      ascii;
    class       volScalarField;
    location    "110";
    object      p;
}
// * * * * * * * * * * * * * * * * * * * * * * * * * * * * * * * * * * * * * //

dimensions      [0 2 -2 0 0 0 0];

internalField   nonuniform List<scalar> 
125
(
0.000146051
0.00010289
-0.000262666
-0.000790891
-0.00147779
-0.00224191
-0.00307338
-0.00392429
-0.00478041
-0.00561019
-0.00639872
-0.00712364
-0.00777108
-0.00832353
-0.00876662
-0.00908329
-0.000168401
-0.00054275
-0.00113013
-0.0018528
-0.00270038
-0.00361796
-0.00458614
-0.00556923
-0.00654985
-0.00750274
-0.00841356
-0.00926407
-0.0100429
-0.0107366
-0.0113351
-0.011827
-0.000262557
-0.000918678
-0.00169247
-0.00259205
-0.00356763
-0.00460807
-0.00567542
-0.00675183
-0.00781297
-0.00884113
-0.00982026
-0.0107357
-0.0115765
-0.0123311
-0.0129908
-0.0135458
-0.000288748
-0.00121649
-0.002154
-0.00323999
-0.00434672
-0.00551823
-0.00669173
-0.00786937
-0.0090195
-0.0101321
-0.0111902
-0.012183
-0.0131009
-0.0139354
-0.0146805
-0.01533
-0.000273801
-0.00146956
-0.00254326
-0.00380999
-0.00503948
-0.00633737
-0.00761152
-0.00888381
-0.0101153
-0.0113028
-0.0124283
-0.0134845
-0.0144624
-0.0153561
-0.0161612
-0.016874
-0.000221247
-0.0016758
-0.0028571
-0.00428809
-0.00562651
-0.00703777
-0.00840226
-0.00975795
-0.0110604
-0.0123114
-0.0134931
-0.0146006
-0.0156262
-0.0165659
-0.0174169
-0.0181776
-0.000139942
-0.00184147
-0.00310313
-0.00467599
-0.00610929
-0.00761788
-0.00906162
-0.0104884
-0.0118512
-0.0131549
-0.014382
-0.0155296
-0.0165912
-0.0175648
-0.0184486
-0.0192428
-3.38062e-05
-0.00197266
-0.00329026
-0.00497972
-0.00649485
-0.00808367
-0.00959545
-0.011081
-0.0124937
-0.0138394
-0.0151019
-0.0162795
-0.017367
)
;

boundaryField
{
    inlet
    {
        type            zeroGradient;
    }
    outlet
    {
        type            fixedValue;
        value           uniform 0;
    }
    polygon
    {
        type            zeroGradient;
    }
    top
    {
        type            symmetryPlane;
    }
    bottom
    {
        type            symmetryPlane;
    }
    outside
    {
        type            slip;
    }
    procBoundary63to55
    {
        type            processor;
        value           nonuniform List<scalar> 
17
(
-0.0183636
-0.0192688
-0.0200839
9.8447e-05
-0.00207245
-0.00342451
-0.00520565
-0.00679103
-0.00844387
-0.010013
-0.0115457
-0.0129989
-0.0143771
-0.0156664
-0.0168656
-0.0183636
-0.0179707
)
;
    }
    procBoundary63to62
    {
        type            processor;
        value           nonuniform List<scalar> 7(-0.00926021 -0.012205 -0.0139897 -0.015881 -0.0174931 -0.0188484 -0.0199486);
    }
}


// ************************************************************************* //
