/*--------------------------------*- C++ -*----------------------------------*\
  =========                 |
  \\      /  F ield         | OpenFOAM: The Open Source CFD Toolbox
   \\    /   O peration     | Website:  https://openfoam.org
    \\  /    A nd           | Version:  7
     \\/     M anipulation  |
\*---------------------------------------------------------------------------*/
FoamFile
{
    version     2.0;
    format      ascii;
    class       surfaceScalarField;
    location    "42";
    object      phi;
}
// * * * * * * * * * * * * * * * * * * * * * * * * * * * * * * * * * * * * * //

dimensions      [0 3 -1 0 0 0 0];

internalField   nonuniform List<scalar> 
7840
(
-0.00147452
0.00976883
-0.00939962
-0.00183936
0.00973264
-0.0093678
-0.00220402
0.00967613
-0.00931147
-0.00256821
0.00963188
-0.00926769
-0.00293359
0.00958265
-0.00921727
-0.00330012
0.00954118
-0.00917466
-0.00366972
0.00949741
-0.00912781
-0.00404333
0.0094587
-0.00908509
-0.00442286
0.00941971
-0.00904019
-0.00480945
0.00938718
-0.00900058
-0.00520865
0.00935323
-0.00895404
-0.005621
0.00933463
-0.00892227
-0.00606291
0.00930864
-0.00886674
-0.00652488
0.00932378
-0.00886181
-0.00700841
0.00927305
-0.00878953
-0.00733754
0.00914909
-0.00881996
-0.00719694
0.00843664
-0.00857724
-0.00579225
0.0069812
-0.00838589
-0.00317768
0.00401669
-0.00663126
0.00109048
-0.00426816
-0.00150074
0.010139
-0.00186808
0.0101
-0.00223571
0.0100438
-0.00260351
0.00999968
-0.00297283
0.00995197
-0.00334425
0.00991261
-0.00371949
0.00987264
-0.00410016
0.00983937
-0.00448887
0.00980842
-0.00488813
0.00978644
-0.00530444
0.00976955
-0.00574252
0.00977271
-0.00621139
0.00977752
-0.00666782
0.00978021
-0.00698615
0.00959138
-0.00683395
0.00899689
-0.00585915
0.00746183
-0.00382391
0.00494597
-0.00144293
0.0016357
-0.000352443
-0.00152587
0.0105105
-0.00189522
0.0104693
-0.00226552
0.0104141
-0.00263654
0.0103707
-0.00301003
0.0103255
-0.00338675
0.0102893
-0.00376866
0.0102545
-0.00415735
0.0102281
-0.00455566
0.0102067
-0.00496689
0.0101977
-0.00539713
0.0101998
-0.00584493
0.0102205
-0.0062799
0.0102125
-0.00657317
0.0100735
-0.00647532
0.00949353
-0.00563133
0.0081529
-0.00390685
0.00573736
-0.00162702
0.00266614
-9.16124e-05
0.000100293
-0.000444055
-0.00154982
0.010883
-0.00192099
0.0108405
-0.00229349
0.0107866
-0.00266717
0.0107444
-0.0030437
0.010702
-0.00342377
0.0106694
-0.00380945
0.0106402
-0.00420307
0.0106217
-0.00460869
0.0106124
-0.00503048
0.0106194
-0.00546802
0.0106373
-0.0058932
0.0106457
-0.00621355
0.0105328
-0.00622325
0.0100832
-0.00564392
0.0089142
-0.00427765
0.00678662
-0.0023612
0.00382091
-0.000731825
0.00103676
-5.84107e-05
-0.000573121
-0.000502466
-0.00157238
0.0112566
-0.0019452
0.0112133
-0.00231972
0.0111611
-0.00269616
0.0111208
-0.00307631
0.0110821
-0.00346153
0.0110546
-0.0038544
0.0110331
-0.00425707
0.0110244
-0.00467142
0.0110267
-0.00509566
0.0110437
-0.0055123
0.011054
-0.00585545
0.0109888
-0.00597338
0.0106508
-0.00562315
0.00973295
-0.00458819
0.00787925
-0.00292218
0.00512062
-0.00122263
0.00212136
-0.00016322
-2.26507e-05
0.000113871
-0.000850213
-0.000388595
-0.00159362
0.0116312
-0.00196799
0.0115877
-0.00234432
0.0115374
-0.002723
0.0114995
-0.00310543
0.0114646
-0.00349263
0.0114418
-0.00388615
0.0114266
-0.00428785
0.0114261
-0.00469908
0.0114379
-0.00511146
0.0114561
-0.00548273
0.0114252
-0.00569917
0.0112053
-0.00556324
0.0105148
-0.00485223
0.00902193
-0.00350494
0.00653196
-0.00187358
0.00348926
-0.000627233
0.000875019
-6.67395e-05
-0.000583144
6.2077e-06
-0.00092316
-0.000382387
-0.00161335
0.0120064
-0.00198893
0.0119633
-0.00236674
0.0119152
-0.00274761
0.0118804
-0.00313304
0.01185
-0.00352496
0.0118337
-0.00392554
0.0118272
-0.00433626
0.0118368
-0.00475119
0.0118529
-0.00513987
0.0118447
-0.0054219
0.0117073
-0.0054476
0.011231
-0.00502066
0.0100879
-0.00400122
0.00800249
-0.00253108
0.00506181
-0.00115322
0.0021114
-0.000342057
6.38515e-05
-3.44668e-05
-0.000890734
6.9131e-06
-0.00096454
-0.000375474
-0.0016319
0.0123822
-0.00200874
0.0123401
-0.002388
0.0122945
-0.00277074
0.0122631
-0.00315766
0.0122369
-0.00354969
0.0122258
-0.00394639
0.0122239
-0.00434422
0.0122346
-0.00472778
0.0122364
-0.00505084
0.0121678
-0.00521141
0.0118678
-0.00504216
0.0110617
-0.00436507
0.0094108
-0.00315767
0.0067951
-0.0017665
0.00367065
-0.000732294
0.00107719
-0.000212814
-0.000455628
-3.82649e-05
-0.00106528
-2.17487e-05
-0.000981056
-0.000397222
-0.00164876
0.0127584
-0.00202624
0.0127176
-0.00240616
0.0126744
-0.00279037
0.0126473
-0.00317905
0.0126256
-0.00357414
0.0126208
-0.00397564
0.0126254
-0.00437833
0.0126373
-0.0047551
0.0126132
-0.00502938
0.0124421
-0.00505678
0.0118952
-0.00465809
0.010663
-0.0037344
0.00848711
-0.00244114
0.00550184
-0.001232
0.0024615
-0.000461897
0.000307092
-0.000101638
-0.000815888
5.23974e-06
-0.00117216
5.41204e-06
-0.000981228
-0.00039181
-0.0016644
0.0131342
-0.00204388
0.0130971
-0.00242515
0.0130557
-0.00281139
0.0130336
-0.00320093
0.0130151
-0.0035946
0.0130145
-0.00398633
0.0130171
-0.00435781
0.0130088
-0.00465796
0.0129134
-0.0047851
0.0125692
-0.00459821
0.0117083
-0.003981
0.0100458
-0.00294966
0.00745577
-0.00175374
0.00430592
-0.000786962
0.00149472
-0.000223396
-0.000256474
2.59449e-05
-0.00106523
5.88637e-05
-0.00120508
1.40607e-05
-0.000936425
-0.00037775
-0.000618
0.0115517
-0.0117741
-0.000403615
0.0114582
-0.0116725
-0.000194192
0.0113586
-0.0115681
3.42548e-06
0.0112312
-0.0114288
0.000192011
0.0111129
-0.0113015
0.000366268
0.0109644
-0.0111387
0.000526551
0.0108157
-0.0109759
0.000668491
0.0106355
-0.0107774
0.000789169
0.0104367
-0.0105574
0.000884357
0.0101968
-0.010292
0.000948811
0.009918
-0.00998246
0.00097766
0.0095747
-0.00960355
0.000962336
0.00917076
-0.00915544
0.000905108
0.00866932
-0.00861209
0.000796596
0.00811502
-0.00800651
0.000644119
0.00740941
-0.00725694
0.000441419
0.00670852
-0.00650582
0.000178088
0.00574882
-0.00548549
-6.72408e-06
0.00458914
-0.00440432
0.00218181
-0.00218853
-0.000642733
0.0113262
-0.000426037
0.0112415
-0.000214024
0.0111466
-1.36089e-05
0.0110308
0.000177942
0.0109213
0.000355267
0.0107871
0.000518622
0.0106523
0.000663575
0.0104905
0.000787413
0.0103129
0.000885614
0.0100986
0.000953071
0.00985055
0.000984963
0.00954281
0.00097477
0.00918096
0.000920981
0.0087231
0.000821056
0.00821494
0.000667676
0.00756279
0.000485096
0.0068911
0.000229972
0.00600394
7.37397e-05
0.00474537
0.00225555
-0.000667401
0.0110979
-0.00044751
0.0110216
-0.000232561
0.0109317
-2.87597e-05
0.010827
0.000166383
0.0107262
0.000347576
0.0106059
0.000514965
0.0104849
0.000664034
0.0103415
0.000791908
0.010185
0.00089355
0.00999695
0.000963256
0.00978084
0.000995137
0.00951093
0.000981005
0.00919509
0.000916623
0.00878749
0.00079871
0.00833286
0.000618921
0.00774258
0.000403793
0.00710623
0.000120106
0.00628763
-3.65554e-05
0.00490203
0.00221899
-0.000691534
0.0108665
-0.000468113
0.0107982
-0.000249802
0.0107134
-4.21613e-05
0.0106193
0.000157001
0.010527
0.000342655
0.0104202
0.00051482
0.0103127
0.000669029
0.0101873
0.000802456
0.0100516
0.000909903
0.00988951
0.000985887
0.00970486
0.00102365
0.00947317
0.00101642
0.00920232
0.000954614
0.00884929
0.000841818
0.00844565
0.000650134
0.00793427
0.000434213
0.00732215
0.000154865
0.00656698
-1.62737e-05
0.00507317
0.00220272
-0.000715311
0.0106318
-0.000488128
0.010571
-0.000266186
0.0104914
-5.43557e-05
0.0104075
0.000149229
0.0103234
0.000339891
0.0102296
0.000517638
0.010135
0.000678182
0.0100267
0.000818907
0.00991087
0.00093443
0.00977398
0.00101957
0.00961972
0.00106639
0.00942635
0.00106894
0.00919977
0.00101527
0.00890296
0.000909533
0.00855139
0.000732609
0.00811119
0.000506495
0.00754826
0.000230462
0.00684301
2.60711e-05
0.00527756
0.00222879
-0.000738229
0.0103935
-0.000506806
0.0103395
-0.000280619
0.0102652
-6.38583e-05
0.0101908
0.000145045
0.0101145
0.000341854
0.0100328
0.000526684
0.00995017
0.000695454
0.00985795
0.000846018
0.0097603
0.0009728
0.0096472
0.00107155
0.00952097
0.00113187
0.00936603
0.00115068
0.00918096
0.00110597
0.00894767
0.00100796
0.00864939
0.000801269
0.00831788
0.000564094
0.00778544
0.000241718
0.00716539
2.50945e-05
0.00549418
0.00225388
-0.000761077
0.0101514
-0.000525466
0.0101039
-0.000295068
0.0100348
-7.3447e-05
0.00996913
0.000140743
0.00990033
0.000343608
0.00982989
0.000535453
0.00975832
0.000712611
0.00968079
0.000873293
0.00959962
0.00101173
0.00950876
0.00112399
0.00940871
0.00119961
0.00929041
0.00123591
0.00914466
0.00121551
0.00896808
0.0011482
0.0087167
0.00102497
0.00844111
0.000822887
0.00798752
0.000568932
0.00741934
0.000226206
0.00583691
0.00248009
-0.000782228
0.00990501
-0.000541573
0.00986328
-0.000305747
0.00979902
-7.78916e-05
0.00974127
0.000143188
0.00967925
0.000354107
0.00961897
0.000555566
0.00955686
0.000744176
0.00949218
0.000918557
0.00942524
0.00107313
0.00935418
0.00120576
0.00927609
0.00130487
0.0091913
0.00136814
0.00908139
0.00136763
0.00896858
0.00130443
0.00877991
0.00110841
0.00863713
0.000846789
0.00824914
0.000434681
0.00783145
0.000160945
0.00611064
0.00264103
-0.000804667
0.00965482
-0.000560161
0.00961877
-0.000320314
0.00955917
-8.79086e-05
0.00950887
0.000138235
0.00945311
0.000354773
0.00940243
0.00056272
0.00934892
0.000758615
0.00929629
0.000941473
0.00924238
0.00110646
0.0091892
0.00125172
0.00913082
0.00136708
0.00907594
0.00145157
0.0089969
0.0014892
0.00893095
0.00149536
0.00877375
0.00148249
0.00864999
0.00142141
0.00831022
0.00126884
0.00798402
0.00077249
0.006607
0.00341352
-0.00082281
-0.000571837
-0.000324133
-8.29588e-05
0.000152884
0.000380661
0.000601768
0.000812967
0.00101516
0.00120378
0.00138056
0.00153423
0.0016644
0.00173353
0.00171776
0.00154779
0.00128077
0.000878901
0.000854639
-0.00082281
-0.00965482
0.00939962
-0.000571837
-0.00961877
0.0093678
-0.000324133
-0.00955917
0.00931147
-8.29588e-05
-0.00950887
0.00926769
0.000152884
-0.00945311
0.00921727
0.000380661
-0.00940243
0.00917466
0.000601768
-0.00934892
0.00912781
0.000812967
-0.00929629
0.00908509
0.00101516
-0.00924238
0.00904019
0.00120378
-0.0091892
0.00900058
0.00138056
-0.00913082
0.00895404
0.00153423
-0.00907594
0.00892227
0.0016644
-0.0089969
0.00886674
0.00173353
-0.00893095
0.00886181
0.00171776
-0.00877375
0.00878953
0.00154779
-0.00864999
0.00881996
0.00128077
-0.00831022
0.00857724
0.000878901
-0.00798402
0.00838589
0.000854639
-0.006607
0.00663126
-0.00341352
0.00426816
-0.000804667
-0.00990501
-0.000560161
-0.00986328
-0.000320314
-0.00979902
-8.79086e-05
-0.00974127
0.000138235
-0.00967925
0.000354773
-0.00961897
0.00056272
-0.00955686
0.000758615
-0.00949218
0.000941473
-0.00942524
0.00110646
-0.00935418
0.00125172
-0.00927609
0.00136708
-0.0091913
0.00145157
-0.00908139
0.0014892
-0.00896858
0.00149536
-0.00877991
0.00148249
-0.00863713
0.00142141
-0.00824914
0.00126884
-0.00783145
0.00077249
-0.00611064
-0.00264103
-0.000782228
-0.0101514
-0.000541573
-0.0101039
-0.000305747
-0.0100348
-7.78916e-05
-0.00996913
0.000143188
-0.00990033
0.000354107
-0.00982989
0.000555566
-0.00975832
0.000744176
-0.00968079
0.000918557
-0.00959962
0.00107313
-0.00950876
0.00120576
-0.00940871
0.00130487
-0.00929041
0.00136814
-0.00914466
0.00136763
-0.00896808
0.00130443
-0.0087167
0.00110841
-0.00844111
0.000846789
-0.00798752
0.000434681
-0.00741934
0.000160945
-0.00583691
-0.00248009
-0.000761077
-0.0103935
-0.000525466
-0.0103395
-0.000295068
-0.0102652
-7.3447e-05
-0.0101908
0.000140743
-0.0101145
0.000343608
-0.0100328
0.000535453
-0.00995017
0.000712611
-0.00985795
0.000873293
-0.0097603
0.00101173
-0.0096472
0.00112399
-0.00952097
0.00119961
-0.00936603
0.00123591
-0.00918096
0.00121551
-0.00894767
0.0011482
-0.00864939
0.00102497
-0.00831788
0.000822887
-0.00778544
0.000568932
-0.00716539
0.000226206
-0.00549418
-0.00225388
-0.000738229
-0.0106318
-0.000506806
-0.010571
-0.000280619
-0.0104914
-6.38583e-05
-0.0104075
0.000145045
-0.0103234
0.000341854
-0.0102296
0.000526684
-0.010135
0.000695454
-0.0100267
0.000846018
-0.00991087
0.0009728
-0.00977398
0.00107155
-0.00961972
0.00113187
-0.00942635
0.00115068
-0.00919977
0.00110597
-0.00890296
0.00100796
-0.00855139
0.000801269
-0.00811119
0.000564094
-0.00754826
0.000241718
-0.00684301
2.50945e-05
-0.00527756
-0.00222879
-0.000715311
-0.0108665
-0.000488128
-0.0107982
-0.000266186
-0.0107134
-5.43557e-05
-0.0106193
0.000149229
-0.010527
0.000339891
-0.0104202
0.000517638
-0.0103127
0.000678182
-0.0101873
0.000818907
-0.0100516
0.00093443
-0.00988951
0.00101957
-0.00970486
0.00106639
-0.00947317
0.00106894
-0.00920232
0.00101527
-0.00884929
0.000909533
-0.00844565
0.000732609
-0.00793427
0.000506495
-0.00732215
0.000230462
-0.00656698
2.60711e-05
-0.00507317
-0.00220272
-0.000691534
-0.0110979
-0.000468113
-0.0110216
-0.000249802
-0.0109317
-4.21613e-05
-0.010827
0.000157001
-0.0107262
0.000342655
-0.0106059
0.00051482
-0.0104849
0.000669029
-0.0103415
0.000802456
-0.010185
0.000909903
-0.00999695
0.000985887
-0.00978084
0.00102365
-0.00951093
0.00101642
-0.00919509
0.000954614
-0.00878749
0.000841818
-0.00833286
0.000650134
-0.00774258
0.000434213
-0.00710623
0.000154865
-0.00628763
-1.62737e-05
-0.00490203
-0.00221899
-0.000667401
-0.0113262
-0.00044751
-0.0112415
-0.000232561
-0.0111466
-2.87597e-05
-0.0110308
0.000166383
-0.0109213
0.000347576
-0.0107871
0.000514965
-0.0106523
0.000664034
-0.0104905
0.000791908
-0.0103129
0.00089355
-0.0100986
0.000963256
-0.00985055
0.000995137
-0.00954281
0.000981005
-0.00918096
0.000916623
-0.0087231
0.00079871
-0.00821494
0.000618921
-0.00756279
0.000403793
-0.0068911
0.000120106
-0.00600394
-3.65554e-05
-0.00474537
-0.00225555
-0.000642733
-0.0115517
-0.000426037
-0.0114582
-0.000214024
-0.0113586
-1.36089e-05
-0.0112312
0.000177942
-0.0111129
0.000355267
-0.0109644
0.000518622
-0.0108157
0.000663575
-0.0106355
0.000787413
-0.0104367
0.000885614
-0.0101968
0.000953071
-0.009918
0.000984963
-0.0095747
0.00097477
-0.00917076
0.000920981
-0.00866932
0.000821056
-0.00811502
0.000667676
-0.00740941
0.000485096
-0.00670852
0.000229972
-0.00574882
7.37397e-05
-0.00458914
-0.00218181
-0.000618
-0.0117741
-0.000403615
-0.0116725
-0.000194192
-0.0115681
3.42548e-06
-0.0114288
0.000192011
-0.0113015
0.000366268
-0.0111387
0.000526551
-0.0109759
0.000668491
-0.0107774
0.000789169
-0.0105574
0.000884357
-0.010292
0.000948811
-0.00998246
0.00097766
-0.00960355
0.000962336
-0.00915544
0.000905108
-0.00861209
0.000796596
-0.00800651
0.000644119
-0.00725694
0.000441419
-0.00650582
0.000178088
-0.00548549
-6.72408e-06
-0.00440432
-0.00218853
-0.0016644
-0.0127584
0.0131342
-0.00204388
-0.0127176
0.0130971
-0.00242515
-0.0126744
0.0130557
-0.00281139
-0.0126473
0.0130336
-0.00320093
-0.0126256
0.0130151
-0.0035946
-0.0126208
0.0130145
-0.00398633
-0.0126254
0.0130171
-0.00435781
-0.0126373
0.0130088
-0.00465796
-0.0126132
0.0129134
-0.0047851
-0.0124421
0.0125692
-0.00459821
-0.0118952
0.0117083
-0.003981
-0.010663
0.0100458
-0.00294966
-0.00848711
0.00745577
-0.00175374
-0.00550184
0.00430592
-0.000786962
-0.0024615
0.00149472
-0.000223396
-0.000307092
-0.000256474
2.59449e-05
0.000815888
-0.00106523
5.88637e-05
0.00117216
-0.00120508
1.40607e-05
0.000981228
-0.000936425
0.00039181
-0.00037775
-0.00164876
-0.0123822
-0.00202624
-0.0123401
-0.00240616
-0.0122945
-0.00279037
-0.0122631
-0.00317905
-0.0122369
-0.00357414
-0.0122258
-0.00397564
-0.0122239
-0.00437833
-0.0122346
-0.0047551
-0.0122364
-0.00502938
-0.0121678
-0.00505678
-0.0118678
-0.00465809
-0.0110617
-0.0037344
-0.0094108
-0.00244114
-0.0067951
-0.001232
-0.00367065
-0.000461897
-0.00107719
-0.000101638
0.000455628
5.23974e-06
0.00106528
5.41204e-06
0.000981056
0.000397222
-0.0016319
-0.0120064
-0.00200874
-0.0119633
-0.002388
-0.0119152
-0.00277074
-0.0118804
-0.00315766
-0.01185
-0.00354969
-0.0118337
-0.00394639
-0.0118272
-0.00434422
-0.0118368
-0.00472778
-0.0118529
-0.00505084
-0.0118447
-0.00521141
-0.0117073
-0.00504216
-0.011231
-0.00436507
-0.0100879
-0.00315767
-0.00800249
-0.0017665
-0.00506181
-0.000732294
-0.0021114
-0.000212814
-6.38515e-05
-3.82649e-05
0.000890734
-2.17487e-05
0.00096454
0.000375474
-0.00161335
-0.0116312
-0.00198893
-0.0115877
-0.00236674
-0.0115374
-0.00274761
-0.0114995
-0.00313304
-0.0114646
-0.00352496
-0.0114418
-0.00392554
-0.0114266
-0.00433626
-0.0114261
-0.00475119
-0.0114379
-0.00513987
-0.0114561
-0.0054219
-0.0114252
-0.0054476
-0.0112053
-0.00502066
-0.0105148
-0.00400122
-0.00902193
-0.00253108
-0.00653196
-0.00115322
-0.00348926
-0.000342057
-0.000875019
-3.44668e-05
0.000583144
6.9131e-06
0.00092316
0.000382387
-0.00159362
-0.0112566
-0.00196799
-0.0112133
-0.00234432
-0.0111611
-0.002723
-0.0111208
-0.00310543
-0.0110821
-0.00349263
-0.0110546
-0.00388615
-0.0110331
-0.00428785
-0.0110244
-0.00469908
-0.0110267
-0.00511146
-0.0110437
-0.00548273
-0.011054
-0.00569917
-0.0109888
-0.00556324
-0.0106508
-0.00485223
-0.00973295
-0.00350494
-0.00787925
-0.00187358
-0.00512062
-0.000627233
-0.00212136
-6.67395e-05
2.26507e-05
6.2077e-06
0.000850213
0.000388595
-0.00157238
-0.010883
-0.0019452
-0.0108405
-0.00231972
-0.0107866
-0.00269616
-0.0107444
-0.00307631
-0.010702
-0.00346153
-0.0106694
-0.0038544
-0.0106402
-0.00425707
-0.0106217
-0.00467142
-0.0106124
-0.00509566
-0.0106194
-0.0055123
-0.0106373
-0.00585545
-0.0106457
-0.00597338
-0.0105328
-0.00562315
-0.0100832
-0.00458819
-0.0089142
-0.00292218
-0.00678662
-0.00122263
-0.00382091
-0.00016322
-0.00103676
0.000113871
0.000573121
0.000502466
-0.00154982
-0.0105105
-0.00192099
-0.0104693
-0.00229349
-0.0104141
-0.00266717
-0.0103707
-0.0030437
-0.0103255
-0.00342377
-0.0102893
-0.00380945
-0.0102545
-0.00420307
-0.0102281
-0.00460869
-0.0102067
-0.00503048
-0.0101977
-0.00546802
-0.0101998
-0.0058932
-0.0102205
-0.00621355
-0.0102125
-0.00622325
-0.0100735
-0.00564392
-0.00949353
-0.00427765
-0.0081529
-0.0023612
-0.00573736
-0.000731825
-0.00266614
-5.84107e-05
-0.000100293
0.000444055
-0.00152587
-0.010139
-0.00189522
-0.0101
-0.00226552
-0.0100438
-0.00263654
-0.00999968
-0.00301003
-0.00995197
-0.00338675
-0.00991261
-0.00376866
-0.00987264
-0.00415735
-0.00983937
-0.00455566
-0.00980842
-0.00496689
-0.00978644
-0.00539713
-0.00976955
-0.00584493
-0.00977271
-0.0062799
-0.00977752
-0.00657317
-0.00978021
-0.00647532
-0.00959138
-0.00563133
-0.00899689
-0.00390685
-0.00746184
-0.00162702
-0.00494597
-9.16124e-05
-0.0016357
0.000352443
-0.00150074
-0.00976883
-0.00186808
-0.00973264
-0.00223571
-0.00967613
-0.00260351
-0.00963188
-0.00297283
-0.00958265
-0.00334425
-0.00954118
-0.00371949
-0.00949741
-0.00410016
-0.0094587
-0.00448887
-0.00941971
-0.00488813
-0.00938718
-0.00530444
-0.00935323
-0.00574252
-0.00933463
-0.00621139
-0.00930864
-0.00666782
-0.00932378
-0.00698615
-0.00927305
-0.00683395
-0.00914909
-0.00585915
-0.00843664
-0.00382391
-0.0069812
-0.00144293
-0.00401669
-0.00109048
-0.00147452
-0.00183936
-0.00220402
-0.00256821
-0.00293359
-0.00330012
-0.00366972
-0.00404333
-0.00442286
-0.00480945
-0.00520865
-0.005621
-0.00606291
-0.00652488
-0.00700841
-0.00733754
-0.00719694
-0.00579225
-0.00317768
-0.00453448
-0.0113783
-0.00493217
-0.0112749
-0.00533794
-0.0111623
-0.0057376
-0.0110292
-0.00614919
-0.0108899
-0.00655284
-0.010735
-0.00696088
-0.0105679
-0.00735396
-0.0103843
-0.00772752
-0.0101839
-0.00806296
-0.00995655
-0.00834446
-0.00970095
-0.00853532
-0.00941269
-0.0086033
-0.00908746
-0.00849773
-0.00871766
-0.00820227
-0.00830197
-0.00761876
-0.00784044
-0.00678092
-0.00734366
-0.00545438
-0.00681203
-0.00352678
-0.00633192
-0.00571531
-1.90267e-13
-0.00350737
-0.0110698
-0.00380089
-0.0109813
-0.00408315
-0.01088
-0.004353
-0.0107593
-0.00461411
-0.0106287
-0.00486193
-0.0104872
-0.00509695
-0.0103329
-0.00531578
-0.0101655
-0.00551625
-0.00998338
-0.0056865
-0.0097863
-0.00581371
-0.00957374
-0.00587973
-0.00934667
-0.00586074
-0.00910644
-0.00572175
-0.00885665
-0.00542373
-0.00859999
-0.00492255
-0.00834162
-0.00417691
-0.0080893
-0.00313877
-0.00785017
-0.00181625
-0.00765445
-0.00753155
7.64185e-14
-0.00288282
-0.0108022
-0.00313772
-0.0107264
-0.00337515
-0.0106426
-0.00359139
-0.0105431
-0.00378119
-0.0104389
-0.00394243
-0.0103259
-0.00407053
-0.0102048
-0.00416093
-0.0100751
-0.00420721
-0.00993711
-0.00420322
-0.00979029
-0.004142
-0.00963496
-0.00401705
-0.00947163
-0.00382173
-0.00930177
-0.0035505
-0.00912788
-0.00319586
-0.00895464
-0.00274926
-0.00878822
-0.00220324
-0.00863531
-0.0015496
-0.00850382
-0.000799139
-0.00840491
-0.00833069
2.87817e-13
-0.00208051
-0.0106007
-0.00226801
-0.0105389
-0.00244024
-0.0104704
-0.0025957
-0.0103876
-0.00273463
-0.0103
-0.00285463
-0.0102059
-0.0029528
-0.0101066
-0.00302531
-0.0100026
-0.00306786
-0.00989455
-0.00307465
-0.0097835
-0.00303908
-0.00967053
-0.00295366
-0.00955705
-0.00281081
-0.00944461
-0.00260363
-0.00933506
-0.00232781
-0.00923045
-0.0019826
-0.00913343
-0.00157043
-0.00904749
-0.00109699
-0.00897725
-0.000574542
-0.00892735
-0.00890523
2.62116e-13
-0.00167622
-0.0104444
-0.00181656
-0.0103986
-0.00193979
-0.0103471
-0.00204241
-0.010285
-0.00212292
-0.0102195
-0.00217951
-0.0101494
-0.00221044
-0.0100757
-0.00221427
-0.00999877
-0.0021897
-0.00991912
-0.00213592
-0.00983728
-0.00205236
-0.00975409
-0.00193875
-0.00967066
-0.00179487
-0.0095885
-0.00162043
-0.0095095
-0.00141497
-0.0094359
-0.00117847
-0.00936993
-0.000912288
-0.00931367
-0.000620966
-0.00926858
-0.00031199
-0.00923633
-0.00921722
3.33e-13
-0.00116645
-0.0103244
-0.00127793
-0.0102871
-0.00137845
-0.0102466
-0.00146608
-0.0101974
-0.00153963
-0.0101459
-0.00159754
-0.0100915
-0.00163814
-0.0100351
-0.0016595
-0.00997741
-0.00165952
-0.0099191
-0.00163592
-0.00986088
-0.00158656
-0.00980346
-0.00150962
-0.0097476
-0.00140405
-0.00969407
-0.00126988
-0.00964367
-0.00110848
-0.00959731
-0.000922367
-0.00955604
-0.00071493
-0.00952111
-0.000489533
-0.00949397
-0.000250136
-0.00947573
-0.00946736
2.85379e-13
-0.000922984
-0.0102392
-0.000996404
-0.0102137
-0.00105851
-0.0101845
-0.00110672
-0.0101491
-0.00114076
-0.0101119
-0.00115986
-0.0100724
-0.00116372
-0.0100312
-0.00115229
-0.00998885
-0.00112571
-0.00994568
-0.00108438
-0.00990221
-0.0010288
-0.00985903
-0.000959529
-0.00981687
-0.000877034
-0.00977656
-0.000781694
-0.00973901
-0.000673893
-0.00970511
-0.000554326
-0.00967561
-0.000424337
-0.0096511
-0.000286406
-0.0096319
-0.000143715
-0.00961842
-0.00961108
4.30352e-13
-0.000637852
-0.0101712
-0.00070129
-0.0101503
-0.000757917
-0.0101279
-0.000806436
-0.0101006
-0.000845869
-0.0100725
-0.000875289
-0.0100429
-0.000893747
-0.0100128
-0.000900288
-0.00998231
-0.000893983
-0.00995199
-0.000874007
-0.00992219
-0.000839772
-0.00989327
-0.000791057
-0.00986559
-0.00072814
-0.00983948
-0.000651856
-0.00981529
-0.000563546
-0.00979342
-0.000464864
-0.00977429
-0.000357554
-0.00975841
-0.000243173
-0.00974628
-0.00012334
-0.00973825
-0.00973442
2.69986e-13
-0.000491076
-0.0101261
-0.000528816
-0.0101125
-0.000559833
-0.0100969
-0.00058257
-0.0100779
-0.000597146
-0.0100579
-0.000603345
-0.0100367
-0.000601284
-0.0100148
-0.000591209
-0.00999238
-0.000573491
-0.00996971
-0.000548584
-0.00994709
-0.000516955
-0.0099249
-0.000479024
-0.00990352
-0.000435124
-0.00988338
-0.000385517
-0.0098649
-0.000330476
-0.00984846
-0.00027044
-0.00983433
-0.000206156
-0.00982269
-0.000138779
-0.00981366
-6.96549e-05
-0.00980738
-0.00980407
1.82092e-13
-0.000345687
-0.0100886
-0.000380918
-0.0100773
-0.000412359
-0.0100654
-0.00043924
-0.010051
-0.000460876
-0.0100363
-0.000476701
-0.0100209
-0.000486153
-0.0100054
-0.000488716
-0.00998982
-0.000483937
-0.00997449
-0.000471481
-0.00995955
-0.000451198
-0.00994518
-0.000423178
-0.00993154
-0.000387794
-0.00991876
-0.000345682
-0.00990701
-0.000297682
-0.00989646
-0.000244707
-0.0098873
-0.000187636
-0.00987976
-0.000127251
-0.00987405
-6.43595e-05
-0.00987027
-0.00986843
2.92929e-13
-0.000253948
-0.0100651
-0.00027315
-0.0100581
-0.000288533
-0.0100501
-0.000299238
-0.0100403
-0.000305457
-0.01003
-0.000307187
-0.0100192
-0.000304616
-0.0100079
-0.000297998
-0.00999644
-0.000287637
-0.00998485
-0.000273857
-0.00997333
-0.000256957
-0.00996208
-0.000237177
-0.00995132
-0.000214687
-0.00994125
-0.00018961
-0.00993209
-0.000162074
-0.00992399
-0.000132301
-0.00991708
-0.000100662
-0.0099114
-6.76927e-05
-0.00990701
-3.39797e-05
-0.00990398
-0.00990241
2.65391e-13
-0.000186985
-0.0100446
-0.000206438
-0.0100386
-0.000223905
-0.0100326
-0.000238938
-0.0100253
-0.000251099
-0.0100179
-0.000260024
-0.0100103
-0.000265368
-0.0100026
-0.000266822
-0.00999499
-0.000264132
-0.00998754
-0.000257131
-0.00998033
-0.000245778
-0.00997343
-0.000230178
-0.00996692
-0.000210595
-0.00996084
-0.000187429
-0.00995526
-0.000161164
-0.00995026
-0.000132304
-0.00994594
-0.000101315
-0.00994239
-6.86194e-05
-0.00993971
-3.46613e-05
-0.00993794
-0.00993707
2.82576e-13
-0.000126562
-0.0100324
-0.000136245
-0.010029
-0.000143788
-0.010025
-0.000148753
-0.0100203
-0.000151303
-0.0100153
-0.000151512
-0.01001
-0.000149543
-0.0100046
-0.000145594
-0.00999894
-0.000139879
-0.00999325
-0.000132607
-0.0099876
-0.000123952
-0.00998209
-0.000114042
-0.00997683
-0.000102952
-0.00997193
-9.07229e-05
-0.00996749
-7.74022e-05
-0.00996358
-6.30845e-05
-0.00996025
-4.79429e-05
-0.00995753
-3.22201e-05
-0.00995543
-1.61724e-05
-0.00995399
-0.00995324
5.21316e-14
-0.000100866
-0.0100211
-0.00011165
-0.0100182
-0.000121439
-0.0100153
-0.000129963
-0.0100118
-0.000136964
-0.0100083
-0.000142193
-0.0100048
-0.000145437
-0.0100013
-0.000146497
-0.00999788
-0.000145214
-0.00999453
-0.000141491
-0.00999132
-0.000135309
-0.00998827
-0.00012674
-0.00998539
-0.000115949
-0.00998272
-0.000103173
-0.00998026
-8.8689e-05
-0.00997806
-7.27801e-05
-0.00997616
-5.57056e-05
-0.00997461
-3.77056e-05
-0.00997343
-1.90344e-05
-0.00997266
-0.00997228
2.73621e-13
-5.86838e-05
-0.0100149
-6.35059e-05
-0.0100133
-6.71246e-05
-0.0100116
-6.93454e-05
-0.0100096
-7.02836e-05
-0.0100074
-7.00347e-05
-0.0100051
-6.87231e-05
-0.0100026
-6.64927e-05
-0.0100001
-6.34893e-05
-0.00999754
-5.9844e-05
-0.00999497
-5.56589e-05
-0.00999246
-5.09983e-05
-0.00999006
-4.58896e-05
-0.00998783
-4.03376e-05
-0.00998581
-3.43476e-05
-0.00998405
-2.79503e-05
-0.00998256
-2.12158e-05
-0.00998134
-1.42464e-05
-0.0099804
-7.14794e-06
-0.00997976
-0.00997943
1.64166e-13
-5.34138e-05
-0.0100087
-5.94166e-05
-0.0100073
-6.49463e-05
-0.0100061
-6.98332e-05
-0.0100047
-7.39382e-05
-0.0100033
-7.70878e-05
-0.0100019
-7.91516e-05
-0.0100006
-7.99957e-05
-0.00999926
-7.95184e-05
-0.00999801
-7.7655e-05
-0.00999683
-7.43921e-05
-0.00999572
-6.9772e-05
-0.00999468
-6.38915e-05
-0.00999371
-5.68886e-05
-0.00999282
-4.89232e-05
-0.00999202
-4.01556e-05
-0.00999133
-3.07343e-05
-0.00999076
-2.0799e-05
-0.00999034
-1.04969e-05
-0.00999006
-0.00998992
3.88393e-14
-2.23754e-05
-0.0100057
-2.46596e-05
-0.0100051
-2.62517e-05
-0.0100045
-2.71162e-05
-0.0100038
-2.73139e-05
-0.0100031
-2.69556e-05
-0.0100023
-2.61225e-05
-0.0100014
-2.49248e-05
-0.0100005
-2.34598e-05
-0.00999948
-2.1812e-05
-0.00999848
-2.00412e-05
-0.00999749
-1.81789e-05
-0.00999654
-1.62299e-05
-0.00999566
-1.41823e-05
-0.00999486
-1.20221e-05
-0.00999418
-9.74736e-06
-0.0099936
-7.37586e-06
-0.00999313
-4.9403e-06
-0.00999277
-2.47448e-06
-0.00999252
-0.0099924
2.12659e-14
-2.61879e-05
-0.0100023
-2.9387e-05
-0.0100019
-3.24106e-05
-0.0100015
-3.51225e-05
-0.0100011
-3.74866e-05
-0.0100007
-3.93603e-05
-0.0100004
-4.06821e-05
-0.0100001
-4.13523e-05
-0.00999979
-4.1309e-05
-0.00999952
-4.05063e-05
-0.00999928
-3.89326e-05
-0.00999906
-3.66088e-05
-0.00999886
-3.35894e-05
-0.00999867
-2.99515e-05
-0.0099985
-2.57846e-05
-0.00999835
-2.11782e-05
-0.00999821
-1.62154e-05
-0.0099981
-1.09749e-05
-0.00999801
-5.53882e-06
-0.00999796
-0.00999794
7.06329e-14
-2.28457e-06
-0.0100013
-2.98552e-06
-0.0100012
-3.29831e-06
-0.0100012
-3.32395e-06
-0.0100011
-3.03377e-06
-0.010001
-2.58446e-06
-0.0100008
-1.99488e-06
-0.0100007
-1.37262e-06
-0.0100004
-7.71316e-07
-0.0100001
-2.52079e-07
-0.0099998
1.53611e-07
-0.00999947
4.31577e-07
-0.00999914
5.90934e-07
-0.00999883
6.52421e-07
-0.00999856
6.41886e-07
-0.00999833
5.80099e-07
-0.00999815
4.79163e-07
-0.009998
3.44303e-07
-0.00999788
1.80817e-07
-0.0099978
-0.00999775
-6.84615e-14
-9.8061e-06
-1.09627e-05
-1.21441e-05
-1.3219e-05
-1.42351e-05
-1.50827e-05
-1.57467e-05
-1.61583e-05
-1.62828e-05
-1.60853e-05
-1.55541e-05
-1.46937e-05
-1.35277e-05
-1.20912e-05
-1.04261e-05
-8.57293e-06
-6.56894e-06
-4.44815e-06
-2.24549e-06
-1.29499e-14
0.00566271
-0.00717833
0.00559256
-0.0071986
0.00550705
-0.0072244
0.00540449
-0.00725291
0.00528306
-0.00728169
0.00514095
-0.007308
0.00497629
-0.00732911
0.00478705
-0.00734237
0.00457111
-0.00734499
0.00432628
-0.00733392
0.00405032
-0.00730555
0.003741
-0.00725562
0.00339617
-0.007179
0.00301401
-0.00707001
0.00259344
-0.00692316
0.00213465
-0.00673567
0.0016397
-0.00651301
0.00111324
-0.00627717
0.000563048
-0.00607114
-0.00594873
7.63194e-12
0.0056873
-0.00709208
0.00559145
-0.00710275
0.00548373
-0.00711667
0.00536201
-0.0071312
0.00522407
-0.00714374
0.0050676
-0.00715152
0.00489038
-0.0071519
0.0046903
-0.00714229
0.00446533
-0.00712002
0.0042135
-0.00708209
0.00393287
-0.00702493
0.00362155
-0.0069443
0.00327782
-0.00683526
0.00290035
-0.00669254
0.00248861
-0.00651142
0.00204321
-0.00629026
0.00156625
-0.00603605
0.00106182
-0.00577274
0.000536589
-0.00554591
-0.00541214
8.53594e-12
0.00574633
-0.00699274
0.00564076
-0.00699718
0.00552581
-0.00700173
0.00539818
-0.00700358
0.00525463
-0.00700019
0.00509237
-0.00698926
0.00490903
-0.00696856
0.00470252
-0.00693579
0.00447092
-0.00688842
0.00421235
-0.00682351
0.00392498
-0.00673756
0.00360713
-0.00662645
0.00325743
-0.00648556
0.00287512
-0.00631023
0.00246037
-0.00609668
0.00201458
-0.00584447
0.00154045
-0.00556192
0.00104221
-0.00527451
0.000525984
-0.00502968
-0.00488616
8.84377e-12
0.00584832
-0.00688798
0.00573769
-0.00688654
0.00561818
-0.00688221
0.00548655
-0.00687194
0.00534002
-0.00685367
0.00517623
-0.00682547
0.00499292
-0.00678526
0.00478784
-0.0067307
0.00455863