/*--------------------------------*- C++ -*----------------------------------*\
  =========                 |
  \\      /  F ield         | OpenFOAM: The Open Source CFD Toolbox
   \\    /   O peration     | Website:  https://openfoam.org
    \\  /    A nd           | Version:  7
     \\/     M anipulation  |
\*---------------------------------------------------------------------------*/
FoamFile
{
    version     2.0;
    format      ascii;
    class       surfaceScalarField;
    location    "20";
    object      phi;
}
// * * * * * * * * * * * * * * * * * * * * * * * * * * * * * * * * * * * * * //

dimensions      [0 3 -1 0 0 0 0];

internalField   nonuniform List<scalar> 
415
(
-0.000724306
0.000456046
-0.000506203
-0.000687254
0.000338309
-0.00037536
-0.000629814
0.000522358
-0.000579797
-0.000596619
0.000304191
-0.000337387
-0.000534789
0.000563878
-0.000625707
-0.000501031
0.00031237
-0.000346129
-0.000409123
0.000840517
-0.000932424
-0.000369207
0.000377751
-0.000417666
0.000943794
-0.00105913
-0.000723291
0.000405742
-0.000686083
0.000301101
-0.000628475
0.00046475
-0.000595103
0.000270818
-0.000533044
0.000501818
-0.000499007
0.000278334
-0.000406683
0.000748192
-0.000366174
0.000337242
0.000831356
-0.000722385
0.000355308
-0.000685041
0.000263757
-0.00062728
0.000406989
-0.000593756
0.000237294
-0.000531486
0.000439549
-0.000497209
0.000244057
-0.000404507
0.00065549
-0.000363479
0.000296215
0.000721521
-0.000721591
0.000304759
-0.000684128
0.000226294
-0.000626233
0.000349094
-0.000592576
0.000203638
-0.000530122
0.000377094
-0.000495636
0.00020957
-0.000402602
0.000562456
-0.000361121
0.000254733
0.000613997
-0.000720908
0.000254112
-0.000683344
0.00018873
-0.000625334
0.000291084
-0.000591564
0.000169868
-0.000528953
0.000314483
-0.000494287
0.000174905
-0.000400971
0.000469139
-0.000359101
0.000212864
0.000508481
-0.000720339
0.000203384
-0.000682691
0.000151081
-0.000624586
0.000232979
-0.000590722
0.000136004
-0.000527979
0.00025174
-0.000493167
0.000140092
-0.000399615
0.000375588
-0.000357423
0.000170672
0.000404664
-0.000719884
0.000152592
-0.000682169
0.000113367
-0.000623988
0.000174798
-0.00059005
0.000102065
-0.000527203
0.000188893
-0.000492275
0.000105164
-0.000398536
0.000281849
-0.000356088
0.000128224
0.000302229
-0.000719543
0.000101753
-0.000681779
7.56029e-05
-0.000623543
0.000116562
-0.000589549
6.80723e-05
-0.000526626
0.00012597
-0.000491613
7.01506e-05
-0.000397736
0.000187973
-0.000355097
8.55848e-05
0.000200857
-0.000719316
5.08836e-05
-0.000681521
3.7808e-05
-0.000623249
5.82891e-05
-0.000589221
3.40441e-05
-0.000526247
6.29966e-05
-0.000491182
3.50853e-05
-0.000397216
9.40069e-05
-0.000354452
4.28205e-05
0.000100224
-0.000719205
-0.000681397
-0.000623108
-0.000589064
-0.000526068
-0.000490983
-0.000396975
-0.000354154
-0.000710888
0.000932798
-0.000979044
-0.000677351
0.000688023
-0.000721561
-0.000624486
0.00106794
-0.00112081
-0.000594967
0.000615448
-0.000644967
-0.000538835
0.00114816
-0.00120429
-0.000510026
0.000624776
-0.000653586
-0.000427715
0.00170459
-0.0017869
-0.00039767
0.000730732
-0.000760777
0.00224164
-0.00239549
-0.000709048
0.000886289
-0.000675229
0.000654204
-0.000622056
0.00101477
-0.000592213
0.000585606
-0.00053565
0.00109159
-0.000506338
0.000595464
-0.000423239
0.00162149
-0.000392102
0.000699596
0.00209273
-0.000707288
0.000839527
-0.000673207
0.000620124
-0.000619731
0.000961291
-0.00058959
0.000555464
-0.000532604
0.00103461
-0.000502825
0.000565685
-0.000418961
0.00153763
-0.000386792
0.000667427
0.00194862
-0.000705613
0.000792524
-0.000671284
0.000585795
-0.00061752
0.000907527
-0.000587095
0.000525039
-0.000529708
0.00097722
-0.000499484
0.000535461
-0.000414892
0.00145304
-0.000381742
0.000634277
0.00180915
-0.000704025
0.000745294
-0.00066946
0.000551231
-0.000615425
0.000853491
-0.00058473
0.000494345
-0.000526964
0.000919453
-0.000496318
0.000504815
-0.000411038
0.00136775
-0.000376956
0.000600195
0.00167414
-0.000702525
0.000697849
-0.000667739
0.000516445
-0.000613447
0.000799199
-0.000582499
0.000463397
-0.000524375
0.000861328
-0.000493332
0.000473773
-0.000407402
0.00128182
-0.000372441
0.000565234
0.00154341
-0.000701116
0.000650204
-0.000666122
0.000481451
-0.00061159
0.000744667
-0.000580404
0.000432211
-0.000521944
0.000802868
-0.000490529
0.000442358
-0.000403989
0.00119528
-0.000368201
0.000529446
0.00141676
-0.000699798
0.000602372
-0.000664611
0.000446263
-0.000609855
0.000689911
-0.000578447
0.000400804
-0.000519674
0.000744095
-0.000487912
0.000410596
-0.000400804
0.00110818
-0.000364243
0.000492885
0.00129398
-0.000698574
0.000554366
-0.000663207
0.000410896
-0.000608243
0.000634947
-0.000576631
0.000369192
-0.000517568
0.000685032
-0.000485485
0.000378512
-0.000397849
0.00102054
-0.000360571
0.000455608
0.00117484
-0.000697446
-0.00066191
-0.00060676
-0.000574955
-0.00051563
-0.000483247
-0.000395131
-0.00035719
0.00319476
-0.000634095
0.000843169
-0.000586746
0.00131341
-0.000560978
0.000751262
-0.000511265
0.00140779
-0.000486773
0.000756615
-0.000414709
0.00208372
-0.000391707
0.00086357
0.00302493
-0.000661953
0.00110594
-0.000631947
0.000813163
-0.000584266
0.00126573
-0.000558166
0.000725162
-0.000507972
0.00135759
-0.00048296
0.000731603
-0.000410011
0.00201078
-0.00038591
0.000839469
0.00286016
-0.000660141
0.00106389
-0.000629866
0.000782888
-0.000581863
0.00121773
-0.000555441
0.00069874
-0.000504782
0.00130693
-0.000479263
0.000706085
-0.000405456
0.00193697
-0.000380275
0.000814287
0.00270038
-0.000658388
0.00102158
-0.000627852
0.000752353
-0.000579538
0.00116941
-0.000552805
0.000672007
-0.000501696
0.00125582
-0.000475687
0.000680077
-0.000401049
0.00186233
-0.000374812
0.00078805
0.00254552
-0.000656697
-0.000625906
-0.000577298
-0.000550257
-0.000498723
-0.000472232
-0.000396801
-0.000369528
)
;

boundaryField
{
    inlet
    {
        type            calculated;
        value           nonuniform 0();
    }
    outlet
    {
        type            calculated;
        value           nonuniform List<scalar> 
24
(
0.000774463
0.000773595
0.00077282
0.00077214
0.000771555
0.000771067
0.000770676
0.000770382
0.000770186
0.000770088
0.000757134
0.000755557
0.00075405
0.000752616
0.000751255
0.00074997
0.000748761
0.000747631
0.000746579
0.000745609
0.000703745
0.000702192
0.000700689
0.000699238
)
;
    }
    polygon
    {
        type            calculated;
        value           nonuniform 0();
    }
    top
    {
        type            symmetryPlane;
        value           uniform 0;
    }
    bottom
    {
        type            symmetryPlane;
        value           uniform 0;
    }
    outside
    {
        type            calculated;
        value           nonuniform 0();
    }
    procBoundary11to7
    {
        type            processor;
        value           nonuniform List<scalar> 9(7.3579e-10 -3.80364e-10 1.37367e-10 7.83016e-10 1.0956e-10 3.12871e-10 -8.69592e-10 -3.74608e-10 2.08377e-10);
    }
    procBoundary11to10
    {
        type            processor;
        value           nonuniform List<scalar> 
26
(
-0.000253876
-0.000253736
-0.000253644
-0.000253597
-0.000253585
-0.000253606
-0.000253654
-0.000253725
-0.000253819
-0.00025393
-0.000243817
-0.000243193
-0.000242681
-0.000242268
-0.000241947
-0.00024171
-0.000241551
-0.000241462
-0.000241438
-0.000241473
-0.000222701
-0.000221872
-0.000221139
-0.000220499
-0.000219953
-0.000219501
)
;
    }
    procBoundary11to15
    {
        type            processor;
        value           nonuniform List<scalar> 
11
(
-0.00336972
-0.000872897
-0.00136076
-0.00077703
-0.0014575
-0.000781107
-0.00215579
0.000397661
-0.000886571
0.000663823
-0.00114773
)
;
    }
}


// ************************************************************************* //
