/*--------------------------------*- C++ -*----------------------------------*\
  =========                 |
  \\      /  F ield         | OpenFOAM: The Open Source CFD Toolbox
   \\    /   O peration     | Website:  https://openfoam.org
    \\  /    A nd           | Version:  7
     \\/     M anipulation  |
\*---------------------------------------------------------------------------*/
FoamFile
{
    version     2.0;
    format      ascii;
    class       volVectorField;
    location    "20";
    object      U;
}
// * * * * * * * * * * * * * * * * * * * * * * * * * * * * * * * * * * * * * //

dimensions      [0 1 -1 0 0 0 0];

internalField   nonuniform List<vector> 
225
(
(1.04941 -0.00020073 -1.72827e-18)
(0.949016 0.00056964 -7.24478e-18)
(1.05052 0.000832344 -8.04688e-18)
(0.941851 0.00172444 -4.25404e-18)
(1.04921 0.00110104 -3.99578e-18)
(0.93164 0.00906913 -2.39084e-18)
(1.02454 0.0068011 -1.3719e-17)
(0.898624 0.0469527 -2.51501e-18)
(0.89216 0.0531849 -9.68767e-18)
(1.04965 -0.000189488 -1.37406e-18)
(0.94862 0.000563163 -7.0175e-18)
(1.05098 0.000881975 -7.5324e-18)
(0.94118 0.00173445 -5.58718e-18)
(1.05008 0.00118989 -5.13719e-18)
(0.930458 0.00925441 -3.26577e-18)
(1.02625 0.00717392 -1.3168e-17)
(0.89648 0.0480494 -2.81483e-18)
(0.897825 0.0555624 -9.83288e-18)
(1.04988 -0.00017715 -1.16615e-18)
(0.948226 0.000555092 -6.9024e-18)
(1.05145 0.00093345 -5.99565e-18)
(0.94051 0.00174148 -7.00111e-18)
(1.05096 0.00128242 -6.3413e-18)
(0.929267 0.00943221 -4.30918e-18)
(1.028 0.00755295 -1.31786e-17)
(0.894308 0.0491069 -3.09631e-18)
(0.903691 0.0579198 -9.76328e-18)
(1.05012 -0.000163801 -2.05544e-18)
(0.947835 0.000545586 -6.00993e-18)
(1.05192 0.000986631 -4.74335e-18)
(0.939841 0.00174615 -7.64853e-18)
(1.05184 0.00137851 -7.73726e-18)
(0.928071 0.00960604 -5.58919e-18)
(1.02978 0.00794006 -1.34638e-17)
(0.892113 0.0501495 -3.52493e-18)
(0.909771 0.0602616 -6.51601e-18)
(1.05034 -0.00014942 -2.94832e-18)
(0.947449 0.000534579 -4.33217e-18)
(1.05238 0.0010416 -3.58315e-18)
(0.939176 0.00174819 -7.47646e-18)
(1.05273 0.00147844 -9.28396e-18)
(0.926873 0.00977496 -5.87371e-18)
(1.03159 0.00833698 -1.3968e-17)
(0.889902 0.0511729 -3.87268e-18)
(0.916082 0.0626106 -2.80711e-18)
(1.05057 -0.000134006 -3.00415e-18)
(0.947068 0.000522041 -3.62821e-18)
(1.05285 0.00109834 -2.44692e-18)
(0.938517 0.00174746 -7.55689e-18)
(1.05362 0.0015822 -9.75796e-18)
(0.925676 0.00993797 -5.20285e-18)
(1.03342 0.00874313 -1.3204e-17)
(0.887681 0.0521699 -4.31256e-18)
(0.92264 0.0649604 4.52596e-19)
(1.05079 -0.000117562 -3.15182e-18)
(0.946694 0.000507925 -3.15275e-18)
(1.05331 0.00115691 -1.33445e-18)
(0.937864 0.00174378 -7.89373e-18)
(1.05451 0.0016898 -1.04555e-17)
(0.924484 0.0100941 -4.62376e-18)
(1.03529 0.00915769 -1.26553e-17)
(0.885459 0.0531338 -4.86397e-18)
(0.929466 0.0673039 4.3328e-18)
(1.051 -0.000100077 -3.47072e-18)
(0.946327 0.000492117 -2.74625e-18)
(1.05376 0.00121768 -3.35449e-19)
(0.93722 0.00173714 -8.58106e-18)
(1.0554 0.00180234 -1.14937e-17)
(0.9233 0.0102453 -4.27815e-18)
(1.03717 0.00958543 -1.24667e-17)
(0.883247 0.0540783 -5.32275e-18)
(0.93658 0.0697117 8.26318e-18)
(1.05121 -8.16324e-05 -3.84754e-18)
(0.945968 0.000474887 -3.29362e-18)
(1.05421 0.00128067 6.4171e-19)
(0.936587 0.00172907 -8.43673e-18)
(1.05629 0.00192114 -1.14951e-17)
(0.922127 0.0104017 -3.94068e-18)
(1.03908 0.0100379 -1.09098e-17)
(0.881055 0.055067 -5.91084e-18)
(0.944007 0.0722996 1.29371e-17)
(1.05141 -6.26359e-05 -4.39607e-18)
(0.945618 0.000457839 -3.81409e-18)
(1.05465 0.00134225 1.56484e-18)
(0.935966 0.00172204 -7.54385e-18)
(1.05717 0.00203816 -1.03257e-17)
(0.920971 0.0105598 -2.60085e-18)
(1.04102 0.0104866 -7.63712e-18)
(0.878899 0.0560394 -6.58745e-18)
(0.951774 0.0745649 1.4177e-17)
(1.04806 -0.000242844 9.84737e-19)
(0.951242 0.000577774 -1.22285e-17)
(1.04795 0.000591767 -1.076e-17)
(0.9455 0.00161625 1.79629e-18)
(1.04463 0.000709016 9.47542e-19)
(0.937775 0.00795419 -2.39861e-19)
(1.01601 0.00514697 -7.16705e-18)
(0.909159 0.040747 -1.92419e-18)
(0.865775 0.0431454 2.0264e-18)
(1.04833 -0.000236975 5.58945e-19)
(0.950795 0.000579676 -1.13843e-17)
(1.04846 0.000636175 -1.03264e-17)
(0.944775 0.0016439 1.38379e-18)
(1.04553 0.000779467 -4.94132e-21)
(0.936576 0.0081893 4.4994e-19)
(1.01765 0.00545783 -8.62399e-18)
(0.907138 0.0420353 -2.02169e-18)
(0.870743 0.0451198 -7.67506e-19)
(1.04861 -0.000229757 1.25999e-19)
(0.950345 0.000579731 -9.81065e-18)
(1.04898 0.000682754 -9.96633e-18)
(0.944043 0.00166846 -1.25059e-19)
(1.04644 0.000853952 -9.73712e-19)
(0.935356 0.00841864 -1.52278e-19)
(1.01933 0.00577748 -1.02049e-17)
(0.905065 0.0433002 -2.02118e-18)
(0.875873 0.0470941 -3.68227e-18)
(1.04888 -0.000221164 -3.46735e-19)
(0.949893 0.000577838 -8.60203e-18)
(1.0495 0.00073156 -9.8827e-18)
(0.943303 0.00168967 -1.53593e-18)
(1.04737 0.00093225 -1.9536e-18)
(0.934116 0.00864103 -7.81942e-19)
(1.02105 0.00610324 -1.22078e-17)
(0.902945 0.0445341 -2.28427e-18)
(0.881168 0.0490339 -6.49498e-18)
(1.04916 -0.00021122 -1.0341e-18)
(0.949441 0.000574125 -7.75057e-18)
(1.05002 0.000782509 -8.78729e-18)
(0.942559 0.00170792 -2.92104e-18)
(1.04831 0.00101482 -2.94585e-18)
(0.932859 0.00885756 -1.53077e-18)
(1.02281 0.00643836 -1.26465e-17)
(0.900778 0.0457404 -2.2395e-18)
(0.886628 0.050961 -9.8767e-18)
(1.05363 0.000147799 -6.12554e-19)
(0.941793 0.000305998 -4.11999e-19)
(1.05949 0.00191509 -3.13777e-19)
(0.929338 0.0016724 -7.73159e-19)
(1.06653 0.00304499 -1.87633e-18)
(0.909192 0.0117804 -1.00175e-18)
(1.0606 0.0140739 3.73429e-18)
(0.85854 0.0620229 -2.86793e-17)
(1.02714 0.0810531 -1.58035e-18)
(1.05205 0.000208675 2.58727e-19)
(0.942784 0.00104148 8.76801e-20)
(1.05921 0.0015913 -6.32046e-19)
(0.929626 0.00312139 8.96557e-20)
(1.06839 0.00287776 3.43485e-19)
(0.910141 0.015953 -2.41172e-18)
(1.06538 0.0161084 2.19161e-18)
(0.874089 0.0692398 -2.21946e-18)
(1.02691 0.0728593 -3.49508e-18)
(1.04184 0.000651736 5.0313e-20)
(0.955555 0.000699811 1.12309e-19)
(1.04632 0.00242338 4.4262e-19)
(0.946611 0.0029584 -1.01171e-18)
(1.05172 0.00401663 5.8569e-18)
(0.934832 0.018399 -3.03751e-17)
(1.0449 0.0175231 2.70708e-17)
(0.918089 0.0798655 3.00981e-17)
(1.02429 0.0580908 5.57427e-18)
(1.02603 8.05464e-05 1.95466e-19)
(0.975798 0.00192572 2.11942e-20)
(1.02516 0.00135111 3.8495e-19)
(0.97376 0.00488895 -1.1978e-18)
(1.0232 0.00240374 6.89127e-18)
(0.973535 0.0224908 -3.19208e-17)
(1.00792 0.0157864 2.49779e-17)
(0.97895 0.0835365 3.23337e-17)
(0.986598 0.0497015 5.17852e-18)
(1.00948 -0.000828446 -1.64731e-19)
(0.996163 0.00330609 1.08131e-19)
(1.00403 -2.3796e-05 -1.78045e-19)
(0.999573 0.00715048 -1.24608e-18)
(0.996869 -3.27041e-05 6.06639e-18)
(1.007 0.0275463 -3.0755e-17)
(0.98024 0.0111568 2.22827e-17)
(1.02235 0.0901663 2.9711e-17)
(0.979914 0.0351527 5.14189e-18)
(0.996649 -0.00241398 -2.17089e-19)
(1.01108 0.00558889 -2.65129e-19)
(0.988929 -0.00238991 3.56256e-19)
(1.01731 0.010098 -1.25872e-18)
(0.980433 -0.00341032 5.78382e-18)
(1.02825 0.0314851 -3.02633e-17)
(0.969127 0.00687751 2.05389e-17)
(1.04667 0.0885288 2.78104e-17)
(0.990174 0.0305487 3.77487e-18)
(0.98916 -0.00391672 -7.16846e-19)
(1.01887 0.00764803 -1.89755e-20)
(0.98166 -0.00449735 4.14207e-20)
(1.02563 0.0127164 -1.36951e-18)
(0.975065 -0.00652214 5.0102e-18)
(1.03705 0.0344395 -2.78959e-17)
(0.972076 0.00287361 1.71362e-17)
(1.05585 0.0859109 2.47115e-17)
(1.00821 0.0250955 4.66201e-18)
(0.986235 -0.00560187 -1.28155e-19)
(1.02096 0.0097569 -1.47254e-19)
(0.980367 -0.00694074 -3.17744e-19)
(1.02714 0.0148557 -7.32368e-19)
(0.976989 -0.00994646 1.99173e-18)
(1.03815 0.0353319 -4.37121e-18)
(0.98241 -0.00133704 3.83657e-18)
(1.05675 0.0771753 -1.26571e-17)
(1.02725 0.021338 -9.82689e-19)
(0.986025 -0.00659022 -1.08047e-19)
(1.0199 0.0109902 -2.18171e-19)
(0.982038 -0.00832706 6.62421e-19)
(1.02509 0.0161715 -1.17685e-18)
(0.981762 -0.0120078 5.30866e-18)
(1.03521 0.0358394 -2.56172e-17)
(0.992836 -0.00355591 1.44749e-17)
(1.05498 0.072862 1.806e-17)
(1.04091 0.0194809 3.79851e-18)
(0.986198 -0.00820627 -6.0071e-21)
(1.0185 0.0127927 -2.02089e-19)
(0.983816 -0.0109196 3.74511e-19)
(1.02303 0.0174023 -1.12615e-18)
(0.985998 -0.0158489 5.30231e-18)
(1.03263 0.0335274 -2.68174e-17)
(1.00231 -0.00819102 1.25127e-17)
(1.05253 0.0587858 1.90364e-17)
(1.05126 0.0134942 4.76513e-18)
)
;

boundaryField
{
    inlet
    {
        type            uniformFixedValue;
        uniformValue    constant (1 0 0);
        value           uniform (1 0 0);
    }
    outlet
    {
        type            pressureInletOutletVelocity;
        value           nonuniform 0();
    }
    polygon
    {
        type            fixedValue;
        value           nonuniform 0();
    }
    top
    {
        type            symmetryPlane;
    }
    bottom
    {
        type            symmetryPlane;
    }
    outside
    {
        type            zeroGradient;
    }
    procBoundary12to8
    {
        type            processor;
        value           nonuniform List<vector> 9((1.04779 -0.000247383 1.44647e-18) (0.951685 0.000574084 -1.35447e-17) (1.04745 0.000549482 -1.15594e-17) (0.946214 0.00158564 1.23269e-18) (1.04375 0.000642613 1.7397e-18) (0.938949 0.0077137 -9.89239e-19) (1.01441 0.00484554 -6.13151e-18) (0.911128 0.0394373 -1.83491e-18) (0.860971 0.041179 6.62652e-19));
    }
    procBoundary12to9
    {
        type            processor;
        value           nonuniform List<vector> 
20
(
(0.798584 0.384725 -2.68264e-18)
(0.800355 0.393727 -3.30067e-18)
(0.802198 0.402428 -4.02485e-18)
(0.804108 0.4112 -5.451e-18)
(0.806079 0.420007 -4.9021e-18)
(0.808101 0.42879 -4.34136e-18)
(0.810155 0.437545 -3.73322e-18)
(0.812217 0.446291 -3.19663e-18)
(0.814241 0.455078 -2.55397e-18)
(0.816156 0.463845 -1.60749e-18)
(0.789372 0.329761 -3.88274e-18)
(0.791252 0.340962 -4.49696e-18)
(0.793152 0.352168 -2.15238e-18)
(0.795042 0.363463 -2.32843e-18)
(0.796876 0.374673 -2.4135e-18)
(0.830467 0.536459 -6.57214e-18)
(0.92696 0.373004 1.12645e-17)
(1.00778 0.381719 -8.73346e-19)
(1.05999 0.289605 9.86216e-18)
(1.09276 0.254718 6.80653e-18)
)
;
    }
    procBoundary12to13
    {
        type            processor;
        value           nonuniform List<vector> 5((1.09685 0.20041 1.18814e-17) (1.10079 0.164963 2.74519e-18) (1.09677 0.132366 -4.62251e-18) (1.09546 0.112229 -3.75931e-19) (1.09289 0.0830776 -1.34741e-18));
    }
}


// ************************************************************************* //
