/*--------------------------------*- C++ -*----------------------------------*\
  =========                 |
  \\      /  F ield         | OpenFOAM: The Open Source CFD Toolbox
   \\    /   O peration     | Website:  https://openfoam.org
    \\  /    A nd           | Version:  10
     \\/     M anipulation  |
\*---------------------------------------------------------------------------*/
FoamFile
{
    format      ascii;
    class       volScalarField;
    location    "20";
    object      p;
}
// * * * * * * * * * * * * * * * * * * * * * * * * * * * * * * * * * * * * * //

dimensions      [0 2 -2 0 0 0 0];

internalField   nonuniform List<scalar> 
1200
(
0.00122218
6.93111e-05
-0.00154404
-0.0106322
-0.0242885
-0.0505123
-0.112503
-0.181955
-0.277835
-0.248232
0.00124928
0.000115643
-0.00146783
-0.0104937
-0.0240862
-0.050051
-0.111833
-0.180993
-0.277354
-0.248108
0.00127288
0.000158394
-0.00139638
-0.010359
-0.0238889
-0.0496165
-0.11121
-0.180115
-0.276788
-0.248087
0.00129371
0.000196348
-0.00133329
-0.0102386
-0.0237118
-0.049213
-0.110606
-0.179209
-0.276113
-0.248149
0.00131187
0.000229562
-0.0012768
-0.0101279
-0.0235441
-0.0488181
-0.109999
-0.178291
-0.275491
-0.248219
0.00132725
0.000257999
-0.00122648
-0.0100264
-0.0233853
-0.0484361
-0.109399
-0.177379
-0.274887
-0.248306
0.00133977
0.000281527
-0.0011825
-0.0099349
-0.0232363
-0.0480682
-0.108812
-0.176493
-0.274319
-0.248405
0.00134943
0.000300098
-0.00114471
-0.00985363
-0.0230976
-0.0477151
-0.108231
-0.175574
-0.27378
-0.248521
0.00135615
0.000313483
-0.00111254
-0.00978101
-0.0229673
-0.0473907
-0.107713
-0.174844
-0.273366
-0.248615
0.00135961
0.000320302
-0.00109027
-0.00972231
-0.0228398
-0.047011
-0.107037
-0.173718
-0.272766
-0.248808
-0.22204
-0.223078
-0.230374
-0.240571
-0.257663
-0.283952
-0.321833
-0.393512
-0.465298
-0.939111
-0.223935
-0.225186
-0.232312
-0.242369
-0.259144
-0.284978
-0.32127
-0.395187
-0.460488
-0.796782
-0.225672
-0.227206
-0.234415
-0.244688
-0.261854
-0.288616
-0.325679
-0.402098
-0.479985
-0.68403
-0.227253
-0.229079
-0.23641
-0.246963
-0.264548
-0.292287
-0.330301
-0.406561
-0.493872
-0.640536
-0.228679
-0.230755
-0.238135
-0.248847
-0.266568
-0.294759
-0.333074
-0.40756
-0.499169
-0.611544
-0.229955
-0.232228
-0.23958
-0.250319
-0.267928
-0.296128
-0.3343
-0.406708
-0.501358
-0.590631
-0.23109
-0.233506
-0.240777
-0.25144
-0.268768
-0.296662
-0.334412
-0.404362
-0.502038
-0.578979
-0.232096
-0.234607
-0.241757
-0.25226
-0.269178
-0.296501
-0.333631
-0.401145
-0.501303
-0.573882
-0.232974
-0.235528
-0.242516
-0.252767
-0.269137
-0.295581
-0.331573
-0.396279
-0.49668
-0.57238
-0.233759
-0.236319
-0.243131
-0.253086
-0.268863
-0.294294
-0.329105
-0.39238
-0.493654
-0.577866
-0.189647
-0.185547
-0.193076
-0.198372
-0.212892
-0.233363
-0.253756
-0.288467
-0.311741
-0.306377
-0.19686
-0.193854
-0.202327
-0.209254
-0.225775
-0.248967
-0.273398
-0.312341
-0.346432
-0.34089
-0.201486
-0.19908
-0.207536
-0.215134
-0.231839
-0.255967
-0.283295
-0.326314
-0.374366
-0.379944
-0.20443
-0.202499
-0.210749
-0.21884
-0.235656
-0.260666
-0.291118
-0.338876
-0.400314
-0.423539
-0.207051
-0.205639
-0.213809
-0.222533
-0.239782
-0.265907
-0.299538
-0.352251
-0.425824
-0.472037
-0.20981
-0.208941
-0.217118
-0.226475
-0.244219
-0.271333
-0.307684
-0.365114
-0.449271
-0.525828
-0.212607
-0.21225
-0.220408
-0.230266
-0.248334
-0.276079
-0.314484
-0.376297
-0.46955
-0.588738
-0.215268
-0.215363
-0.22343
-0.233631
-0.251815
-0.279851
-0.319666
-0.385465
-0.483667
-0.658219
-0.217718
-0.218207
-0.226112
-0.236514
-0.254631
-0.282613
-0.3231
-0.392193
-0.492175
-0.748423
-0.219972
-0.22079
-0.228461
-0.238924
-0.256771
-0.284356
-0.324609
-0.395781
-0.48394
-0.835595
-0.018303
-0.02336
-0.0134378
-0.0235311
-0.00331158
-0.0187194
0.0316129
0.00652188
0.183384
0.194408
-0.018313
-0.0233355
-0.0134651
-0.023442
-0.00333201
-0.0183287
0.0317262
0.00853827
0.185353
0.189998
-0.0183211
-0.0233238
-0.0134901
-0.0233917
-0.00338047
-0.0181162
0.0315958
0.0094501
0.184882
0.182745
-0.0183311
-0.0233114
-0.0135259
-0.0233339
-0.00345689
-0.0178752
0.0313655
0.0104084
0.183847
0.172072
-0.0183421
-0.0233025
-0.0135673
-0.0232834
-0.00355991
-0.0176761
0.0309837
0.0110129
0.181489
0.15795
-0.0183541
-0.0232962
-0.0136159
-0.0232373
-0.00368942
-0.0175037
0.0304688
0.0113729
0.17801
0.140447
-0.0183673
-0.0232926
-0.0136711
-0.0231965
-0.00384483
-0.0173627
0.02982
0.0114687
0.173327
0.119561
-0.0183815
-0.0232919
-0.013733
-0.0231612
-0.00402667
-0.0172567
0.0290368
0.0112989
0.167333
0.0952512
-0.018396
-0.0232965
-0.0137979
-0.023136
-0.00422549
-0.0171896
0.0281389
0.0108792
0.159996
0.0674468
-0.0184156
-0.0232933
-0.0138815
-0.0230922
-0.00447548
-0.0170903
0.0271174
0.0104247
0.152669
0.0363477
-0.0184157
-0.0232933
-0.0138815
-0.0230922
-0.00447549
-0.0170903
0.0271174
0.0104247
0.152669
0.0363477
-0.018396
-0.0232965
-0.0137979
-0.023136
-0.00422551
-0.0171896
0.0281389
0.0108792
0.159996
0.0674468
-0.0183815
-0.0232919
-0.013733
-0.0231613
-0.00402668
-0.0172567
0.0290367
0.0112989
0.167333
0.0952512
-0.0183673
-0.0232926
-0.0136711
-0.0231965
-0.00384484
-0.0173627
0.02982
0.0114687
0.173327
0.119561
-0.0183541
-0.0232962
-0.0136159
-0.0232374
-0.00368943
-0.0175037
0.0304688
0.0113729
0.17801
0.140447
-0.0183421
-0.0233025
-0.0135674
-0.0232834
-0.00355992
-0.0176761
0.0309837
0.0110129
0.181489
0.15795
-0.0183311
-0.0233114
-0.0135259
-0.0233339
-0.00345689
-0.0178752
0.0313655
0.0104084
0.183847
0.172072
-0.0183211
-0.0233238
-0.0134901
-0.0233918
-0.00338048
-0.0181162
0.0315958
0.0094501
0.184882
0.182745
-0.018313
-0.0233355
-0.0134651
-0.023442
-0.00333201
-0.0183287
0.0317262
0.00853827
0.185353
0.189998
-0.018303
-0.02336
-0.0134378
-0.0235311
-0.00331158
-0.0187195
0.0316129
0.00652188
0.183384
0.194408
-0.219972
-0.22079
-0.228461
-0.238924
-0.256771
-0.284356
-0.324609
-0.395781
-0.48394
-0.835595
-0.217718
-0.218207
-0.226112
-0.236514
-0.254631
-0.282613
-0.3231
-0.392193
-0.492175
-0.748423
-0.215268
-0.215363
-0.22343
-0.233631
-0.251815
-0.279851
-0.319666
-0.385465
-0.483667
-0.658219
-0.212607
-0.21225
-0.220408
-0.230266
-0.248334
-0.276079
-0.314484
-0.376297
-0.46955
-0.588738
-0.20981
-0.208941
-0.217118
-0.226475
-0.244219
-0.271333
-0.307684
-0.365114
-0.449271
-0.525828
-0.207051
-0.205639
-0.213809
-0.222533
-0.239782
-0.265907
-0.299538
-0.352251
-0.425824
-0.472037
-0.20443
-0.202499
-0.210749
-0.21884
-0.235656
-0.260666
-0.291118
-0.338876
-0.400314
-0.423539
-0.201486
-0.19908
-0.207536
-0.215134
-0.231839
-0.255967
-0.283295
-0.326314
-0.374366
-0.379944
-0.19686
-0.193854
-0.202327
-0.209254
-0.225775
-0.248967
-0.273398
-0.312341
-0.346432
-0.34089
-0.189647
-0.185547
-0.193076
-0.198372
-0.212892
-0.233363
-0.253756
-0.288467
-0.311741
-0.306377
-0.233759
-0.236319
-0.243131
-0.253086
-0.268863
-0.294294
-0.329105
-0.39238
-0.493654
-0.577866
-0.232974
-0.235528
-0.242516
-0.252767
-0.269137
-0.295581
-0.331573
-0.396279
-0.49668
-0.57238
-0.232096
-0.234607
-0.241757
-0.25226
-0.269178
-0.296501
-0.333631
-0.401145
-0.501303
-0.573882
-0.23109
-0.233506
-0.240777
-0.25144
-0.268768
-0.296662
-0.334412
-0.404362
-0.502038
-0.578979
-0.229955
-0.232228
-0.23958
-0.250319
-0.267928
-0.296128
-0.3343
-0.406708
-0.501358
-0.590631
-0.228679
-0.230755
-0.238135
-0.248847
-0.266568
-0.294759
-0.333074
-0.40756
-0.499169
-0.611544
-0.227253
-0.229079
-0.23641
-0.246963
-0.264548
-0.292287
-0.330301
-0.406561
-0.493872
-0.640536
-0.225672
-0.227206
-0.234415
-0.244688
-0.261854
-0.288616
-0.325679
-0.402098
-0.479985
-0.68403
-0.223935
-0.225186
-0.232312
-0.242369
-0.259144
-0.284978
-0.32127
-0.395187
-0.460488
-0.796782
-0.22204
-0.223078
-0.230374
-0.240571
-0.257663
-0.283952
-0.321833
-0.393512
-0.465298
-0.939111
0.00135961
0.000320301
-0.00109026
-0.00972231
-0.0228398
-0.047011
-0.107037
-0.173718
-0.272766
-0.248808
0.00135615
0.000313482
-0.00111254
-0.00978102
-0.0229673
-0.0473907
-0.107713
-0.174844
-0.273366
-0.248615
0.00134943
0.000300098
-0.00114471
-0.00985364
-0.0230976
-0.0477151
-0.108231
-0.175574
-0.27378
-0.248521
0.00133977
0.000281526
-0.0011825
-0.00993491
-0.0232363
-0.0480682
-0.108812
-0.176493
-0.274319
-0.248405
0.00132725
0.000257999
-0.00122648
-0.0100264
-0.0233854
-0.0484361
-0.109399
-0.177379
-0.274887
-0.248306
0.00131187
0.000229563
-0.0012768
-0.0101279
-0.0235442
-0.0488182
-0.109999
-0.178291
-0.275491
-0.248219
0.00129371
0.000196349
-0.00133329
-0.0102386
-0.0237118
-0.049213
-0.110606
-0.179209
-0.276113
-0.248149
0.00127288
0.000158395
-0.00139638
-0.010359
-0.0238889
-0.0496165
-0.11121
-0.180115
-0.276788
-0.248087
0.00124928
0.000115644
-0.00146783
-0.0104937
-0.0240862
-0.050051
-0.111833
-0.180993
-0.277354
-0.248108
0.00122218
6.93135e-05
-0.00154403
-0.0106322
-0.0242885
-0.0505124
-0.112503
-0.181955
-0.277835
-0.248232
-0.0208565
-0.0235295
-0.0209729
-0.0259305
-0.0262382
-0.0344838
-0.045821
-0.0575918
-0.10252
-0.120834
-0.0204142
-0.0237093
-0.0199698
-0.0257476
-0.0236875
-0.0319314
-0.0390145
-0.0499312
-0.0927868
-0.103905
-0.020165
-0.0237297
-0.0193298
-0.0255042
-0.0218776
-0.0306246
-0.0348738
-0.0456203
-0.0850888
-0.0967103
-0.0198276
-0.023759
-0.0184402
-0.0252084
-0.019381
-0.0286482
-0.0275245
-0.0393507
-0.0729252
-0.0843165
-0.0195267
-0.023736
-0.0176028
-0.024862
-0.0168728
-0.0268449
-0.0205511
-0.0333675
-0.0584002
-0.0753037
-0.0192366
-0.0236919
-0.0167524
-0.0244989
-0.0142182
-0.0249608
-0.0118122
-0.0268487
-0.0385429
-0.0658606
-0.0189708
-0.0236293
-0.0159342
-0.0241203
-0.0116412
-0.0229906
-0.00320437
-0.0197274
-0.0150707
-0.0548219
-0.0187565
-0.0235302
-0.0152517
-0.0237503
-0.00919785
-0.0211136
0.00625093
-0.0124006
0.0183601
-0.0585977
-0.0185638
-0.023469
-0.0145491
-0.023466
-0.00698268
-0.0193543
0.0151467
-0.00367788
0.0587008
-0.0217137
-0.0184747
-0.0232834
-0.0142022
-0.0230741
-0.00531715
-0.017614
0.023104
0.0054589
0.104788
-0.0624154
-0.0184746
-0.0232833
-0.0142022
-0.0230741
-0.00531713
-0.017614
0.0231041
0.00545889
0.104788
-0.0624154
-0.0185638
-0.023469
-0.0145491
-0.023466
-0.00698267
-0.0193542
0.0151468
-0.00367788
0.0587008
-0.0217137
-0.0187565
-0.0235302
-0.0152517
-0.0237503
-0.00919784
-0.0211136
0.00625094
-0.0124006
0.0183601
-0.0585977
-0.0189708
-0.0236293
-0.0159342
-0.0241203
-0.0116412
-0.0229906
-0.00320436
-0.0197274
-0.0150706
-0.0548219
-0.0192366
-0.0236919
-0.0167524
-0.0244988
-0.0142182
-0.0249608
-0.0118122
-0.0268487
-0.0385429
-0.0658606
-0.0195266
-0.023736
-0.0176028
-0.024862
-0.0168728
-0.0268449
-0.020551
-0.0333675
-0.0584001
-0.0753037
-0.0198276
-0.023759
-0.0184402
-0.0252084
-0.019381
-0.0286482
-0.0275245
-0.0393507
-0.0729252
-0.0843165
-0.020165
-0.0237297
-0.0193298
-0.0255042
-0.0218776
-0.0306246
-0.0348738
-0.0456203
-0.0850888
-0.0967103
-0.0204142
-0.0237092
-0.0199697
-0.0257476
-0.0236875
-0.0319314
-0.0390145
-0.0499312
-0.0927868
-0.103905
-0.0208564
-0.0235295
-0.0209729
-0.0259305
-0.0262382
-0.0344838
-0.045821
-0.0575918
-0.10252
-0.120834
0.00113508
-6.65646e-05
-0.00174234
-0.0109357
-0.0246155
-0.051128
-0.113207
-0.183296
-0.284129
-0.246797
0.00096666
-0.000350518
-0.00213656
-0.0114699
-0.0251252
-0.0516091
-0.112688
-0.181487
-0.274927
-0.243295
0.000764732
-0.00068001
-0.00263089
-0.0120852
-0.0257922
-0.0522692
-0.111976
-0.178776
-0.277054
-0.25882
0.000550117
-0.00101872
-0.00314791
-0.0126641
-0.0263888
-0.0525914
-0.11019
-0.172828
-0.26574
-0.258867
0.000335735
-0.00134452
-0.00364226
-0.0131599
-0.0268714
-0.052664
-0.108093
-0.167303
-0.260371
-0.25947
0.00012982
-0.00164089
-0.00407632
-0.0135283
-0.0271401
-0.0523111
-0.105155
-0.158839
-0.250153
-0.255912
-6.43067e-05
-0.00190019
-0.00443631
-0.0137703
-0.0272441
-0.0518169
-0.102683
-0.154082
-0.243573
-0.252328
-0.000242852
-0.00211644
-0.00470771
-0.0138498
-0.0270226
-0.0506435
-0.0986566
-0.144116
-0.235302
-0.249082
-0.000406187
-0.00230165
-0.00491229
-0.0138705
-0.0268678
-0.049991
-0.0968491
-0.141234
-0.230675
-0.24633
-0.000607154
-0.00245986
-0.00500537
-0.0135518
-0.0259378
-0.0475935
-0.0908267
-0.129589
-0.222551
-0.244606
-0.000607154
-0.00245986
-0.00500536
-0.0135518
-0.0259378
-0.0475934
-0.0908267
-0.129589
-0.222551
-0.244606
-0.000406187
-0.00230164
-0.00491228
-0.0138705
-0.0268678
-0.049991
-0.0968491
-0.141234
-0.230675
-0.24633
-0.000242852
-0.00211644
-0.00470771
-0.0138498
-0.0270226
-0.0506435
-0.0986566
-0.144116
-0.235302
-0.249082
-6.43072e-05
-0.00190019
-0.0044363
-0.0137703
-0.027244
-0.0518169
-0.102683
-0.154082
-0.243573
-0.252328
0.000129819
-0.00164089
-0.00407632
-0.0135283
-0.0271401
-0.0523111
-0.105155
-0.158839
-0.250153
-0.255912
0.000335734
-0.00134452
-0.00364225
-0.0131599
-0.0268714
-0.052664
-0.108093
-0.167303
-0.260371
-0.25947
0.000550116
-0.00101872
-0.0031479
-0.0126641
-0.0263887
-0.0525914
-0.11019
-0.172828
-0.26574
-0.258867
0.000764731
-0.000680011
-0.00263088
-0.0120851
-0.0257922
-0.0522692
-0.111976
-0.178776
-0.277054
-0.25882
0.000966659
-0.00035052
-0.00213656
-0.0114698
-0.0251252
-0.0516091
-0.112688
-0.181487
-0.274927
-0.243295
0.00113508
-6.65679e-05
-0.00174234
-0.0109357
-0.0246155
-0.0511279
-0.113207
-0.183296
-0.284129
-0.246797
)
;

boundaryField
{
    inlet
    {
        type            zeroGradient;
    }
    outlet
    {
        type            fixedValue;
        value           uniform 0;
    }
    polygon
    {
        type            zeroGradient;
    }
    top
    {
        type            symmetryPlane;
    }
    bottom
    {
        type            symmetryPlane;
    }
    outside
    {
        type            slip;
    }
}


// ************************************************************************* //
