/*--------------------------------*- C++ -*----------------------------------*\
  =========                 |
  \\      /  F ield         | OpenFOAM: The Open Source CFD Toolbox
   \\    /   O peration     | Website:  https://openfoam.org
    \\  /    A nd           | Version:  10
     \\/     M anipulation  |
\*---------------------------------------------------------------------------*/
FoamFile
{
    format      ascii;
    class       surfaceScalarField;
    location    "20";
    object      phi;
}
// * * * * * * * * * * * * * * * * * * * * * * * * * * * * * * * * * * * * * //

dimensions      [0 3 -1 0 0 0 0];

internalField   nonuniform List<scalar> 
2280
(
-0.00257165
0.00162242
-0.00177383
-0.00239541
0.00189339
-0.00206963
-0.00219547
0.00218352
-0.00238346
-0.0019398
0.00278439
-0.00304005
-0.00165322
0.00317227
-0.00345885
-0.0012767
0.00417043
-0.00454695
-0.000872524
0.00439047
-0.00479465
-0.000546097
0.00305144
-0.00337787
-0.000440937
-0.00179787
0.00169271
0.00184164
-0.00228257
-0.00252939
0.00146354
-0.00234406
0.00170806
-0.00213321
0.00197268
-0.00186316
0.00251433
-0.00155895
0.00286807
-0.00115955
0.00377104
-0.000730792
0.00396171
-0.00039564
0.00271629
-0.000374311
-0.0018192
0.00146732
-0.00248983
0.00129758
-0.00229615
0.00151439
-0.00207482
0.00175135
-0.00179155
0.00223105
-0.00147113
0.00254765
-0.00104997
0.00334988
-0.000600216
0.00351195
-0.000260313
0.00237639
-0.00031568
-0.00176383
0.00115164
-0.00245363
0.00112511
-0.00225231
0.00131307
-0.00202132
0.00152036
-0.001726
0.00193573
-0.00139078
0.00221243
-0.000949959
0.00290906
-0.00048196
0.00304396
-0.000140955
0.00203538
-0.0002642
-0.00164059
0.000887444
-0.00242139
0.000946827
-0.00221327
0.00110495
-0.00197362
0.00128071
-0.00166762
0.00162973
-0.00131928
0.0018641
-0.000861173
0.00245094
-0.000377631
0.00256041
-3.79806e-05
0.00169573
-0.000219527
-0.00145904
0.000667918
-0.00239363
0.000763549
-0.00217968
0.000891003
-0.00193258
0.00103361
-0.00161747
0.00131463
-0.00125794
0.00150456
-0.000785152
0.00197816
-0.000288689
0.00206395
4.99782e-05
0.00135707
-0.00018158
-0.00122749
0.000486338
-0.00237083
0.000576189
-0.00215214
0.000672315
-0.00189895
0.000780413
-0.00157649
0.00099217
-0.0012079
0.00113597
-0.000723281
0.00149354
-0.000216456
0.00155713
0.000121785
0.00101883
-0.000150439
-0.000955262
0.000335899
-0.00235341
0.000385754
-0.00213116
0.000450068
-0.0018734
0.000522645
-0.00154546
0.000664233
-0.00117015
0.00076066
-0.000676759
0.00100015
-0.000162133
0.0010425
0.000176052
0.00068064
-0.000126299
-0.000652912
0.000209601
-0.00234169
0.000193316
-0.00211715
0.000225525
-0.00185643
0.000261934
-0.00152501
0.000332813
-0.00114548
0.000381122
-0.0006465
0.000501173
-0.00012661
0.000522611
0.000212442
0.000341588
-0.00010947
-0.000331
0.000100131
-0.0023359
-1.0182e-11
-0.00211037
-1.86062e-11
-0.00184844
-2.63067e-11
-0.00151562
-2.26237e-11
-0.0011345
-1.37139e-11
-0.00063333
1.12041e-11
-0.000110719
1.24803e-11
0.000230869
2.93823e-11
-0.000100131
1.49026e-11
-5.80592e-12
-0.000569944
0.0178013
-0.0176025
-0.000772846
0.0178671
-0.0176642
-0.000980244
0.0179153
-0.0177079
-0.00119568
0.0180463
-0.0178309
-0.00142376
0.0182479
-0.0180198
-0.00167616
0.0185536
-0.0183012
-0.00195973
0.0190821
-0.0187986
-0.00229034
0.0199098
-0.0195792
-0.00230944
0.0203422
-0.0203231
0.0170714
-0.0193808
-0.000569496
0.0179984
-0.000770373
0.018068
-0.000975103
0.01812
-0.00118688
0.0182581
-0.00140891
0.0184699
-0.00165363
0.0187983
-0.00191839
0.0193469
-0.00216701
0.0201584
-0.00204885
0.0202241
0.0150225
-0.000568879
0.0181938
-0.000767713
0.0182668
-0.000969923
0.0183223
-0.00117819
0.0184663
-0.00139489
0.0186866
-0.00163109
0.0190345
-0.00187906
0.0195949
-0.00206149
0.0203409
-0.00183713
0.0199997
0.0131854
-0.000568049
0.0183876
-0.000764816
0.0184636
-0.000964524
0.018522
-0.0011693
0.0186711
-0.00138079
0.0188981
-0.00160774
0.0192614
-0.00183654
0.0198237
-0.00196427
0.0204686
-0.00165993
0.0196953
0.0115255
-0.000567036
0.0185797
-0.000761709
0.0186582
-0.000958821
0.0187191
-0.00115996
0.0188723
-0.00136588
0.019104
-0.00158262
0.0194782
-0.00179018
0.0200312
-0.00186703
0.0205454
-0.00149832
0.0193266
0.0100272
-0.000565849
0.0187702
-0.000758369
0.0188508
-0.000952719
0.0189134
-0.00114988
0.0190694
-0.00134958
0.0193037
-0.00155467
0.0196833
-0.00173948
0.020216
-0.00176615
0.0205721
-0.0013446
0.0189051
0.00868257
-0.000564609
0.0189593
-0.000755003
0.0190411
-0.0009466
0.019105
-0.00113972
0.0192625
-0.00133323
0.0194972
-0.00152649
0.0198765
-0.00168789
0.0203774
-0.00166959
0.0205538
-0.00119803
0.0184335
0.00748453
-0.000563113
0.0191467
-0.00075122
0.0192293
-0.000939792
0.0192936
-0.00112826
0.019451
-0.00131442
0.0196834
-0.00149341
0.0200555
-0.00162656
0.0205106
-0.00156582
0.0204931
-0.00105216
0.0179199
0.00643237
-0.000562017
0.0193329
-0.00074821
0.0194154
-0.000934343
0.0194797
-0.00111911
0.0196358
-0.00129953
0.0198638
-0.00146753
0.0202235
-0.00157722
0.0206203
-0.00147812
0.020394
-0.000914616
0.0173564
0.00551776
-0.00055956
0.0195176
-0.000743066
0.019599
-0.000924935
0.0196616
-0.00110307
0.0198139
-0.00127285
0.0200336
-0.00141964
0.0203703
-0.00148857
0.0206892
-0.00134195
0.0202474
-0.00075858
0.016773
0.00475918
-0.000235968
0.0187914
-0.0189056
-0.000130821
0.0187893
-0.0188944
-2.69337e-05
0.0188256
-0.0189295
6.05728e-05
0.0188771
-0.0189646
0.00013495
0.0190122
-0.0190865
0.000189596
0.0192063
-0.0192609
0.000192093
0.0194504
-0.0194529
0.000143208
0.0197213
-0.0196724
-1.26678e-05
0.0198523
-0.0196964
0.0159522
-0.0159649
-0.000234256
0.0186709
-0.000124657
0.0186797
-1.68021e-05
0.0187178
7.70444e-05
0.0187832
0.000159043
0.0189302
0.00022172
0.0191436
0.000233491
0.0194386
0.000186548
0.0197683
3.49468e-05
0.0200039
0.0159871
-0.000233705
0.0185472
-0.00011981
0.0185658
-7.92947e-06
0.0186059
9.13628e-05
0.0186839
0.000179803
0.0188417
0.000249703
0.0190737
0.000271844
0.0194165
0.000230744
0.0198094
8.71233e-05
0.0201475
0.0160743
-0.000233246
0.0184207
-0.000115563
0.0184481
5.9011e-07
0.0184898
0.000104824
0.0185797
0.000199658
0.0187469
0.000277854
0.0189955
0.000312651
0.0193817
0.000281459
0.0198406
0.000150071
0.0202789
0.0162243
-0.000232679
0.0182914
-0.000111313
0.0183267
8.56331e-06
0.0183699
0.000118664
0.0184696
0.000220488
0.0186451
0.000308324
0.0189076
0.000358242
0.0193318
0.000340606
0.0198582
0.000224736
0.0203948
0.0164491
-0.000231868
0.0181592
-0.00010677
0.0182016
1.72249e-05
0.0182459
0.000133238
0.0183536
0.000242621
0.0185357
0.000341004
0.0188093
0.000407856
0.0192649
0.000407676
0.0198584
0.000314661
0.0204878
0.0167637
-0.000230832
0.0180242
-0.000101989
0.0180728
2.61932e-05
0.0181177
0.000148126
0.0182316
0.000265271
0.0184185
0.000374652
0.0186999
0.000460115
0.0191794
0.000482335
0.0198362
0.000420153
0.02055
0.0171839
-0.000229567
0.0178864
-9.69778e-05
0.0179402
3.54421e-05
0.0179853
0.000163306
0.0181038
0.000288393
0.0182935
0.000409448
0.0185788
0.000514748
0.0190741
0.000564653
0.0197863
0.000554433
0.0205602
0.0177383
-0.000228272
0.0177458
-9.21332e-05
0.0178041
4.43431e-05
0.0178488
0.000177779
0.0179703
0.000310454
0.0181608
0.000442801
0.0184465
0.000568677
0.0189483
0.000652796
0.0197021
0.000715713
0.0204973
0.018454
-0.000226541
-8.66578e-05
5.42267e-05
0.000193705
0.000334663
0.000479983
0.000629697
0.000752642
0.000926803
0.00353865
-3.11262e-06
2.91014e-12
0.00353241
6.23214e-06
-2.38772e-12
0.00353038
2.02999e-06
3.46295e-12
0.00351144
1.89445e-05
-2.785e-12
0.00351209
-6.54779e-07
5.38739e-12
0.0034348
7.72975e-05
-2.89165e-12
0.00341239
2.24055e-05
3.90256e-12
0.00304391
0.000368483
-5.72856e-12
0.00271406
0.000329844
4.58354e-12
0.00271406
2.94849e-13
0.00353856
-6.13818e-06
0.00353246
1.23341e-05
0.00353014
4.34446e-06
0.00351151
3.75775e-05
0.00351116
-3.0429e-07
0.00343439
0.000154066
0.00340718
4.96131e-05
0.00303889
0.00073678
0.00268775
0.000680976
0.00540182
0.00353842
-9.0201e-06
0.00353254
1.82061e-05
0.0035298
7.09026e-06
0.00351176
5.5618e-05
0.00350995
1.50208e-06
0.00343456
0.000229455
0.00340123
8.29482e-05
0.00303654
0.00110147
0.00266844
0.00104907
0.00807026
0.00353822
-1.17087e-05
0.00353268
2.37524e-05
0.00352936
1.04027e-05
0.00351216
7.28169e-05
0.00350851
5.15614e-06
0.00343525
0.000302714
0.00339482
0.000123385
0.00303713
0.00145916
0.00265609
0.00143011
0.0107263
0.003538
-1.41721e-05
0.00353285
2.89041e-05
0.00352888
1.43686e-05
0.00351271
8.89865e-05
0.00350695
1.09127e-05
0.00343644
0.00037323
0.00338829
0.000171534
0.00304091
0.00180654
0.00265003
0.00182099
0.0133764
0.00353776
-1.63972e-05
0.00353304
3.36187e-05
0.00352838
1.90311e-05
0.00351336
0.000104006
0.00350537
1.89043e-05
0.00343803
0.000440573
0.00338185
0.000227711
0.00304809
0.0021403
0.0026499
0.00221917
0.0160263
0.00353753
-1.83924e-05
0.00353326
3.78847e-05
0.00352791
2.43813e-05
0.00351408
0.000117836
0.00350388
2.91093e-05
0.00343991
0.000504545
0.0033758
0.000291818
0.00305877
0.00245732
0.002655
0.00262295
0.0186813
0.00353733
-2.01883e-05
0.00353349
4.17222e-05
0.00352752
3.0357e-05
0.00351484
0.000130516
0.0035026
4.1345e-05
0.00344193
0.000565219
0.00337057
0.000363177
0.00307289
0.002755
0.00266428
0.00303156
0.0213456
0.00353718
-2.18388e-05
0.00353372
4.51831e-05
0.00352724
3.68443e-05
0.00351558
0.000142169
0.00350165
5.5276e-05
0.00344392
0.000622951
0.00336677
0.000440332
0.00308963
0.00303214
0.00267648
0.00344471
0.024022
0.00353767
-2.39744e-05
0.00353308
4.97756e-05
0.00352824
4.16849e-05
0.00351505
0.000155357
0.0035028
6.75264e-05
0.00344417
0.000681576
0.00336769
0.000516818
0.00310585
0.00329398
0.00269542
0.00385513
0.0267175
0.00353767
2.18388e-05
-2.39744e-05
0.00353308
-4.51831e-05
4.97756e-05
0.00352824
-3.68443e-05
4.16849e-05
0.00351505
-0.000142169
0.000155356
0.0035028
-5.5276e-05
6.75265e-05
0.00344417
-0.000622951
0.000681576
0.00336769
-0.000440332
0.000516818
0.00310585
-0.00303214
0.00329398
0.00269542
-0.00344471
0.00385513
-0.024022
0.0267175
0.00353718
2.01883e-05
0.00353372
-4.17222e-05
0.00352724
-3.0357e-05
0.00351558
-0.000130516
0.00350165
-4.1345e-05
0.00344392
-0.000565219
0.00336677
-0.000363177
0.00308963
-0.002755
0.00267648
-0.00303156
-0.0213456
0.00353733
1.83924e-05
0.00353349
-3.78847e-05
0.00352752
-2.43813e-05
0.00351484
-0.000117836
0.0035026
-2.91093e-05
0.00344193
-0.000504545
0.00337057
-0.000291818
0.00307289
-0.00245732
0.00266428
-0.00262295
-0.0186813
0.00353753
1.63972e-05
0.00353326
-3.36187e-05
0.00352791
-1.90311e-05
0.00351408
-0.000104006
0.00350388
-1.89043e-05
0.00343991
-0.000440573
0.0033758
-0.000227711
0.00305877
-0.0021403
0.002655
-0.00221917
-0.0160263
0.00353776
1.41721e-05
0.00353304
-2.89041e-05
0.00352838
-1.43686e-05
0.00351336
-8.89865e-05
0.00350537
-1.09127e-05
0.00343803
-0.00037323
0.00338185
-0.000171534
0.00304809
-0.00180654
0.0026499
-0.00182099
-0.0133764
0.003538
1.17087e-05
0.00353285
-2.37524e-05
0.00352888
-1.04027e-05
0.00351271
-7.28169e-05
0.00350695
-5.15615e-06
0.00343644
-0.000302714
0.00338829
-0.000123385
0.00304091
-0.00145916
0.00265003
-0.00143011
-0.0107263
0.00353822
9.0201e-06
0.00353268
-1.82061e-05
0.00352936
-7.09027e-06
0.00351216
-5.5618e-05
0.00350851
-1.50209e-06
0.00343525
-0.000229455
0.00339482
-8.29482e-05
0.00303713
-0.00110147
0.00265609
-0.00104907
-0.00807026
0.00353842
6.13818e-06
0.00353254
-1.23341e-05
0.0035298
-4.34446e-06
0.00351176
-3.75775e-05
0.00350995
3.04279e-07
0.00343456
-0.000154066
0.00340123
-4.96131e-05
0.00303654
-0.00073678
0.00266844
-0.000680976
-0.00540182
0.00353856
3.11261e-06
0.00353246
-6.23214e-06
0.00353014
-2.03e-06
0.00351151
-1.89445e-05
0.00351116
6.54768e-07
0.00343439
-7.72975e-05
0.00340718
-2.24055e-05
0.00303889
-0.000368483
0.00268775
-0.000329844
-0.00271406
0.00353865
0.00353241
0.00353038
0.00351144
0.00351209
0.0034348
0.00341239
0.00304391
0.00271406
-0.000226541
-0.0177458
0.0176025
-8.66578e-05
-0.0178041
0.0176642
5.42267e-05
-0.0178488
0.0177079
0.000193705
-0.0179703
0.0178309
0.000334663
-0.0181608
0.0180198
0.000479983
-0.0184465
0.0183012
0.000629697
-0.0189483
0.0187986
0.000752642
-0.0197021
0.0195792
0.000926803
-0.0204973
0.0203231
-0.018454
0.0193808
-0.000228272
-0.0178864
-9.21332e-05
-0.0179402
4.4343e-05
-0.0179853
0.000177779
-0.0181038
0.000310454
-0.0182935
0.000442801
-0.0185788
0.000568677
-0.0190741
0.000652796
-0.0197863
0.000715713
-0.0205602
-0.0177383
-0.000229567
-0.0180242
-9.69779e-05
-0.0180728
3.54421e-05
-0.0181177
0.000163306
-0.0182316
0.000288393
-0.0184185
0.000409448
-0.0186999
0.000514748
-0.0191794
0.000564653
-0.0198362
0.000554433
-0.02055
-0.0171839
-0.000230832
-0.0181592
-0.000101989
-0.0182016
2.61933e-05
-0.0182459
0.000148125
-0.0183536
0.000265271
-0.0185357
0.000374652
-0.0188093
0.000460115
-0.0192649
0.000482335
-0.0198584
0.000420153
-0.0204878
-0.0167637
-0.000231868
-0.0182914
-0.00010677
-0.0183267
1.72249e-05
-0.0183699
0.000133238
-0.0184696
0.000242621
-0.0186451
0.000341004
-0.0189076
0.000407856
-0.0193318
0.000407676
-0.0198582
0.000314661
-0.0203948
-0.0164491
-0.000232679
-0.0184207
-0.000111313
-0.0184481
8.56323e-06
-0.0184898
0.000118664
-0.0185797
0.000220488
-0.0187469
0.000308325
-0.0189955
0.000358242
-0.0193817
0.000340606
-0.0198406
0.000224736
-0.0202789
-0.0162243
-0.000233246
-0.0185472
-0.000115563
-0.0185658
5.90141e-07
-0.0186059
0.000104824
-0.0186839
0.000199658
-0.0188417
0.000277854
-0.0190737
0.000312651
-0.0194165
0.000281459
-0.0198094
0.000150071
-0.0201475
-0.0160743
-0.000233705
-0.0186709
-0.00011981
-0.0186797
-7.92944e-06
-0.0187178
9.13628e-05
-0.0187832
0.000179803
-0.0189302
0.000249703
-0.0191436
0.000271844
-0.0194386
0.000230744
-0.0197683
8.71233e-05
-0.0200039
-0.0159871
-0.000234256
-0.0187914
-0.000124657
-0.0187893
-1.68022e-05
-0.0188256
7.70444e-05
-0.0188771
0.000159043
-0.0190122
0.00022172
-0.0192063
0.000233491
-0.0194504
0.000186548
-0.0197213
3.49468e-05
-0.0198523
-0.0159522
-0.000235968
-0.0189056
-0.000130821
-0.0188944
-2.69337e-05
-0.0189295
6.05727e-05
-0.0189646
0.00013495
-0.0190865
0.000189596
-0.0192609
0.000192093
-0.0194529
0.000143208
-0.0196724
-1.26678e-05
-0.0196964
-0.0159649
-0.00055956
-0.0193329
0.0195176
-0.000743066
-0.0194154
0.019599
-0.000924935
-0.0194797
0.0196616
-0.00110307
-0.0196358
0.0198139
-0.00127285
-0.0198638
0.0200336
-0.00141964
-0.0202235
0.0203703
-0.00148857
-0.0206203
0.0206892
-0.00134195
-0.020394
0.0202474
-0.00075858
-0.0173564
0.016773
-0.00551776
0.00475918
-0.000562017
-0.0191467
-0.00074821
-0.0192293
-0.000934343
-0.0192936
-0.00111911
-0.019451
-0.00129953
-0.0196834
-0.00146753
-0.0200555
-0.00157722
-0.0205106
-0.00147812
-0.0204931
-0.000914616
-0.0179199
-0.00643237
-0.000563113
-0.0189593
-0.000751219
-0.0190411
-0.000939792
-0.019105
-0.00112826
-0.0192625
-0.00131442
-0.0194972
-0.00149341
-0.0198765
-0.00162656
-0.0203774
-0.00156582
-0.0205538
-0.00105216
-0.0184335
-0.00748453
-0.000564609
-0.0187702
-0.000755003
-0.0188508
-0.0009466
-0.0189134
-0.00113972
-0.0190694
-0.00133323
-0.0193037
-0.00152649
-0.0196833
-0.00168789
-0.020216
-0.00166959
-0.0205721
-0.00119803
-0.0189051
-0.00868257
-0.000565849
-0.0185797
-0.000758369
-0.0186582
-0.000952719
-0.0187191
-0.00114988
-0.0188723
-0.00134958
-0.019104
-0.00155467
-0.0194782
-0.00173948
-0.0200312
-0.00176615
-0.0205454
-0.0013446
-0.0193266
-0.0100272
-0.000567036
-0.0183876
-0.000761709
-0.0184636
-0.000958821
-0.018522
-0.00115996
-0.0186711
-0.00136588
-0.0188981
-0.00158262
-0.0192614
-0.00179018
-0.0198237
-0.00186703
-0.0204686
-0.00149832
-0.0196953
-0.0115255
-0.000568049
-0.0181938
-0.000764816
-0.0182668
-0.000964524
-0.0183223
-0.0011693
-0.0184663
-0.00138079
-0.0186866
-0.00160774
-0.0190345
-0.00183654
-0.0195949
-0.00196427
-0.0203409
-0.00165993
-0.0199997
-0.0131854
-0.00056888
-0.0179984
-0.000767713
-0.018068
-0.000969923
-0.01812
-0.00117819
-0.0182581
-0.00139489
-0.0184699
-0.00163109
-0.0187983
-0.00187906
-0.0193469
-0.00206149
-0.0201584
-0.00183713
-0.0202241
-0.0150225
-0.000569497
-0.0178013
-0.000770373
-0.0178671
-0.000975102
-0.0179153
-0.00118688
-0.0180463
-0.00140891
-0.0182479
-0.00165363
-0.0185536
-0.00191839
-0.0190821
-0.00216701
-0.0199098
-0.00204885
-0.0203422
-0.0170714
-0.000569944
-0.000772846
-0.000980244
-0.00119568
-0.00142376
-0.00167616
-0.00195973
-0.00229034
-0.00230944
-0.0023359
-0.000193316
-0.00211037
-0.000225525
-0.00184844
-0.000261934
-0.00151562
-0.000332813
-0.0011345
-0.000381122
-0.00063333
-0.000501173
-0.000110719
-0.000522611
0.000230869
-0.000341588
-0.000100131
0.000331
-0.000100131
-0.00234169
-0.000385754
-0.00211715
-0.000450068
-0.00185643
-0.000522645
-0.00152501
-0.000664233
-0.00114548
-0.00076066
-0.0006465
-0.00100015
-0.00012661
-0.0010425
0.000212442
-0.00068064
-0.00010947
0.000652912
-0.000209601
-0.00235341
-0.000576189
-0.00213116
-0.000672315
-0.0018734
-0.000780413
-0.00154546
-0.00099217
-0.00117015
-0.00113597
-0.000676759
-0.00149354
-0.000162133
-0.00155713
0.000176052
-0.00101883
-0.000126299
0.000955262
-0.000335899
-0.00237083
-0.000763549
-0.00215214
-0.000891003
-0.00189895
-0.00103361
-0.00157649
-0.00131463
-0.0012079
-0.00150456
-0.000723281
-0.00197816
-0.000216456
-0.00206395
0.000121785
-0.00135707
-0.000150439
0.00122749
-0.000486338
-0.00239363
-0.000946827
-0.00217968
-0.00110495
-0.00193258
-0.00128071
-0.00161747
-0.00162973
-0.00125794
-0.0018641
-0.000785152
-0.00245094
-0.000288689
-0.00256041
4.99782e-05
-0.00169573
-0.00018158
0.00145904
-0.000667918
-0.00242139
-0.00112511
-0.00221327
-0.00131307
-0.00197362
-0.00152036
-0.00166762
-0.00193573
-0.00131928
-0.00221243
-0.000861173
-0.00290906
-0.000377631
-0.00304396
-3.79806e-05
-0.00203538
-0.000219527
0.00164059
-0.000887444
-0.00245363
-0.00129758
-0.00225231
-0.00151439
-0.00202132
-0.00175135
-0.001726
-0.00223105
-0.00139078
-0.00254765
-0.000949959
-0.00334988
-0.00048196
-0.00351195
-0.000140955
-0.00237639
-0.0002642
0.00176383
-0.00115164
-0.00248983
-0.00146354
-0.00229615
-0.00170806
-0.00207482
-0.00197268
-0.00179155
-0.00251433
-0.00147113
-0.00286807
-0.00104997
-0.00377104
-0.000600216
-0.00396171
-0.000260313
-0.00271629
-0.00031568
0.0018192
-0.00146732
-0.00252939
-0.00162242
-0.00234406
-0.00189339
-0.00213321
-0.00218352
-0.00186316
-0.00278439
-0.00155895
-0.00317227
-0.00115955
-0.00417043
-0.000730792
-0.00439047
-0.00039564
-0.00305144
-0.000374311
0.00179787
-0.00184164
-0.00257165
-0.00177383
-0.00239541
-0.00206963
-0.00219547
-0.00238346
-0.0019398
-0.00304005
-0.00165322
-0.00345885
-0.0012767
-0.00454695
-0.000872524
-0.00479465
-0.000546097
-0.00337787
-0.000440937
0.00169271
-0.00228257
0.016503
0.000433422
0.0164662
-0.000620869
0.0165286
0.000482448
0.0165275
-0.000883075
0.0166306
0.000662252
0.0167759
-0.00176307
0.0168995
-3.73911e-05
0.0174169
-0.00367451
0.0177251
-0.00190262
-0.00630955
0.0165078
0.000390095
0.0164623
-0.000575368
0.0165278
0.000416904
0.0165073
-0.000862511
0.0166095
0.000560015
0.0167004
-0.00185395
0.0168232
-0.000160167
0.0173168
-0.00416818
0.0175585
-0.00214426
-0.00764549
0.0165114
0.000343208
0.0164591
-0.000523151
0.0165259
0.000350141
0.0164893
-0.000825942
0.016591
0.000458389
0.0166434
-0.00190638
0.016746
-0.000262745
0.0171979
-0.00462007
0.017407
-0.00235338
-0.00916805
0.016515
0.000292704
0.0164546
-0.000462814
0.0165229
0.000281873
0.0164671
-0.000770153
0.0165663
0.00035916
0.0165624
-0.00190241
0.0166572
-0.000357549
0.0170449
-0.00500775
0.0172033
-0.00251183
-0.0109293
0.0165177
0.000239467
0.0164497
-0.000394808
0.0165188
0.000212733
0.0164434
-0.000694735
0.0165414
0.00026114
0.0164826
-0.00184355
0.0165766
-0.000451524
0.0168529
-0.00528415
0.0169867
-0.00264562
-0.0130291
0.0165192
0.000184764
0.0164442
-0.000319849
0.0165135
0.000143398
0.0164182
-0.000599403
0.0165145
0.00016487
0.0163879
-0.00171698
0.0164772
-0.000540835
0.0165789
-0.00538579
0.0167287
-0.00279542
-0.0155613
0.016518
0.000131243
0.0164387
-0.000240577
0.0165065
7.56155e-05
0.016393
-0.000485907
0.0164868
7.10899e-05
0.016291
-0.00152117
0.0163661
-0.000615957
0.016273
-0.00529271
0.0164101
-0.00293256
-0.0186041
0.0165115
8.41933e-05
0.0164357
-0.00016478
0.0164945
1.6874e-05
0.0163728
-0.000364254
0.0164549
-1.0971e-05
0.0161946
-0.0012609
0.0162472
-0.000668553
0.0158806
-0.00492607
0.0161173
-0.0031693
-0.0221592
0.0165005
4.8166e-05
0.0164353
-9.96264e-05
0.016477
-2.47586e-05
0.0163616
-0.000248863
0.0164174
-6.68175e-05
0.0161137
-0.000957182
0.0161272
-0.000682089
0.0153711
-0.0041699
0.0156276
-0.00342581
-0.0262281
0.0164887
0.0164388
0.0164557
0.0163622
0.0163629
0.0160873
0.0159221
0.0150461
0.0154755
0.0164887
-4.8166e-05
0.0164388
9.96264e-05
0.0164557
2.47586e-05
0.0163622
0.000248863
0.0163629
6.68175e-05
0.0160873
0.000957182
0.0159221
0.000682089
0.0150461
0.0041699
0.0154755
0.00342581
0.0262281
0.0165005
-8.41933e-05
0.0164353
0.00016478
0.016477
-1.6874e-05
0.0163616
0.000364254
0.0164174
1.0971e-05
0.0161137
0.0012609
0.0161272
0.000668553
0.0153711
0.00492607
0.0156276
0.0031693
0.0221592
0.0165115
-0.000131243
0.0164357
0.000240577
0.0164945
-7.56155e-05
0.0163728
0.000485907
0.0164549
-7.10899e-05
0.0161946
0.00152117
0.0162472
0.000615957
0.0158806
0.00529271
0.0161173
0.00293256
0.0186041
0.016518
-0.000184764
0.0164387
0.000319849
0.0165065
-0.000143398
0.016393
0.000599403
0.0164868
-0.00016487
0.016291
0.00171698
0.0163661
0.000540835
0.016273
0.00538579
0.0164101
0.00279542
0.0155613
0.0165192
-0.000239467
0.0164442
0.000394808
0.0165135
-0.000212733
0.0164182
0.000694735
0.0165145
-0.00026114
0.0163879
0.00184355
0.0164772
0.000451524
0.0165789
0.00528415
0.0167287
0.00264562
0.0130291
0.0165177
-0.000292704
0.0164497
0.000462814
0.0165188
-0.000281873
0.0164434
0.000770153
0.0165414
-0.00035916
0.0164826
0.00190241
0.0165766
0.000357549
0.0168529
0.00500775
0.0169867
0.00251183
0.0109293
0.016515
-0.000343208
0.0164546
0.000523151
0.0165229
-0.000350141
0.0164671
0.000825942
0.0165663
-0.000458389
0.0165624
0.00190638
0.0166572
0.000262745
0.0170449
0.00462007
0.0172033
0.00235338
0.00916805
0.0165114
-0.000390095
0.0164591
0.000575368
0.0165259
-0.000416904
0.0164893
0.000862511
0.016591
-0.000560015
0.0166434
0.00185395
0.016746
0.000160167
0.0171979
0.00416818
0.017407
0.00214426
0.00764549
0.0165078
-0.000433422
0.0164623
0.000620869
0.0165278
-0.000482448
0.0165073
0.000883076
0.0166095
-0.000662252
0.0167004
0.00176307
0.0168232
3.73911e-05
0.0173168
0.00367451
0.0175585
0.00190262
0.00630955
0.016503
0.0164662
0.0165286
0.0165275
0.0166306
0.0167759
0.0168995
0.0174169
0.0177251
-0.0125714
-0.00236542
-0.0118975
-0.00274358
-0.0111315
-0.00314944
-0.0101731
-0.00399842
-0.00912018
-0.00451183
-0.00771992
-0.00594721
-0.00618584
-0.00632873
-0.00468276
-0.00488095
-0.00308016
9.0109e-05
-0.000603554
-0.0136042
-0.00277987
-0.013145
-0.00320277
-0.0126369
-0.00365757
-0.0120363
-0.00459905
-0.0114302
-0.00511792
-0.0106776
-0.00669975
-0.00998284
-0.00702352
-0.00952884
-0.00533495
-0.0105448
0.00110609
0.00562461
-0.0144857
-0.00305181
-0.0142
-0.00348847
-0.0138997
-0.00395788
-0.0136031
-0.00489567
-0.0133834
-0.00533766
-0.01322
-0.00686313
-0.0133261
-0.0069174
-0.0138793
-0.00478179
-0.0158463
0.00307311
0.0100257
-0.0151172
-0.00322922
-0.014945
-0.0036607
-0.0147811
-0.0041218
-0.014692
-0.00498477
-0.0147331
-0.00529648
-0.0149726
-0.00662363
-0.0156041
-0.00628596
-0.0166533
-0.00373261
-0.0184608
0.00488065
0.0122541
-0.0155102
-0.00335277
-0.0154004
-0.00377055
-0.015313
-0.0042092
-0.0153409
-0.00495683
-0.0155211
-0.00511633
-0.0159653
-0.00617942
-0.0168261
-0.00542513
-0.018029
-0.00252972
-0.0194961
0.00634769
0.0131283
-0.0157312
-0.00344822
-0.0156524
-0.00384938
-0.0156051
-0.00425649
-0.0156917
-0.00487021
-0.0159368
-0.00487122
-0.0164711
-0.00564517
-0.0174041
-0.0044921
-0.018597
-0.00133684
-0.0197959
0.00754663
0.013366
-0.0158493
-0.00352867
-0.0157861
-0.00391261
-0.0157598
-0.00428278
-0.0158715
-0.00475853
-0.0161368
-0.00460591
-0.0166902
-0.00509176
-0.0176156
-0.0035667
-0.018774
-0.000178404
-0.0198329
0.00860554
0.013347
-0.0159128
-0.00359958
-0.0158592
-0.00396616
-0.0158459
-0.00429612
-0.0159689
-0.00463557
-0.016238
-0.00433674
-0.0167851
-0.00454474
-0.0176648
-0.00268692
-0.0187531
0.000909838
-0.0197582
0.00961068
0.0132503
-0.0159471
-0.00366334
-0.0159009
-0.00401242
-0.0158961
-0.00430087
-0.0160231
-0.0045086
-0.0162847
-0.00407508
-0.0168053
-0.00402416
-0.0176349
-0.00185737
-0.0186961
0.00197106
-0.0197028
0.0106174
0.0131465
-0.0159629
-0.0159233
-0.0159249
-0.0160613
-0.0163274
-0.0168316
-0.0175967
-0.0185754
-0.0195962
-0.0159629
0.00366334
-0.0159233
0.00401242
-0.0159249
0.00430087
-0.0160613
0.0045086
-0.0163274
0.00407508
-0.0168316
0.00402416
-0.0175967
0.00185737
-0.0185754
-0.00197106
-0.0195962
-0.0106174
-0.0131465
-0.0159471
0.00359958
-0.0159009
0.00396616
-0.0158961
0.00429612
-0.0160231
0.00463557
-0.0162847
0.00433674
-0.0168053
0.00454474
-0.0176349
0.00268692
-0.0186961
-0.000909838
-0.0197028
-0.00961068
-0.0132503
-0.0159128
0.00352867
-0.0158592
0.00391261
-0.0158459
0.00428278
-0.0159689
0.00475853
-0.016238
0.00460591
-0.0167851
0.00509176
-0.0176648
0.0035667
-0.0187531
0.000178404
-0.0197582
-0.00860554
-0.013347
-0.0158493
0.00344822
-0.0157861
0.00384938
-0.0157598
0.00425649
-0.0158715
0.00487021
-0.0161368
0.00487122
-0.0166902
0.00564517
-0.0176156
0.0044921
-0.018774
0.00133684
-0.0198329
-0.00754663
-0.013366
-0.0157312
0.00335277
-0.0156524
0.00377055
-0.0156051
0.0042092
-0.0156917
0.00495683
-0.0159368
0.00511633
-0.0164711
0.00617942
-0.0174041
0.00542513
-0.018597
0.00252972
-0.0197959
-0.00634769
-0.0131283
-0.0155102
0.00322922
-0.0154004
0.0036607
-0.015313
0.0041218
-0.0153409
0.00498477
-0.0155211
0.00529648
-0.0159653
0.00662363
-0.0168261
0.00628596
-0.018029
0.00373261
-0.0194961
-0.00488065
-0.0122541
-0.0151172
0.00305181
-0.014945
0.00348847
-0.0147811
0.00395788
-0.014692
0.00489567
-0.0147331
0.00533766
-0.0149726
0.00686313
-0.0156041
0.0069174
-0.0166533
0.00478179
-0.0184608
-0.00307311
-0.0100257
-0.0144857
0.00277987
-0.0142
0.00320277
-0.0138997
0.00365757
-0.0136031
0.00459905
-0.0133834
0.00511792
-0.01322
0.00669975
-0.0133261
0.00702352
-0.0138793
0.00533495
-0.0158463
-0.00110609
-0.00562461
-0.0136042
0.00236542
-0.013145
0.00274358
-0.0126369
0.00314944
-0.0120363
0.00399842
-0.0114302
0.00451183
-0.0106776
0.00594721
-0.00998284
0.00632873
-0.00952884
0.00488095
-0.0105448
-9.0109e-05
0.000603554
-0.0125714
-0.0118975
-0.0111315
-0.0101731
-0.00912018
-0.00771992
-0.00618584
-0.00468276
-0.00308016
)
;

boundaryField
{
    inlet
    {
        type            calculated;
        value           nonuniform List<scalar> 
40
(
-0.00353553
-0.00353553
-0.00353553
-0.00353553
-0.00353553
-0.00353553
-0.00353553
-0.00353553
-0.00353553
-0.00353553
-0.00353553
-0.00353553
-0.00353553
-0.00353553
-0.00353553
-0.00353553
-0.00353553
-0.00353553
-0.00353553
-0.00353553
-0.0164645
-0.0164645
-0.0164645
-0.0164645
-0.0164645
-0.0164645
-0.0164645
-0.0164645
-0.0164645
-0.0164645
-0.0164645
-0.0164645
-0.0164645
-0.0164645
-0.0164645
-0.0164645
-0.0164645
-0.0164645
-0.0164645
-0.0164645
)
;
    }
    outlet
    {
        type            calculated;
        value           nonuniform List<scalar> 
40
(
0.00272306
0.00268827
0.00265579
0.0026261
0.00259967
0.0025769
0.00255819
0.00254385
0.00253413
0.00252921
0.00252921
0.00253413
0.00254385
0.00255819
0.0025769
0.00259967
0.0026261
0.00265579
0.00268827
0.00272306
0.013163
0.0140187
0.0147577
0.0152946
0.0156338
0.0158267
0.0159297
0.0159837
0.0160109
0.0160214
0.0160214
0.0160109
0.0159837
0.0159297
0.0158267
0.0156338
0.0152946
0.0147577
0.0140187
0.013163
)
;
    }
    polygon
    {
        type            calculated;
        value           uniform 0;
    }
    top
    {
        type            symmetryPlane;
        value           uniform 0;
    }
    bottom
    {
        type            symmetryPlane;
        value           uniform 0;
    }
    outside
    {
        type            calculated;
        value           nonuniform List<scalar> 
80
(
0.000371197
0.000372418
0.000373459
0.000374285
0.0003749
0.000375309
0.000375589
0.000375627
0.000375813
0.000374933
0.000350212
0.000354728
0.00035737
0.00035978
0.000362008
0.000364029
0.000365847
0.000367423
0.000368844
0.000369775
0.000369775
0.000368844
0.000367423
0.000365847
0.000364029
0.000362008
0.00035978
0.00035737
0.000354728
0.000350212
0.000374933
0.000375813
0.000375627
0.000375589
0.000375309
0.0003749
0.000374285
0.000373459
0.000372418
0.000371197
-0.000471945
0.000657619
-0.000544794
0.000884159
-0.000765334
0.00161777
-8.62553e-05
0.00315715
0.00159437
0.00512906
-0.000471945
0.000657619
-0.000544794
0.000884159
-0.000765334
0.00161777
-8.62553e-05
0.00315715
0.00159437
0.00512906
-0.00372183
-0.00405209
-0.00429927
-0.00437213
-0.00380897
-0.00351998
-0.00109225
0.00294977
0.0116381
0.0130679
-0.00372183
-0.00405209
-0.00429927
-0.00437213
-0.00380897
-0.00351998
-0.00109225
0.00294977
0.0116381
0.0130679
)
;
    }
}


// ************************************************************************* //
