/*--------------------------------*- C++ -*----------------------------------*\
  =========                 |
  \\      /  F ield         | OpenFOAM: The Open Source CFD Toolbox
   \\    /   O peration     | Website:  https://openfoam.org
    \\  /    A nd           | Version:  10
     \\/     M anipulation  |
\*---------------------------------------------------------------------------*/
FoamFile
{
    format      ascii;
    class       volVectorField;
    location    "20";
    object      U;
}
// * * * * * * * * * * * * * * * * * * * * * * * * * * * * * * * * * * * * * //

dimensions      [0 1 -1 0 0 0 0];

internalField   nonuniform List<vector> 
1200
(
(0.770197 -0.0146086 8.02978e-21)
(0.685978 -0.0170522 -1.1791e-22)
(0.671883 -0.0196813 -6.81668e-20)
(0.575784 -0.0251426 1.06345e-18)
(0.53024 -0.0286983 5.43765e-19)
(0.418085 -0.0378759 8.28651e-18)
(0.324543 -0.0400579 -9.22326e-18)
(0.188433 -0.0282204 -4.84388e-18)
(0.127459 0.0156302 2.31639e-17)
(0.120663 -0.0177192 1.99246e-17)
(0.760356 -0.0132906 1.83057e-20)
(0.671759 -0.0155153 -2.17271e-21)
(0.656851 -0.0179302 2.2203e-20)
(0.555057 -0.0228909 1.95912e-18)
(0.506898 -0.0261484 4.52174e-19)
(0.387093 -0.0344815 1.06688e-17)
(0.287336 -0.0363588 7.25918e-18)
(0.143789 -0.0252271 -1.10398e-17)
(0.0853891 0.0155741 1.22749e-17)
(0.123854 -0.0139778 -1.87587e-17)
(0.751169 -0.0119076 3.6423e-20)
(0.658442 -0.0139003 -2.05968e-21)
(0.64278 -0.0160859 7.29062e-20)
(0.535571 -0.0205245 1.55547e-18)
(0.485041 -0.0234719 4.52348e-19)
(0.357974 -0.030963 7.81444e-18)
(0.252632 -0.0325922 5.22441e-18)
(0.102658 -0.0223412 1.81782e-17)
(0.048789 0.0153548 1.00989e-17)
(0.126383 -0.0110234 -1.26801e-17)
(0.742773 -0.0104621 7.90755e-20)
(0.646234 -0.0122128 -8.2948e-22)
(0.629889 -0.0141537 1.27796e-19)
(0.517645 -0.0180522 1.88308e-18)
(0.465009 -0.0206697 6.99262e-19)
(0.331195 -0.0272762 8.67581e-18)
(0.220924 -0.0286604 4.52668e-18)
(0.0654707 -0.0194039 1.8619e-17)
(0.0173284 0.0146277 1.14902e-17)
(0.1282 -0.00858558 -1.30088e-17)
(0.735296 -0.00895932 1.71377e-19)
(0.635336 -0.0104586 8.10264e-22)
(0.618387 -0.0121368 1.93825e-19)
(0.501589 -0.0154741 9.88097e-19)
(0.447129 -0.017736 1.24921e-18)
(0.307213 -0.0234107 2.6045e-18)
(0.192689 -0.0245604 7.4678e-18)
(0.0326346 -0.0164604 2.87561e-17)
(-0.00926585 0.0133085 1.84785e-17)
(0.129359 -0.00653208 -2.19966e-17)
(0.728858 -0.00740573 8.23853e-20)
(0.625931 -0.00864493 4.7285e-21)
(0.608466 -0.0100443 3.27409e-19)
(0.487696 -0.0128024 4.78131e-19)
(0.431705 -0.0146873 2.39162e-18)
(0.28646 -0.0193939 8.56811e-18)
(0.168373 -0.0203249 1.51749e-17)
(0.00453997 -0.0135257 1.50733e-17)
(-0.0312077 0.0115286 3.48207e-17)
(0.129974 -0.00483272 -4.22783e-17)
(0.723565 -0.00580869 3.94903e-20)
(0.618187 -0.00678063 5.53646e-21)
(0.600299 -0.00788709 3.02927e-19)
(0.476228 -0.0100514 1.52369e-19)
(0.41901 -0.0115416 -5.01768e-19)
(0.269329 -0.0152494 8.20314e-18)
(0.148378 -0.0159722 6.88109e-18)
(-0.0184535 -0.0105676 8.94703e-18)
(-0.0486531 0.00935665 1.01221e-17)
(0.130192 -0.00343054 -2.78872e-17)
(0.719508 -0.00417648 1.93371e-20)
(0.612243 -0.00487563 2.6343e-21)
(0.594033 -0.00567759 1.30801e-19)
(0.467411 -0.00723603 -1.13868e-19)
(0.409272 -0.00831614 1.18885e-18)
(0.256157 -0.0110017 1.24883e-17)
(0.133053 -0.0115357 1.93156e-18)
(-0.0360272 -0.00765192 7.32024e-18)
(-0.0617044 0.00685474 -8.52761e-18)
(0.130168 -0.00225535 2.67415e-17)
(0.716758 -0.00251805 9.13162e-21)
(0.608212 -0.00294056 -6.64094e-22)
(0.589785 -0.00343072 1.77801e-20)
(0.461424 -0.00437538 -2.65337e-18)
(0.402673 -0.00503172 3.32475e-18)
(0.247216 -0.00665256 1.27581e-17)
(0.122673 -0.00696239 -2.21035e-18)
(-0.0479164 -0.00456461 9.62849e-18)
(-0.0704112 0.00422816 2.91043e-17)
(0.130048 -0.00129025 3.99498e-17)
(0.715369 -0.000842294 2.99336e-21)
(0.606174 -0.000984051 -3.92278e-21)
(0.587638 -0.00115567 -2.05038e-21)
(0.458396 -0.00148362 -2.29569e-18)
(0.399341 -0.00172455 1.76439e-18)
(0.242697 -0.00233456 9.05449e-18)
(0.117436 -0.0025069 -6.95999e-18)
(-0.0539209 -0.00178046 1.62577e-17)
(-0.0747907 0.00125232 2.21344e-17)
(0.129942 -0.000357188 1.81107e-17)
(1.17443 0.104827 -3.54458e-18)
(1.17864 0.11954 1.63879e-17)
(1.18161 0.123032 -2.00075e-18)
(1.18993 0.136681 2.08664e-17)
(1.20266 0.143406 -7.61642e-18)
(1.22183 0.159467 -1.72611e-17)
(1.25523 0.169117 -1.29986e-17)
(1.30848 0.198874 -1.15972e-17)
(1.34258 0.190705 -2.44486e-17)
(1.24355 0.18679 -5.51356e-17)
(1.17612 0.105146 1.62085e-18)
(1.18046 0.118894 1.81053e-17)
(1.18348 0.121913 -5.02181e-18)
(1.1919 0.134542 2.91104e-17)
(1.20468 0.140206 -9.03804e-18)
(1.22434 0.154406 -1.54853e-17)
(1.25752 0.16094 6.30013e-20)
(1.3101 0.185801 -7.99103e-18)
(1.31652 0.150049 1.27522e-17)
(1.05241 0.141407 3.62543e-19)
(1.17768 0.105407 -1.0033e-17)
(1.1822 0.118206 3.97788e-19)
(1.18544 0.120736 1.1428e-17)
(1.19419 0.132311 3.37694e-17)
(1.20749 0.136805 -6.89941e-18)
(1.22846 0.149026 -1.21179e-17)
(1.26254 0.152012 1.55799e-17)
(1.31237 0.17034 -1.10597e-17)
(1.29878 0.121405 -1.38813e-17)
(0.896085 0.11 1.69675e-18)
(1.17911 0.105607 -1.24965e-17)
(1.1838 0.117463 1.4084e-17)
(1.18727 0.119477 7.05435e-18)
(1.19635 0.12995 4.317e-17)
(1.21014 0.133146 -1.08374e-17)
(1.23226 0.143222 -9.50416e-18)
(1.26675 0.142439 1.931e-17)
(1.31046 0.153275 -5.02852e-18)
(1.27313 0.0969939 -1.22405e-17)
(0.784326 0.084247 1.79415e-18)
(1.1804 0.105755 3.34945e-18)
(1.18524 0.116679 1.12771e-17)
(1.18887 0.118162 1.75599e-17)
(1.19819 0.127512 3.63711e-17)
(1.21224 0.129336 3.04027e-18)
(1.23504 0.137178 -9.21708e-18)
(1.26908 0.132608 4.1302e-19)
(1.30452 0.135734 -2.5866e-17)
(1.23997 0.0751518 -8.93733e-18)
(0.680449 0.0618834 7.92006e-20)
(1.18157 0.105851 -2.4169e-19)
(1.18651 0.115857 1.35012e-17)
(1.19023 0.116792 2.54357e-17)
(1.19967 0.124995 3.08756e-17)
(1.2138 0.125368 5.65153e-18)
(1.23686 0.130831 -5.87059e-18)
(1.26958 0.122299 -6.88358e-18)
(1.29513 0.117634 -2.37067e-17)
(1.20284 0.0550541 -1.42033e-17)
(0.584736 0.0419694 4.80586e-17)
(1.18262 0.105917 1.12681e-17)
(1.18762 0.115039 3.89003e-18)
(1.1914 0.11544 3.49921e-17)
(1.20089 0.122529 2.7865e-17)
(1.21497 0.121482 -9.04883e-18)
(1.23798 0.124624 -1.0527e-17)
(1.26891 0.112323 1.08428e-17)
(1.28383 0.100073 -2.01239e-17)
(1.16466 0.0360895 1.84281e-17)
(0.500306 0.0229678 3.7045e-17)
(1.18354 0.10592 1.02257e-17)
(1.18856 0.114146 -7.98067e-18)
(1.19235 0.113968 3.56558e-17)
(1.20181 0.119866 2.0431e-17)
(1.21571 0.117221 -1.23369e-17)
(1.23825 0.117669 9.0554e-18)
(1.26634 0.100983 7.89128e-18)
(1.26863 0.0805455 -1.76309e-17)
(1.12178 0.0161606 1.75341e-17)
(0.426521 0.00342862 2.6874e-17)
(1.18441 0.105971 6.195e-18)
(1.18941 0.113428 -6.82431e-18)
(1.1932 0.112789 1.86574e-17)
(1.20256 0.117726 2.7182e-17)
(1.21618 0.113873 3.37579e-18)
(1.23799 0.112301 3.66217e-18)
(1.26312 0.092482 6.36189e-18)
(1.25446 0.0655243 -1.38756e-17)
(1.083 -0.00140401 1.69968e-17)
(0.364433 -0.0175509 1.81673e-17)
(1.18505 0.105795 1.57367e-17)
(1.18999 0.112231 -5.45127e-18)
(1.19375 0.110846 1.54295e-17)
(1.20294 0.114293 3.41366e-17)
(1.2162 0.108289 2.42419e-18)
(1.23696 0.103008 1.72067e-17)
(1.25732 0.0769759 4.25841e-18)
(1.23262 0.0391963 -1.25892e-17)
(1.02785 -0.0299633 1.4835e-17)
(0.299786 -0.0360074 1.40718e-17)
(1.14745 0.0999332 1.66882e-17)
(1.14704 0.126349 -1.24687e-17)
(1.14918 0.137476 8.17156e-18)
(1.15208 0.162774 -9.22931e-18)
(1.16054 0.184678 -1.08484e-17)
(1.1722 0.21945 -4.94216e-17)
(1.18673 0.255239 3.86626e-17)
(1.2027 0.324633 -1.8238e-17)
(1.2068 0.388126 1.23846e-18)
(0.97675 0.431343 4.6521e-18)
(1.1531 0.100698 1.49756e-17)
(1.15361 0.125886 -1.0675e-17)
(1.1564 0.136273 9.78e-18)
(1.16067 0.160545 -1.21653e-17)
(1.1706 0.181008 -1.1274e-17)
(1.18424 0.214859 -9.9011e-18)
(1.20221 0.249477 3.2731e-17)
(1.22169 0.317863 -1.46746e-18)
(1.23153 0.385527 2.21751e-18)
(0.985318 0.418281 3.17019e-18)
(1.15666 0.101389 1.23639e-17)
(1.15774 0.125348 -9.21626e-18)
(1.16055 0.134976 4.73244e-19)
(1.16552 0.158198 9.24126e-19)
(1.17584 0.177196 -5.50706e-18)
(1.19046 0.209867 -2.97226e-17)
(1.21131 0.243032 3.15293e-17)
(1.23477 0.30943 1.02383e-17)
(1.25206 0.380628 2.18688e-18)
(0.998253 0.404612 2.42324e-18)
(1.1591 0.102023 1.22781e-17)
(1.16068 0.124779 -6.73568e-18)
(1.16345 0.133641 -1.06352e-17)
(1.16907 0.155781 8.74595e-20)
(1.17984 0.173279 -1.78186e-17)
(1.19554 0.204473 -6.25942e-18)
(1.2195 0.235808 1.36248e-17)
(1.24763 0.2993 2.88451e-17)
(1.27242 0.372958 2.61361e-18)
(1.01603 0.389692 1.82734e-18)
(1.16141 0.102594 6.69483e-18)
(1.16351 0.124162 -1.00794e-17)
(1.16636 0.132241 -9.2951e-18)
(1.1727 0.153245 1.50379e-18)
(1.18416 0.169194 -1.62669e-17)
(1.2011 0.198633 -2.18009e-17)
(1.22811 0.227766 6.63943e-18)
(1.26119 0.287524 1.84464e-17)
(1.29271 0.36209 1.88109e-18)
(1.03759 0.373044 8.4391e-20)
(1.16383 0.103097 2.06232e-17)
(1.16644 0.123479 3.54749e-18)
(1.16943 0.130753 -8.72236e-18)
(1.17646 0.150562 -3.83015e-18)
(1.18859 0.164914 -1.42754e-17)
(1.20664 0.192359 -1.36687e-17)
(1.23629 0.218905 2.03649e-17)
(1.27422 0.274251 3.62688e-17)
(1.31345 0.348072 4.0866e-18)
(1.06698 0.354403 -2.61229e-18)
(1.16625 0.103537 9.17861e-18)
(1.16932 0.122738 -1.05119e-19)
(1.17243 0.129204 -7.83682e-18)
(1.18002 0.147783 1.09374e-17)
(1.19267 0.160526 -1.15268e-17)
(1.21158 0.185814 -2.77374e-17)
(1.2434 0.209458 2.15433e-17)
(1.28607 0.25963 3.27119e-17)
(1.33096 0.329328 -1.35064e-18)
(1.09851 0.332317 4.426e-18)
(1.16853 0.103906 -4.35944e-18)
(1.17201 0.121932 1.12914e-17)
(1.17518 0.127572 -7.29664e-18)
(1.18318 0.144877 5.30723e-18)
(1.19618 0.155973 -1.13972e-17)
(1.21562 0.178919 -2.5146e-17)
(1.24904 0.199161 7.32945e-18)
(1.29606 0.243858 2.73913e-17)
(1.35036 0.30679 1.1502e-17)
(1.14949 0.307254 -1.88158e-17)
(1.17065 0.104242 -3.57829e-18)
(1.17446 0.121127 1.04816e-17)
(1.17766 0.125997 -5.84673e-18)
(1.18597 0.142057 1.84394e-17)
(1.19918 0.15161 -9.11393e-18)
(1.21901 0.172234 -2.11819e-17)
(1.25363 0.189077 -1.25252e-17)
(1.30436 0.227857 2.87097e-17)
(1.35779 0.276075 -1.79995e-17)
(1.18715 0.27486 -5.77547e-17)
(1.17259 0.104456 -2.81491e-18)
(1.17669 0.120182 6.4494e-18)
(1.17982 0.124165 -4.18738e-18)
(1.18824 0.138856 1.3299e-17)
(1.20141 0.146653 -7.95709e-18)
(1.22098 0.164653 -1.88482e-17)
(1.25561 0.17698 -1.0189e-17)
(1.30886 0.210741 1.14631e-17)
(1.37585 0.241313 -7.69277e-18)
(1.2807 0.23977 -4.66517e-17)
(1.03278 -3.18193e-05 4.22962e-19)
(0.968012 6.55138e-05 -1.13792e-18)
(1.0319 1.25344e-05 8.63645e-19)
(0.962868 0.000200577 -1.54026e-20)
(1.02652 -7.9985e-06 1.11148e-19)
(0.956038 0.000820504 2.86841e-18)
(0.992973 0.000236495 -5.39911e-19)
(0.928917 0.00394361 3.16711e-18)
(0.807071 0.00362804 -1.52428e-17)
(0.73188 0.0242388 1.52369e-18)
(1.03277 -8.61576e-05 5.56337e-19)
(0.967983 0.000173196 -2.47278e-18)
(1.03196 5.48209e-05 1.67084e-18)
(0.962744 0.000527429 -2.76342e-18)
(1.02672 -1.34756e-05 3.11921e-19)
(0.955634 0.00215681 1.5658e-18)
(0.993531 0.000650338 -1.00853e-18)
(0.927508 0.0103095 2.55665e-18)
(0.809853 0.00928947 -6.56764e-18)
(0.733456 0.0742448 -4.77302e-18)
(1.03275 -0.000140921 7.01357e-19)
(0.967933 0.000285453 -4.87952e-18)
(1.03206 9.63387e-05 3.26192e-19)
(0.962511 0.000872261 -1.6206e-18)
(1.02711 4.06443e-06 2.77988e-19)
(0.954876 0.00358923 8.01148e-19)
(0.994747 0.00122589 -1.82908e-18)
(0.925064 0.0172388 9.40293e-19)
(0.815189 0.0162499 -1.1283e-18)
(0.736302 0.122443 -1.51901e-17)
(1.03271 -0.00019109 8.38254e-19)
(0.967874 0.000388189 -4.63076e-18)
(1.03219 0.000150391 -5.7281e-19)
(0.962199 0.00118904 -1.29781e-18)
(1.02768 5.38546e-05 6.10905e-19)
(0.953831 0.0049245 3.14187e-19)
(0.996553 0.00188927 -3.71688e-18)
(0.92179 0.0237269 -1.86796e-19)
(0.823014 0.0229175 2.55135e-18)
(0.740393 0.170155 -4.56608e-17)
(1.03263 -0.000237298 9.77427e-19)
(0.967827 0.000484515 -1.51821e-18)
(1.03233 0.000214059 -1.40658e-18)
(0.961848 0.00148977 -1.57587e-18)
(1.02836 0.000138923 5.50285e-19)
(0.952597 0.00622108 -4.84386e-19)
(0.998842 0.00269406 -3.12434e-19)
(0.917958 0.0301001 -7.26598e-19)
(0.833194 0.0299107 4.97962e-18)
(0.745664 0.217503 -2.80365e-17)
(1.03252 -0.00027891 1.60385e-18)
(0.967814 0.00057235 6.34025e-19)
(1.03245 0.000290212 -2.87325e-18)
(0.961507 0.00176764 -2.43231e-18)
(1.02909 0.00026342 8.38084e-19)
(0.951298 0.00745034 -1.77248e-18)
(1.00144 0.00363314 2.68137e-18)
(0.913853 0.0361852 -1.24493e-18)
(0.845525 0.0369264 6.94718e-18)
(0.752069 0.264513 -1.713e-17)
(1.03235 -0.000316027 -8.29467e-19)
(0.967862 0.000651623 2.44163e-18)
(1.03253 0.000378463 -2.95217e-18)
(0.961231 0.0020226 1.10078e-18)
(1.0298 0.000427674 7.36998e-19)
(0.950073 0.008613 -3.84197e-18)
(1.00415 0.00471345 3.37073e-19)
(0.909833 0.0419609 -2.1514e-18)
(0.85967 0.0440278 1.22006e-17)
(0.759561 0.311298 -1.10102e-17)
(1.03211 -0.00034902 5.63665e-19)
(0.967996 0.000722769 1.42962e-19)
(1.03252 0.000477671 -1.64375e-18)
(0.961077 0.00225508 4.20981e-19)
(1.03041 0.000627846 4.15294e-19)
(0.949068 0.00970611 -3.95473e-18)
(1.00672 0.00592089 -1.52983e-18)
(0.906358 0.0473617 -3.26551e-18)
(0.875072 0.0510986 2.58719e-17)
(0.768112 0.357953 -6.48572e-18)
(1.03179 -0.000377301 2.42362e-18)
(0.968244 0.00078247 -2.35064e-18)
(1.03241 0.000592042 -1.02921e-18)
(0.961099 0.00245939 1.52313e-19)
(1.03084 0.000871413 -1.3751e-19)
(0.948425 0.010723 -2.28489e-18)
(1.00895 0.00725246 2.40039e-18)
(0.904012 0.0523343 -3.68542e-18)
(0.890798 0.0579304 1.37765e-17)
(0.777957 0.404392 -3.83962e-18)
(1.03137 -0.000408243 1.31171e-18)
(0.968629 0.000846998 -1.2162e-18)
(1.03215 0.000703094 -6.18087e-19)
(0.961344 0.00267597 6.98657e-20)
(1.03104 0.0011168 -5.95359e-21)
(0.948266 0.0117898 -1.369e-18)
(1.01063 0.00869677 1.33386e-18)
(0.903494 0.0572634 -2.59985e-18)
(0.905316 0.0672756 7.80091e-18)
(0.792593 0.451406 -2.33149e-18)
(1.03137 0.000408243 1.39539e-18)
(0.968629 -0.000846998 -1.35399e-19)
(1.03215 -0.000703095 -8.01865e-20)
(0.961344 -0.00267596 -4.00088e-20)
(1.03104 -0.0011168 -1.16146e-19)
(0.948266 -0.0117898 4.82431e-19)
(1.01063 -0.00869677 -1.36952e-18)
(0.903494 -0.0572634 1.69132e-18)
(0.905316 -0.0672756 -2.5028e-17)
(0.792593 -0.451406 -1.02713e-17)
(1.03179 0.000377301 2.53803e-18)
(0.968244 -0.00078247 -3.4695e-19)
(1.03241 -0.000592042 -1.18841e-19)
(0.961099 -0.00245939 -1.48853e-20)
(1.03084 -0.000871413 -1.53884e-19)
(0.948425 -0.010723 7.55122e-19)
(1.00895 -0.00725246 -2.21322e-18)
(0.904012 -0.0523343 8.1535e-19)
(0.890798 -0.0579304 -1.33898e-17)
(0.777957 -0.404392 -1.22348e-17)
(1.03211 0.00034902 1.24636e-18)
(0.967996 -0.000722769 -1.04966e-18)
(1.03252 -0.000477671 -2.16416e-19)
(0.961077 -0.00225508 2.39394e-20)
(1.03041 -0.000627846 -1.92431e-19)
(0.949068 -0.00970611 1.07779e-18)
(1.00672 -0.00592089 1.98619e-18)
(0.906358 -0.0473617 1.62342e-18)
(0.875072 -0.0510986 -1.22405e-17)
(0.768112 -0.357953 -1.62422e-17)
(1.03235 0.000316027 5.20472e-19)
(0.967862 -0.000651623 -2.4126e-18)
(1.03253 -0.000378463 -2.03876e-19)
(0.961231 -0.0020226 4.93478e-20)
(1.0298 -0.000427674 -2.20651e-19)
(0.950073 -0.008613 2.22235e-18)
(1.00415 -0.00471345 7.2235e-19)
(0.909833 -0.0419609 4.1201e-18)
(0.85967 -0.0440278 -1.85805e-17)
(0.759561 -0.311298 -8.91003e-18)
(1.03252 0.00027891 -1.01443e-19)
(0.967814 -0.00057235 1.1955e-20)
(1.03245 -0.000290212 7.80334e-20)
(0.961507 -0.00176764 2.41483e-20)
(1.02909 -0.000263421 -1.08092e-19)
(0.951298 -0.00745034 6.33993e-19)
(1.00144 -0.00363314 -6.0473e-20)
(0.913853 -0.0361852 4.313e-18)
(0.845525 -0.0369264 -3.43784e-17)
(0.752069 -0.264513 -9.11499e-18)
(1.03263 0.000237298 -7.12633e-19)
(0.967827 -0.000484515 2.4798e-18)
(1.03233 -0.00021406 2.1555e-19)
(0.961848 -0.00148977 -8.21667e-20)
(1.02836 -0.000138923 4.26295e-20)
(0.952597 -0.00622108 -5.85022e-19)
(0.998842 -0.00269406 -5.98252e-19)
(0.917958 -0.0301001 3.52798e-18)
(0.833194 -0.0299107 -2.86672e-17)
(0.745664 -0.217503 1.15436e-17)
(1.03271 0.00019109 -1.44555e-18)
(0.967874 -0.000388189 1.16539e-18)
(1.03219 -0.000150391 2.9097e-19)
(0.962199 -0.00118904 -2.88008e-19)
(1.02768 -5.38548e-05 1.21629e-19)
(0.953831 -0.0049245 -2.15653e-18)
(0.996553 -0.00188927 -9.18641e-19)
(0.92179 -0.0237269 4.47163e-18)
(0.823014 -0.0229175 -3.81268e-17)
(0.740393 -0.170155 2.68752e-17)
(1.03275 0.00014092 1.23045e-18)
(0.967933 -0.000285453 5.27131e-19)
(1.03206 -9.63388e-05 3.22405e-19)
(0.962511 -0.000872261 -6.27991e-19)
(1.02711 -4.06463e-06 5.81621e-20)
(0.954876 -0.00358923 -6.30226e-19)
(0.994747 -0.00122589 -9.09989e-19)
(0.925064 -0.0172388 4.22432e-18)
(0.815189 -0.0162499 -2.42131e-17)
(0.736302 -0.122443 1.8681e-17)
(1.03277 8.61574e-05 6.71393e-19)
(0.967983 -0.000173196 7.21353e-20)
(1.03196 -5.48211e-05 4.04129e-19)
(0.962744 -0.000527429 -1.33076e-18)
(1.02672 1.34754e-05 5.61646e-20)
(0.955634 -0.00215681 3.18272e-19)
(0.993531 -0.000650339 -7.44015e-19)
(0.927508 -0.0103095 4.07254e-18)
(0.809853 -0.00928947 -2.25919e-17)
(0.733456 -0.0742448 2.65242e-17)
(1.03278 3.18192e-05 3.58763e-19)
(0.968012 -6.55137e-05 -4.32734e-19)
(1.0319 -1.25345e-05 6.10496e-19)
(0.962868 -0.000200577 -2.61194e-18)
(1.02652 7.99831e-06 2.32227e-19)
(0.956038 -0.000820504 1.34289e-18)
(0.992973 -0.000236495 -5.80394e-19)
(0.928917 -0.0039436 3.99829e-18)
(0.807071 -0.00362804 -3.14791e-17)
(0.73188 -0.0242388 8.68891e-18)
(1.17259 -0.104456 -6.40373e-18)
(1.17669 -0.120182 -1.77625e-17)
(1.17982 -0.124165 -9.23488e-18)
(1.18824 -0.138856 -1.49195e-17)
(1.20141 -0.146653 -4.33491e-18)
(1.22098 -0.164653 -2.0029e-17)
(1.25561 -0.17698 3.76932e-17)
(1.30886 -0.210741 6.8908e-18)
(1.37585 -0.241313 -7.97022e-18)
(1.2807 -0.23977 7.61047e-18)
(1.17065 -0.104242 4.97726e-18)
(1.17446 -0.121127 -5.96212e-18)
(1.17766 -0.125997 -3.96333e-18)
(1.18597 -0.142057 -1.93451e-17)
(1.19918 -0.15161 -9.88927e-18)
(1.21901 -0.172234 2.19041e-17)
(1.25363 -0.189077 3.54115e-17)
(1.30436 -0.227857 -2.72011e-17)
(1.35779 -0.276075 -5.34575e-18)
(1.18715 -0.27486 1.50504e-18)
(1.16853 -0.103906 2.36119e-18)
(1.17201 -0.121932 -1.17329e-17)
(1.17518 -0.127572 -5.63311e-18)
(1.18318 -0.144877 -2.11267e-17)
(1.19618 -0.155973 6.61545e-18)
(1.21562 -0.178919 9.96132e-18)
(1.24904 -0.199161 2.11923e-17)
(1.29606 -0.243858 4.28817e-18)
(1.35036 -0.30679 -4.24027e-18)
(1.14949 -0.307254 6.42159e-18)
(1.16625 -0.103537 3.97589e-18)
(1.16932 -0.122738 -1.1543e-17)
(1.17243 -0.129204 -6.38483e-18)
(1.18002 -0.147783 -2.3767e-17)
(1.19267 -0.160526 2.27248e-18)
(1.21158 -0.185814 -2.37297e-18)
(1.2434 -0.209458 1.07413e-17)
(1.28607 -0.25963 -3.15437e-17)
(1.33096 -0.329328 2.29411e-17)
(1.09851 -0.332317 5.00571e-17)
(1.16383 -0.103097 1.87035e-17)
(1.16644 -0.123479 -2.70074e-17)
(1.16943 -0.130753 -2.16207e-17)
(1.17646 -0.150562 -2.65314e-17)
(1.18859 -0.164914 -1.02972e-17)
(1.20664 -0.192359 2.03999e-18)
(1.23629 -0.218905 1.70899e-17)
(1.27422 -0.274251 2.32302e-17)
(1.31345 -0.348072 1.52853e-17)
(1.06698 -0.354403 6.48089e-18)
(1.16141 -0.102594 4.05958e-18)
(1.16351 -0.124162 -1.33186e-17)
(1.16636 -0.132241 -4.84995e-18)
(1.1727 -0.153245 -3.08852e-17)
(1.18416 -0.169194 -2.25334e-17)
(1.2011 -0.198633 1.19573e-18)
(1.22811 -0.227766 1.78085e-17)
(1.26119 -0.287524 2.603e-17)
(1.29271 -0.36209 2.185e-17)
(1.03759 -0.373044 6.0534e-17)
(1.1591 -0.102023 1.04337e-17)
(1.16068 -0.124779 -7.80337e-18)
(1.16345 -0.133641 -1.11236e-17)
(1.16907 -0.155781 -3.49475e-17)
(1.17984 -0.173279 -2.15011e-17)
(1.19554 -0.204473 2.4481e-18)
(1.2195 -0.235808 2.04205e-17)
(1.24763 -0.2993 2.96579e-17)
(1.27242 -0.372958 2.38492e-17)
(1.01603 -0.389692 5.69692e-17)
(1.15666 -0.101389 1.08807e-17)
(1.15774 -0.125348 1.98885e-18)
(1.16055 -0.134976 -1.02552e-17)
(1.16552 -0.158198 -2.52919e-17)
(1.17584 -0.177196 -2.5358e-17)
(1.19046 -0.209867 2.51086e-18)
(1.21131 -0.243032 4.07316e-17)
(1.23477 -0.30943 5.4269e-17)
(1.25206 -0.380628 2.55992e-17)
(0.998253 -0.404612 4.06074e-17)
(1.1531 -0.100698 -1.01108e-18)
(1.15361 -0.125886 -8.84187e-19)
(1.1564 -0.136273 -1.22357e-17)
(1.16067 -0.160545 -3.33843e-17)
(1.1706 -0.181008 -2.81153e-17)
(1.18424 -0.214859 3.07948e-18)
(1.20221 -0.249477 4.08411e-17)
(1.22169 -0.317863 5.36769e-17)
(1.23153 -0.385527 5.46624e-18)
(0.985318 -0.418281 5.53537e-17)
(1.14745 -0.0999332 -9.93105e-18)
(1.14704 -0.126349 1.23658e-17)
(1.14918 -0.137476 -1.36822e-17)
(1.15208 -0.162774 -3.72008e-17)
(1.16054 -0.184678 -1.78428e-17)
(1.1722 -0.21945 4.16833e-18)
(1.18673 -0.255239 6.46859e-17)
(1.2027 -0.324633 6.31207e-17)
(1.2068 -0.388126 -7.86021e-18)
(0.97675 -0.431343 4.09852e-17)
(1.18505 -0.105795 1.70318e-17)
(1.18999 -0.112231 -7.06708e-18)
(1.19375 -0.110846 -5.88484e-18)
(1.20294 -0.114293 -3.28782e-18)
(1.2162 -0.108289 -1.08512e-17)
(1.23696 -0.103008 1.15337e-17)
(1.25732 -0.0769759 -3.47209e-17)
(1.23262 -0.0391963 -3.35483e-18)
(1.02785 0.0299633 -5.63817e-17)
(0.299786 0.0360074 3.05727e-17)
(1.18441 -0.105971 1.92653e-17)
(1.18941 -0.113428 -7.85142e-18)
(1.1932 -0.112789 -4.89055e-18)
(1.20256 -0.117726 1.34028e-17)
(1.21618 -0.113873 -1.35419e-17)
(1.23799 -0.112301 1.55967e-17)
(1.26312 -0.092482 -2.0526e-17)
(1.25446 -0.0655243 -3.0741e-19)
(1.083 0.00140401 -3.44035e-17)
(0.364433 0.0175509 4.12882e-17)
(1.18354 -0.10592 2.31264e-17)
(1.18856 -0.114146 -8.9966e-18)
(1.19235 -0.113968 2.31244e-17)
(1.20181 -0.119866 1.07292e-17)
(1.21571 -0.117221 2.16013e-19)
(1.23825 -0.117669 1.73772e-17)
(1.26634 -0.100983 -3.04133e-17)
(1.26863 -0.0805455 -1.08176e-18)
(1.12178 -0.0161606 -5.09255e-17)
(0.426521 -0.00342862 -1.04503e-17)
(1.18262 -0.105917 1.25056e-17)
(1.18762 -0.115039 -1.0415e-17)
(1.1914 -0.11544 2.38759e-18)
(1.20089 -0.122529 -1.11289e-18)
(1.21497 -0.121482 -2.28286e-17)
(1.23798 -0.124624 4.78014e-18)
(1.26891 -0.112323 -1.09153e-17)
(1.28383 -0.100073 1.44011e-18)
(1.16466 -0.0360895 -5.4312e-17)
(0.500306 -0.0229678 -2.39421e-17)
(1.18157 -0.105851 1.86855e-17)
(1.18651 -0.115857 -1.1329e-17)
(1.19023 -0.116792 9.77662e-18)
(1.19967 -0.124995 1.88703e-17)
(1.2138 -0.125368 -1.91977e-17)
(1.23686 -0.130831 -6.68029e-18)
(1.26958 -0.122299 -1.37958e-18)
(1.29513 -0.117634 3.33891e-18)
(1.20284 -0.0550541 -3.14065e-17)
(0.584736 -0.0419694 2.74052e-17)
(1.1804 -0.105755 2.09903e-17)
(1.18524 -0.116679 7.26259e-19)
(1.18887 -0.118162 -7.22539e-18)
(1.19819 -0.127512 -7.25891e-20)
(1.21224 -0.129336 -2.35702e-17)
(1.23504 -0.137178 -4.14883e-18)
(1.26908 -0.132608 -5.79669e-18)
(1.30452 -0.135734 -1.78454e-17)
(1.23997 -0.0751518 -1.73741e-17)
(0.680449 -0.0618834 3.01991e-17)
(1.17911 -0.105607 9.4531e-18)
(1.1838 -0.117463 -2.91393e-18)
(1.18727 -0.119477 -2.85221e-18)
(1.19635 -0.12995 7.77208e-18)
(1.21014 -0.133146 -9.61971e-18)
(1.23226 -0.143222 -6.04306e-18)
(1.26675 -0.142439 -4.14779e-18)
(1.31046 -0.153275 -1.09444e-17)
(1.27313 -0.0969939 -2.93979e-17)
(0.784326 -0.084247 3.42118e-17)
(1.17768 -0.105407 3.54956e-19)
(1.1822 -0.118206 -3.22136e-18)
(1.18544 -0.120736 -5.43352e-18)
(1.19419 -0.132311 6.44013e-18)
(1.20749 -0.136805 -1.59863e-17)
(1.22846 -0.149026 -2.55456e-17)
(1.26254 -0.152012 -3.25356e-18)
(1.31237 -0.17034 -1.51406e-17)
(1.29878 -0.121405 -3.34241e-17)
(0.896085 -0.11 3.73425e-17)
(1.17612 -0.105146 4.2391e-18)
(1.18046 -0.118894 -3.74351e-18)
(1.18348 -0.121913 -6.1195e-18)
(1.1919 -0.134542 -6.23159e-18)
(1.20468 -0.140206 -1.48107e-17)
(1.22434 -0.154406 -5.86562e-18)
(1.25752 -0.16094 1.64819e-17)
(1.3101 -0.185801 -1.3275e-17)
(1.31652 -0.150049 -1.35157e-17)
(1.05241 -0.141407 4.23008e-17)
(1.17443 -0.104827 -1.07615e-17)
(1.17864 -0.11954 -1.83329e-17)
(1.18161 -0.123032 8.52015e-18)
(1.18993 -0.136681 -1.73491e-17)
(1.20266 -0.143406 -1.81113e-17)
(1.22183 -0.159467 1.79806e-18)
(1.25523 -0.169117 1.24762e-17)
(1.30848 -0.198874 -1.49215e-17)
(1.34258 -0.190705 -9.15917e-19)
(1.24355 -0.18679 -1.04545e-17)
(0.715369 0.000842294 8.62962e-22)
(0.606174 0.000984051 -1.51023e-20)
(0.587638 0.00115567 4.47955e-20)
(0.458396 0.00148362 -9.99516e-19)
(0.399341 0.00172455 9.39616e-19)
(0.242697 0.00233456 1.01267e-17)
(0.117436 0.0025069 -1.47716e-17)
(-0.0539209 0.00178046 3.15923e-17)
(-0.0747907 -0.00125232 2.57793e-17)
(0.129942 0.000357188 6.83451e-18)
(0.716758 0.00251805 -3.96393e-21)
(0.608212 0.00294056 1.63049e-20)
(0.589785 0.00343073 1.36585e-19)
(0.461424 0.00437538 -1.95542e-19)
(0.402673 0.00503172 2.94709e-19)
(0.247216 0.00665256 6.34054e-18)
(0.122673 0.00696239 -6.972e-18)
(-0.0479164 0.00456461 2.52999e-17)
(-0.0704112 -0.00422816 4.35175e-17)
(0.130048 0.00129025 -5.04512e-19)
(0.719508 0.00417648 -9.72792e-21)
(0.612243 0.00487563 4.78824e-21)
(0.594033 0.00567759 3.62395e-20)
(0.467411 0.00723603 5.0096e-19)
(0.409272 0.00831614 -2.00674e-19)
(0.256157 0.0110017 5.82369e-18)
(0.133053 0.0115357 -2.90777e-18)
(-0.0360272 0.00765192 3.34511e-17)
(-0.0617044 -0.00685474 2.35362e-17)
(0.130168 0.00225535 -9.10199e-18)
(0.723565 0.00580869 -1.89648e-20)
(0.618187 0.00678063 1.75557e-21)
(0.600299 0.00788709 -6.57699e-20)
(0.476228 0.0100514 -7.14975e-19)
(0.41901 0.0115416 -9.71162e-19)
(0.269329 0.0152494 -1.94697e-18)
(0.148378 0.0159722 -6.03326e-20)
(-0.0184534 0.0105676 2.00749e-17)
(-0.0486531 -0.00935665 1.31082e-17)
(0.130192 0.00343054 -2.25169e-17)
(0.728858 0.00740573 -4.56918e-20)
(0.625931 0.00864493 1.22851e-21)
(0.608466 0.0100443 -1.76769e-19)
(0.487696 0.0128024 -8.89024e-20)
(0.431705 0.0146873 -2.07008e-18)
(0.28646 0.0193939 -5.63407e-21)
(0.168373 0.0203249 2.04006e-18)
(0.00453997 0.0135257 1.78496e-17)
(-0.0312077 -0.0115286 1.00162e-17)
(0.129974 0.00483272 -4.6038e-17)
(0.735296 0.00895932 -9.45997e-20)
(0.635336 0.0104586 -2.68512e-21)
(0.618387 0.0121368 -7.10956e-20)
(0.501589 0.0154741 5.95386e-19)
(0.447129 0.017736 8.05074e-19)
(0.307213 0.0234107 1.72894e-18)
(0.192689 0.0245604 5.80628e-18)
(0.0326346 0.0164604 2.46516e-17)
(-0.00926586 -0.0133085 1.18791e-17)
(0.129359 0.00653208 -3.69557e-17)
(0.742773 0.0104621 -1.85222e-19)
(0.646234 0.0122128 1.05584e-20)
(0.629889 0.0141537 -1.00864e-20)
(0.517645 0.0180522 1.51852e-18)
(0.465009 0.0206697 3.99622e-18)
(0.331195 0.0272762 4.04491e-18)
(0.220924 0.0286604 1.16317e-17)
(0.0654707 0.0194039 4.40612e-17)
(0.0173284 -0.0146277 1.78374e-17)
(0.1282 0.00858558 -4.57782e-17)
(0.751169 0.0119076 -1.18055e-19)
(0.658442 0.0139003 5.21656e-21)
(0.64278 0.0160859 6.75464e-21)
(0.535571 0.0205245 8.65831e-19)
(0.485041 0.0234719 3.91837e-18)
(0.357974 0.030963 -2.58746e-18)
(0.252632 0.0325922 2.21361e-17)
(0.102658 0.0223412 4.61368e-17)
(0.048789 -0.0153548 3.59057e-17)
(0.126383 0.0110234 -2.68575e-17)
(0.760356 0.0132906 -1.24705e-19)
(0.671759 0.0155153 6.21784e-21)
(0.656851 0.0179302 4.95328e-21)
(0.555057 0.0228909 5.63345e-19)
(0.506898 0.0261484 5.99634e-18)
(0.387093 0.0344815 -9.83717e-18)
(0.287336 0.0363588 1.81362e-17)
(0.143789 0.0252271 3.30571e-17)
(0.0853891 -0.0155741 1.08954e-17)
(0.123854 0.0139778 -2.12278e-17)
(0.770197 0.0146086 -1.97942e-19)
(0.685978 0.0170522 9.64082e-21)
(0.671883 0.0196813 3.18175e-19)
(0.575784 0.0251426 4.01376e-19)
(0.53024 0.0286983 5.86541e-18)
(0.418085 0.0378759 -1.10389e-17)
(0.324543 0.0400579 2.32292e-17)
(0.188433 0.0282204 3.77369e-17)
(0.127459 -0.0156302 -1.01364e-17)
(0.120663 0.0177192 -2.64292e-17)
(1.00069 0.0082887 -5.07398e-20)
(1.00223 -0.011595 2.63135e-20)
(1.00058 0.00953117 7.10902e-20)
(1.00469 -0.0157179 1.10706e-20)
(1.00554 0.0133311 -3.3851e-20)
(1.01329 -0.0289715 3.4817e-19)
(1.02362 0.00140269 -9.16382e-19)
(1.03382 -0.0566935 5.28924e-18)
(1.07533 -0.0288695 -2.95287e-17)
(1.08849 -0.0923386 -3.04331e-18)
(1.00137 0.00717456 -8.35576e-20)
(1.0019 -0.0104929 -2.9217e-20)
(1.00075 0.00773789 1.6205e-20)
(1.00395 -0.0154976 9.86604e-20)
(1.00434 0.0104572 -3.17774e-19)
(1.01099 -0.0329073 9.88949e-19)
(1.01895 -0.00258962 6.58713e-19)
(1.0287 -0.0720495 -6.55406e-18)
(1.06818 -0.0374583 2.71478e-17)
(1.07667 -0.128208 -4.5463e-18)
(1.00229 0.00657579 4.572e-20)
(1.00125 -0.00982452 -5.71905e-20)
(1.00122 0.00691925 -5.81063e-20)
(1.00292 -0.015051 2.08034e-19)
(1.0036 0.00918203 -1.88064e-18)
(1.00882 -0.0331639 1.0933e-17)
(1.01515 -0.00330554 -6.88933e-18)
(1.02256 -0.076604 -1.52595e-17)
(1.06032 -0.0393187 9.64634e-19)
(1.0669 -0.144993 -2.66286e-17)
(1.00373 0.00562041 1.1549e-22)
(1.00004 -0.0087388 4.93286e-20)
(1.00218 0.00555213 -5.4817e-20)
(1.00119 -0.0142013 1.58895e-19)
(1.00314 0.00717481 -4.99049e-19)
(1.00543 -0.0341011 2.30642e-18)
(1.01007 -0.00578096 -9.69256e-18)
(1.01527 -0.0863768 4.14715e-18)
(1.0499 -0.0435656 -2.66922e-17)
(1.05344 -0.177787 2.08194e-17)
(1.0058 0.00473362 1.26879e-19)
(0.998138 -0.00763361 -5.48589e-19)
(1.00371 0.0044055 -2.07613e-20)
(0.998808 -0.0130525 5.72149e-19)
(1.00309 0.00550194 3.41097e-19)
(1.00171 -0.0334121 7.01755e-19)
(1.00513 -0.00707973 -2.46376e-18)
(1.00686 -0.0913852 1.2569e-17)
(1.03699 -0.0459926 -5.51601e-18)
(1.04072 -0.210715 3.71511e-17)
(1.00881 0.00375653 1.47299e-18)
(0.995159 -0.00634762 -7.78826e-18)
(1.00624 0.00314883 2.56231e-18)
(0.995299 -0.0115553 7.66608e-18)
(1.00399 0.00379915 5.97391e-18)
(0.996751 -0.0318891 8.44682e-19)
(0.999745 -0.00870731 2.25102e-18)
(0.997479 -0.0958532 9.24283e-18)
(1.0196 -0.0472695 2.7275e-19)
(1.02732 -0.251553 7.85277e-18)
(1.01308 0.00280014 5.19765e-18)
(0.99062 -0.00499422 4.64286e-19)
(1.0103 0.00195626 3.35651e-19)
(0.990082 -0.00965695 4.8344e-19)
(1.00653 0.00205941 5.43559e-19)
(0.990188 -0.0288269 2.08283e-19)
(0.99544 -0.0106081 3.03649e-19)
(0.986477 -0.0946617 -5.16344e-19)
(0.996863 -0.0526707 2.62652e-18)
(1.01173 -0.296099 -3.96289e-17)
(1.01868 0.00183711 3.2015e-19)
(0.984152 -0.00350021 9.35084e-20)
(1.01654 0.000698131 1.01304e-19)
(0.982135 -0.00751761 -3.87474e-20)
(1.01236 0.000476279 2.47123e-20)
(0.979838 -0.0250292 1.00284e-19)
(0.995014 -0.0110048 2.90405e-19)
(0.970453 -0.0932989 -1.34676e-18)
(0.96922 -0.0505619 5.57888e-18)
(1.00248 -0.370117 -2.18483e-17)
(1.02488 0.00116217 5.66158e-20)
(0.976511 -0.00237141 1.49213e-19)
(1.02428 -8.21178e-05 1.89669e-19)
(0.972021 -0.00543946 -5.37775e-20)
(1.02141 -0.000851215 4.26284e-20)