/*--------------------------------*- C++ -*----------------------------------*\
  =========                 |
  \\      /  F ield         | OpenFOAM: The Open Source CFD Toolbox
   \\    /   O peration     | Website:  https://openfoam.org
    \\  /    A nd           | Version:  7
     \\/     M anipulation  |
\*---------------------------------------------------------------------------*/
FoamFile
{
    version     2.0;
    format      ascii;
    class       volVectorField;
    location    "70";
    object      U;
}
// * * * * * * * * * * * * * * * * * * * * * * * * * * * * * * * * * * * * * //

dimensions      [0 1 -1 0 0 0 0];

internalField   nonuniform List<vector> 
7360
(
(-0.337933 -1.19257e-05 2.87388e-20)
(-0.337988 -7.39336e-05 8.98108e-20)
(-0.338177 -0.000161996 1.24702e-19)
(-0.33852 -0.000246916 5.94213e-19)
(-0.338989 -0.00031075 -2.53908e-19)
(-0.339538 -0.000345011 5.83732e-19)
(-0.340115 -0.00034619 4.87111e-19)
(-0.340667 -0.000314418 -4.2425e-19)
(-0.341144 -0.00025194 1.082e-18)
(-0.3415 -0.000162362 1.67415e-18)
(-0.341695 -4.9312e-05 1.73669e-19)
(-0.341698 8.18388e-05 1.24701e-18)
(-0.34148 0.000229152 1.22236e-18)
(-0.341019 0.000388119 1.90164e-18)
(-0.3403 0.000555547 3.95823e-19)
(-0.339313 0.000728442 1.76637e-18)
(-0.338052 0.000904033 4.43381e-18)
(-0.336515 0.0010798 -8.45723e-19)
(-0.334704 0.00125343 2.72311e-18)
(-0.332625 0.00142282 5.23678e-18)
(-0.330287 0.00158602 -5.13304e-19)
(-0.3277 0.00174124 3.50752e-19)
(-0.324879 0.00188678 3.53735e-18)
(-0.321841 0.00202093 -7.92144e-19)
(-0.318604 0.00214225 9.44173e-19)
(-0.315189 0.00224956 3.90657e-18)
(-0.311618 0.00234182 5.22767e-19)
(-0.307917 0.00241821 2.91404e-18)
(-0.304109 0.00247812 5.74346e-18)
(-0.30022 0.00252116 -2.30803e-19)
(-0.296278 0.00254722 1.65927e-18)
(-0.292309 0.00255639 1.11705e-18)
(-0.288337 0.00254905 -3.71222e-19)
(-0.28439 0.00252578 2.03953e-18)
(-0.280491 0.0024874 4.84699e-19)
(-0.276662 0.00243492 8.93774e-20)
(-0.272924 0.00236952 1.43589e-18)
(-0.269297 0.00229252 4.88436e-19)
(-0.265797 0.00220534 1.65408e-18)
(-0.262439 0.00210946 7.80472e-19)
(-0.259235 0.00200641 8.12046e-19)
(-0.256193 0.0018977 3.94892e-18)
(-0.253321 0.00178501 1.47635e-18)
(-0.250626 0.00166985 6.19436e-19)
(-0.248109 0.00155348 4.38584e-20)
(-0.245772 0.00143705 -1.6661e-18)
(-0.243616 0.00132156 3.20038e-18)
(-0.241636 0.00120786 1.03968e-19)
(-0.239831 0.00109668 -1.13126e-18)
(-0.238196 0.000988585 4.02319e-18)
(-0.236727 0.000884059 1.54756e-18)
(-0.235416 0.000783497 -1.11923e-18)
(-0.234258 0.000687244 -3.46789e-19)
(-0.233246 0.000595612 1.49551e-18)
(-0.232372 0.000508906 -5.19068e-21)
(-0.231629 0.000427443 1.09161e-18)
(-0.231009 0.000351548 7.32857e-19)
(-0.230501 0.000281551 3.72677e-18)
(-0.230097 0.000217776 2.13599e-18)
(-0.229788 0.000160516 3.9822e-19)
(-0.229561 0.000110026 3.66068e-18)
(-0.229408 6.64915e-05 4.34814e-18)
(-0.229317 3.00184e-05 1.71981e-18)
(-0.229278 -4.20565e-07 -1.55622e-19)
(-0.22928 -2.73443e-05 -2.2438e-18)
(-0.22931 -4.43607e-05 -3.97179e-18)
(-0.229359 -5.44896e-05 -3.49548e-19)
(-0.229417 -5.85188e-05 9.39801e-19)
(-0.229474 -5.64959e-05 1.71751e-18)
(-0.229518 -4.80382e-05 -2.41551e-19)
(-0.229541 -3.10686e-05 -3.41417e-18)
(-0.229533 -4.72768e-06 -2.45674e-18)
(-0.229483 2.55005e-05 -1.30451e-18)
(-0.229376 6.08191e-05 -4.44567e-18)
(-0.229204 0.000104797 1.20629e-18)
(-0.228951 0.000158289 -4.14354e-19)
(-0.228602 0.000222401 -2.63393e-18)
(-0.22814 0.000298639 -2.05078e-19)
(-0.227544 0.000388907 7.33746e-19)
(-0.226791 0.000495541 -1.51541e-18)
(-0.225853 0.000621441 -8.32599e-19)
(-0.224698 0.000770197 5.0286e-19)
(-0.223287 0.000946279 -7.7681e-18)
(-0.221574 0.00115531 -3.70005e-18)
(-0.219503 0.0014044 -3.87559e-18)
(-0.217008 0.0017027 6.30523e-19)
(-0.214003 0.00206203 -1.18563e-18)
(-0.21039 0.00249795 6.5017e-18)
(-0.206026 0.00303148 9.5461e-18)
(-0.200781 0.00368915 3.36366e-19)
(-0.194363 0.00451471 1.60478e-17)
(-0.186685 0.00553974 4.31709e-18)
(-0.176972 0.00690191 6.60079e-18)
(-0.165655 0.00850207 4.71831e-18)
(-0.15024 0.0109502 -2.43094e-18)
(-0.133277 0.0132019 1.27482e-19)
(-0.108493 0.0177847 7.72824e-18)
(-0.0813503 0.0197742 -7.72882e-18)
(-0.0465202 0.0235495 1.09824e-17)
(-0.0106307 0.0173662 -4.21549e-19)
(-0.341147 -3.82668e-06 -2.57614e-20)
(-0.341195 -2.43472e-05 3.9396e-20)
(-0.34137 -5.35231e-05 -1.45373e-19)
(-0.341693 -8.1845e-05 -4.6487e-20)
(-0.342139 -0.000103318 2.10396e-20)
(-0.342663 -0.000115047 -6.00076e-19)
(-0.343216 -0.000115797 3.00687e-19)
(-0.343744 -0.000105551 -1.13071e-19)
(-0.344199 -8.50065e-05 7.45685e-19)
(-0.344532 -5.53198e-05 -1.65506e-19)
(-0.344707 -1.76369e-05 1.16455e-19)
(-0.344689 2.60871e-05 -3.36064e-19)
(-0.344449 7.51745e-05 -3.49292e-19)
(-0.343965 0.000128278 -2.69009e-19)
(-0.343223 0.000184317 -8.45202e-19)
(-0.342211 0.000242273 -7.95386e-19)
(-0.340923 0.000301207 -7.00257e-19)
(-0.339359 0.000360264 -2.50516e-18)
(-0.337518 0.00041866 2.12564e-18)
(-0.335407 0.000475678 2.75035e-18)
(-0.333035 0.000530654 -8.37147e-19)
(-0.330412 0.000582973 7.43123e-19)
(-0.327554 0.000632085 8.19469e-19)
(-0.324477 0.00067741 6.97998e-19)
(-0.321199 0.00071843 -2.26598e-18)
(-0.317742 0.000754726 3.93146e-18)
(-0.314129 0.000785946 2.88085e-18)
(-0.310383 0.000811807 2.5316e-18)
(-0.30653 0.000832096 2.8286e-18)
(-0.302596 0.000846682 5.31754e-19)
(-0.298607 0.000855515 -2.88413e-19)
(-0.294592 0.000858632 -2.21695e-18)
(-0.290574 0.000856148 -7.70982e-19)
(-0.286581 0.000848264 1.88652e-18)
(-0.282636 0.000835251 3.31925e-18)
(-0.278763 0.00081745 -1.94116e-19)
(-0.274982 0.000795258 6.12004e-19)
(-0.271314 0.000769121 -6.24702e-19)
(-0.267774 0.000739519 -9.03466e-19)
(-0.264377 0.000706955 7.13875e-21)
(-0.261136 0.000671947 1.31551e-18)
(-0.258061 0.000634961 2.56912e-18)
(-0.255158 0.000596537 2.85963e-18)
(-0.252434 0.000557222 -2.48362e-19)
(-0.249892 0.000517455 -7.96746e-20)
(-0.247532 0.000477625 -2.2303e-18)
(-0.245356 0.000438069 1.68933e-18)
(-0.24336 0.000399075 -9.17593e-19)
(-0.241541 0.000360883 -5.74317e-19)
(-0.239896 0.000323686 1.13766e-18)
(-0.238419 0.000287644 2.93324e-19)
(-0.237105 0.000252889 -1.30916e-18)
(-0.235947 0.000219535 -2.72179e-18)
(-0.234939 0.000187687 3.05125e-18)
(-0.234073 0.00015745 3.28891e-18)
(-0.233341 0.000128933 3.14845e-18)
(-0.232735 0.000102252 8.7775e-19)
(-0.232246 7.75286e-05 4.49553e-18)
(-0.231865 5.4885e-05 -2.21719e-18)
(-0.231582 3.44405e-05 -2.63012e-18)
(-0.231387 1.63056e-05 3.23446e-18)
(-0.231268 5.68845e-07 6.25207e-18)
(-0.231216 -1.27512e-05 2.39776e-18)
(-0.23122 -2.45337e-05 -4.1611e-18)
(-0.231268 -3.29696e-05 -2.44486e-18)
(-0.231348 -4.00798e-05 -2.30102e-18)
(-0.231451 -4.51426e-05 -6.0539e-18)
(-0.231565 -4.74655e-05 2.45881e-18)
(-0.231681 -4.70536e-05 1.49601e-18)
(-0.231789 -4.44071e-05 4.48773e-19)
(-0.231879 -4.0553e-05 -5.12905e-19)
(-0.23194 -3.51149e-05 -4.63056e-18)
(-0.231961 -2.45394e-05 -1.19103e-18)
(-0.231931 -1.41114e-05 -1.17927e-18)
(-0.231835 -7.4872e-07 -3.89528e-18)
(-0.231662 1.59685e-05 -4.52139e-18)
(-0.231395 3.63628e-05 -6.06586e-18)
(-0.231017 6.09396e-05 -5.40347e-19)
(-0.230506 9.0352e-05 9.16457e-19)
(-0.22984 0.000125407 -1.8009e-19)
(-0.22899 0.000167106 -4.25865e-19)
(-0.227924 0.000216691 6.02988e-18)
(-0.226601 0.000275707 -4.09458e-19)
(-0.224974 0.000346095 -6.63058e-18)
(-0.222987 0.000430309 -3.02958e-18)
(-0.22057 0.000531495 5.99822e-18)
(-0.217636 0.000653736 1.12637e-18)
(-0.214083 0.000802322 5.16381e-18)
(-0.209763 0.000984534 5.98261e-18)
(-0.204541 0.00120918 1.12957e-18)
(-0.198113 0.00149159 5.50578e-18)
(-0.190381 0.00184114 1.10861e-17)
(-0.180549 0.00230773 2.67905e-18)
(-0.169012 0.00285665 9.02585e-18)
(-0.153286 0.00370708 -3.76325e-18)
(-0.135719 0.00447669 -7.63063e-19)
(-0.11029 0.00604628 8.45257e-18)
(-0.0819922 0.00672915 -3.72433e-18)
(-0.0458511 0.00794673 -1.02816e-18)
(-0.0101158 0.00578568 -6.27727e-20)
(-0.322551 -3.79057e-05 -2.33923e-20)
(-0.322652 -0.000195929 3.02415e-19)
(-0.322915 -0.000415278 8.25045e-21)
(-0.323364 -0.000621193 6.77935e-19)
(-0.323952 -0.000772653 8.30067e-20)
(-0.324622 -0.000852094 3.40725e-20)
(-0.325318 -0.000853231 -3.74488e-19)
(-0.325983 -0.000777732 -1.62254e-18)
(-0.326568 -0.000631723 7.48418e-19)
(-0.327027 -0.000423873 5.59447e-19)
(-0.327324 -0.000163051 -1.5628e-18)
(-0.327427 0.000138785 3.61486e-19)
(-0.327313 0.000476261 -1.4665e-18)
(-0.326958 0.000839531 2.1107e-18)
(-0.326351 0.00122157 -1.03598e-18)
(-0.325483 0.00161557 5.15497e-19)
(-0.324348 0.00201532 1.32557e-18)
(-0.322946 0.00241514 -2.83158e-18)
(-0.321279 0.00280985 1.92492e-18)
(-0.319353 0.0031947 -1.11116e-19)
(-0.317175 0.00356531 8.36717e-19)
(-0.314758 0.00391762 2.35573e-18)
(-0.312116 0.0042478 -4.56819e-19)
(-0.309263 0.00455186 -2.65419e-18)
(-0.306219 0.00482665 1.43057e-18)
(-0.303004 0.00506946 8.94729e-19)
(-0.299638 0.00527797 2.87252e-18)
(-0.296146 0.0054503 3.64426e-18)
(-0.292551 0.00558509 1.95093e-18)
(-0.288878 0.00568152 2.78992e-18)
(-0.285154 0.00573932 9.99295e-19)
(-0.281402 0.00575881 -1.25858e-18)
(-0.277649 0.00574086 -2.30245e-18)
(-0.273917 0.00568687 -4.51002e-19)
(-0.270229 0.00559875 2.15563e-18)
(-0.266608 0.00547887 4.59344e-19)
(-0.263072 0.00532996 1.93515e-18)
(-0.25964 0.00515505 9.78136e-19)
(-0.256327 0.00495743 2.06134e-19)
(-0.253145 0.00474051 5.39889e-19)
(-0.250107 0.00450771 -9.61502e-19)
(-0.24722 0.00426227 1.41938e-18)
(-0.244492 0.00400823 -1.65449e-19)
(-0.241926 0.00374907 5.24006e-19)
(-0.239525 0.00348762 -8.87736e-19)
(-0.23729 0.00322642 1.90192e-18)
(-0.23522 0.00296773 1.92086e-18)
(-0.233312 0.00271344 -2.73494e-19)
(-0.231563 0.00246517 2.74042e-18)
(-0.229968 0.00222423 -2.99327e-19)
(-0.228522 0.0019917 2.69372e-18)
(-0.227218 0.00176849 2.24187e-18)
(-0.22605 0.0015554 9.56013e-19)
(-0.22501 0.00135316 -3.93711e-19)
(-0.224091 0.00116248 8.83143e-19)
(-0.223284 0.000984079 4.03801e-19)
(-0.222581 0.000818682 3.04571e-18)
(-0.221971 0.000667012 -2.30691e-19)
(-0.221446 0.000529751 5.09982e-19)
(-0.220995 0.000407496 2.95725e-18)
(-0.220608 0.000300718 4.54501e-19)
(-0.220275 0.000209719 -2.3984e-19)
(-0.219985 0.000134577 -3.43173e-18)
(-0.219727 7.55039e-05 1.18014e-19)
(-0.21949 3.39745e-05 4.18771e-18)
(-0.219265 4.29991e-06 5.6834e-19)
(-0.219043 -1.0521e-05 -1.06739e-18)
(-0.218814 -1.05238e-05 3.61048e-18)
(-0.218567 4.13027e-06 7.94611e-19)
(-0.218291 3.37086e-05 9.76815e-19)
(-0.217978 7.62184e-05 5.58249e-18)
(-0.217618 0.000131257 5.40462e-18)
(-0.217202 0.000204366 5.75734e-18)
(-0.216719 0.000295115 4.24666e-18)
(-0.216156 0.000404802 1.15188e-18)
(-0.215499 0.000535793 7.81681e-18)
(-0.214736 0.00069095 7.57929e-18)
(-0.213848 0.000873785 3.66766e-18)
(-0.212818 0.00108868 4.20751e-18)
(-0.211622 0.00134094 -3.33944e-19)
(-0.210237 0.00163715 -2.25864e-18)
(-0.208633 0.00198539 -5.4525e-19)
(-0.206775 0.00239572 -3.93426e-18)
(-0.204623 0.00288076 -2.81154e-18)
(-0.202128 0.0034564 -3.90179e-18)
(-0.199233 0.00414304 -3.73408e-18)
(-0.195865 0.00496696 3.11933e-18)
(-0.191943 0.00596272 6.26624e-18)
(-0.187352 0.00717638 8.47349e-19)
(-0.181986 0.00866794 6.40795e-18)
(-0.175616 0.0105284 1.20302e-17)
(-0.168203 0.0128404 3.66618e-18)
(-0.159085 0.0158691 6.61327e-18)
(-0.148853 0.0194541 1.01855e-17)
(-0.13504 0.0248277 4.12305e-18)
(-0.121079 0.0297412 6.52716e-18)
(-0.0995599 0.0397839 6.37706e-18)
(-0.0784642 0.0432068 1.66168e-18)
(-0.0496323 0.0520421 3.15686e-19)
(-0.0128598 0.0352096 4.10321e-18)
(-0.331642 -2.28286e-05 -9.08239e-21)
(-0.331714 -0.000130453 2.72135e-19)
(-0.331932 -0.000281784 -1.9896e-19)
(-0.332316 -0.000426237 6.93904e-19)
(-0.332832 -0.000534073 4.72089e-19)
(-0.33343 -0.000591746 7.9702e-19)
(-0.334056 -0.000593924 9.18536e-19)
(-0.334654 -0.000541193 -1.3096e-18)
(-0.335175 -0.000437524 2.9774e-19)
(-0.335573 -0.000288947 1.77988e-18)
(-0.33581 -0.000101521 -1.83939e-19)
(-0.335854 0.000115858 4.55496e-19)
(-0.335679 0.000359105 -8.72434e-20)
(-0.335261 0.000621596 1.11439e-18)
(-0.334588 0.000898095 1.37155e-18)
(-0.333649 0.00118361 2.256e-18)
(-0.33244 0.00147356 3.79997e-18)
(-0.330958 0.0017638 -2.30868e-18)
(-0.329206 0.00205053 2.70894e-18)
(-0.327189 0.00233028 1.8912e-18)
(-0.324917 0.00259983 2.01457e-18)
(-0.322399 0.00285622 1.17945e-18)
(-0.319652 0.00309669 -6.73649e-19)
(-0.31669 0.00331831 6.1622e-19)
(-0.313532 0.00351873 6.87451e-19)
(-0.310199 0.00369596 3.12292e-18)
(-0.306712 0.00384829 3.03423e-18)
(-0.303097 0.00397435 2.24267e-18)
(-0.299376 0.00407311 4.20357e-18)
(-0.295577 0.00414396 1.33713e-18)
(-0.291724 0.00418669 1.02208e-18)
(-0.287845 0.00420148 9.91574e-20)
(-0.283963 0.00418894 -8.10103e-19)
(-0.280105 0.00415008 3.13085e-19)
(-0.276293 0.00408624 2.26005e-18)
(-0.27255 0.00399912 5.03653e-19)
(-0.268896 0.00389069 -3.8276e-19)
(-0.26535 0.00376314 1.73211e-18)
(-0.261927 0.00361885 2.03126e-18)
(-0.258643 0.00346026 1.9071e-18)
(-0.255507 0.0032899 1.47043e-18)
(-0.25253 0.00311015 1.7701e-18)
(-0.249719 0.00292385 6.20167e-19)
(-0.247078 0.00273355 1.74664e-18)
(-0.24461 0.00254132 -6.97474e-20)
(-0.242317 0.00234903 1.41041e-18)
(-0.240197 0.00215834 3.12773e-19)
(-0.238248 0.00197064 -5.41269e-20)
(-0.236468 0.00178711 1.92835e-18)
(-0.234851 0.00160871 2.84929e-18)
(-0.233393 0.00143625 3.14792e-18)
(-0.232087 0.00127038 2.30718e-18)
(-0.230927 0.00111169 2.07927e-18)
(-0.229906 0.00096071 2.24459e-18)
(-0.229016 0.000817963 2.28196e-18)
(-0.228249 0.000683987 6.87571e-19)
(-0.227597 0.000559333 1.19442e-18)
(-0.22705 0.000444558 1.21765e-18)
(-0.226599 0.000340198 8.51785e-19)
(-0.226234 0.000246738 3.3118e-18)
(-0.225945 0.000164581 1.64955e-18)
(-0.225721 9.40193e-05 -1.03528e-18)
(-0.225551 3.52762e-05 1.90966e-18)
(-0.225424 -1.11429e-05 2.67995e-18)
(-0.225331 -4.8695e-05 3.51719e-18)
(-0.225262 -7.83903e-05 -6.04404e-19)
(-0.225203 -9.57235e-05 -3.53977e-18)
(-0.225146 -0.000100662 9.38763e-19)
(-0.225081 -9.35462e-05 4.11371e-18)
(-0.224999 -7.48862e-05 -2.52133e-18)
(-0.224891 -4.7126e-05 4.22642e-19)
(-0.224743 -9.87514e-06 -2.56641e-18)
(-0.224545 3.64794e-05 -2.62767e-18)
(-0.224289 9.63134e-05 -2.81927e-19)
(-0.223961 0.000170178 -3.3064e-18)
(-0.223547 0.000259567 1.91861e-18)
(-0.223033 0.000366564 -2.67264e-18)
(-0.222402 0.000493743 7.09306e-19)
(-0.221633 0.000644313 1.6881e-18)
(-0.220704 0.00082219 -5.10335e-18)
(-0.219589 0.00103221 -1.41184e-18)
(-0.218255 0.00128036 -4.86016e-18)
(-0.216667 0.00157407 -9.50503e-18)
(-0.21478 0.00192267 -2.96446e-18)
(-0.212541 0.00233793 -8.10736e-18)
(-0.209887 0.00283497 -2.00782e-18)
(-0.206738 0.00343327 -5.18088e-18)
(-0.203003 0.00415833 -2.31398e-18)
(-0.198549 0.00504455 2.72307e-18)
(-0.193257 0.00613531 -3.7028e-18)
(-0.186858 0.00750071 8.07427e-18)
(-0.179286 0.00919483 -2.7313e-18)
(-0.169803 0.0114389 -2.40455e-18)
(-0.15891 0.0140831 4.22968e-18)
(-0.144121 0.0181129 -5.30646e-18)
(-0.12835 0.0217705 1.66392e-18)
(-0.104869 0.0292727 -1.59046e-18)
(-0.0801239 0.0321659 -7.78267e-18)
(-0.0479787 0.038328 2.84105e-18)
(-0.0117227 0.0269314 -3.80075e-18)
(-0.297622 -9.29485e-05 -5.7301e-20)
(-0.297835 -0.000377172 1.18579e-19)
(-0.298251 -0.000754061 4.66017e-19)
(-0.2989 -0.00109172 4.25861e-19)
(-0.299699 -0.00133 -3.83842e-19)
(-0.300575 -0.00144855 -3.9226e-19)
(-0.301467 -0.00144283 -9.29334e-20)
(-0.302316 -0.00131883 -1.26566e-18)
(-0.303074 -0.00108812 -1.65972e-19)
(-0.3037 -0.000764767 8.97166e-19)
(-0.304158 -0.000363284 -2.274e-18)
(-0.304423 9.94429e-05 -9.36099e-20)
(-0.304473 0.000613005 -1.91576e-20)
(-0.304291 0.00116336 -1.10215e-18)
(-0.303865 0.00174054 -2.22612e-18)
(-0.30319 0.00233442 1.15651e-19)
(-0.30226 0.00293583 -1.85648e-18)
(-0.301076 0.00353642 -2.94126e-18)
(-0.299641 0.00412857 -2.41259e-18)
(-0.29796 0.00470532 2.43129e-18)
(-0.296042 0.00526023 1.47206e-18)
(-0.293898 0.00578726 -1.32681e-18)
(-0.29154 0.00628015 -1.89673e-18)
(-0.288984 0.00673341 -1.29158e-18)
(-0.286246 0.00714254 -3.82124e-19)
(-0.283346 0.00750347 -2.18716e-18)
(-0.280304 0.00781274 7.61227e-19)
(-0.277142 0.00806758 1.35508e-18)
(-0.273882 0.00826603 3.99532e-19)
(-0.270548 0.00840693 3.14655e-18)
(-0.267164 0.00849003 8.45869e-19)
(-0.263751 0.00851591 5.18799e-19)
(-0.260335 0.00848603 -2.31961e-18)
(-0.256936 0.00840266 -7.97855e-19)
(-0.253575 0.0082688 1.40466e-19)
(-0.250272 0.00808813 1.10951e-19)
(-0.247043 0.00786487 6.23094e-19)
(-0.243906 0.00760365 2.97418e-19)
(-0.240873 0.00730942 -2.08421e-18)
(-0.237957 0.00698729 -1.1968e-18)
(-0.235164 0.00664257 -4.27191e-19)
(-0.232505 0.00628128 -3.84199e-19)
(-0.229982 0.00590853 -6.43774e-19)
(-0.2276 0.00552914 -1.34856e-19)
(-0.22536 0.00514712 9.62581e-19)
(-0.223261 0.00476626 5.78123e-19)
(-0.221302 0.00438992 4.28748e-19)
(-0.219479 0.00402095 -4.56255e-19)
(-0.217789 0.00366175 8.02616e-19)
(-0.216225 0.0033143 9.24517e-19)
(-0.214781 0.00298024 -1.85918e-19)
(-0.213452 0.002661 -1.32035e-18)
(-0.212229 0.00235785 4.28628e-19)
(-0.211104 0.00207194 6.47711e-19)
(-0.210069 0.00180436 1.09597e-18)
(-0.209114 0.00155621 3.80665e-19)
(-0.208231 0.00132856 3.88887e-18)
(-0.207408 0.00112239 4.20467e-18)
(-0.206637 0.000938603 8.34603e-19)
(-0.205907 0.000777912 8.115e-19)
(-0.205207 0.000640805 -3.78115e-18)
(-0.204527 0.000527507 4.88951e-19)
(-0.203857 0.000437996 -4.426e-18)
(-0.203187 0.000372131 -8.23429e-19)
(-0.202507 0.000329586 -3.11993e-20)
(-0.201808 0.000308862 1.46851e-19)
(-0.201081 0.000309846 -3.53704e-19)
(-0.200317 0.000332834 2.64409e-20)
(-0.199507 0.000377708 1.10409e-18)
(-0.198641 0.000444165 6.22508e-18)
(-0.197711 0.00053202 3.59418e-18)
(-0.196707 0.000642159 3.0505e-18)
(-0.195621 0.000776953 3.03564e-18)
(-0.194442 0.000938265 4.33613e-18)
(-0.193158 0.00112862 3.65164e-18)
(-0.191757 0.00135148 9.72795e-18)
(-0.190226 0.00161119 1.04659e-17)
(-0.188551 0.00191301 5.22578e-18)
(-0.186714 0.00226351 1.26447e-17)
(-0.184697 0.00267055 2.79637e-18)
(-0.18248 0.00314381 6.22698e-19)
(-0.180037 0.00369516 -1.79953e-18)
(-0.177342 0.00433924 -7.34648e-18)
(-0.174364 0.00509429 -1.01178e-17)
(-0.171067 0.0059832 -8.99317e-18)
(-0.167411 0.00703508 -1.60125e-18)
(-0.163348 0.00828704 -7.26991e-18)
(-0.158826 0.00978769 2.54002e-18)
(-0.153777 0.0116001 -7.0772e-18)
(-0.148149 0.0138089 8.80281e-18)
(-0.141817 0.0165276 -1.90336e-18)
(-0.134826 0.0198955 8.10793e-18)
(-0.126755 0.0242081 -4.41989e-19)
(-0.11839 0.0293953 9.29365e-18)
(-0.107568 0.0367781 1.53874e-19)
(-0.0988019 0.0436208 6.64281e-18)
(-0.0832889 0.0570964 8.74965e-19)
(-0.0736359 0.0600395 -1.0847e-17)
(-0.0531031 0.074202 -9.68056e-18)
(-0.0164127 0.0421439 -3.0385e-18)
(-0.311047 -6.05305e-05 -3.15316e-20)
(-0.311193 -0.00027754 2.64541e-19)
(-0.311522 -0.000572669 1.72567e-19)
(-0.312059 -0.000843973 3.95296e-19)
(-0.312742 -0.00104006 -4.81326e-19)
(-0.313506 -0.00114089 -7.58603e-19)
(-0.314292 -0.00114034 -2.01893e-19)
(-0.315043 -0.00104184 -9.80217e-19)
(-0.315708 -0.000854004 8.3482e-20)
(-0.316244 -0.00058811 -4.88097e-19)
(-0.316615 -0.000255579 -1.34127e-18)
(-0.316794 0.0001296 1.16944e-18)
(-0.316756 0.000555819 -3.65405e-19)
(-0.316481 0.00101479 1.71067e-18)
(-0.315958 0.00149734 -8.14898e-19)
(-0.315179 0.00199465 9.52422e-20)
(-0.314139 0.00249888 -6.28713e-20)
(-0.312838 0.00300294 -1.86891e-18)
(-0.311278 0.00350032 -5.78117e-19)
(-0.309465 0.00398508 2.33223e-18)
(-0.307408 0.00445171 1.0044e-18)
(-0.305117 0.00489514 5.32715e-19)
(-0.302607 0.00531061 -2.35839e-18)
(-0.299892 0.00569304 -3.25959e-18)
(-0.29699 0.00603851 -8.72857e-21)
(-0.293922 0.00634357 -4.91465e-19)
(-0.290707 0.00660528 1.0501e-18)
(-0.287368 0.00682131 3.29174e-18)
(-0.28393 0.00698994 1.03836e-18)
(-0.280416 0.00711016 1.99452e-18)
(-0.27685 0.00718169 8.28168e-19)
(-0.273258 0.00720496 -1.43254e-19)
(-0.269662 0.00718112 -1.47807e-18)
(-0.266086 0.00711202 -5.84215e-19)
(-0.262552 0.00700011 6.84057e-19)
(-0.259081 0.00684843 2.36074e-19)
(-0.25569 0.00666047 2.16452e-18)
(-0.252397 0.00644012 6.56735e-19)
(-0.249217 0.00619153 -1.85082e-18)
(-0.246161 0.00591905 -3.88816e-19)
(-0.24324 0.00562698 -4.77586e-19)
(-0.240462 0.00531946 -9.93984e-19)
(-0.237833 0.00500142 -1.6919e-18)
(-0.235356 0.0046772 -9.33199e-20)
(-0.233034 0.00435036 1.39973e-18)
(-0.230866 0.00402412 9.06432e-19)
(-0.228852 0.0037013 8.17841e-19)
(-0.226988 0.00338435 -1.58228e-18)
(-0.225271 0.00307528 2.37664e-18)
(-0.223696 0.00277577 4.62171e-19)
(-0.222257 0.0024872 8.47032e-19)
(-0.220947 0.00221078 -1.24756e-18)
(-0.21976 0.00194753 2.89943e-19)
(-0.218687 0.00169842 1.85585e-18)
(-0.217722 0.00146435 7.73195e-19)
(-0.216853 0.00124624 3.17025e-19)
(-0.216074 0.00104501 2.2962e-18)
(-0.215374 0.000861526 3.45796e-18)
(-0.214743 0.000696572 7.98485e-19)
(-0.214171 0.000550807 -1.00861e-18)
(-0.213648 0.000424687 -1.025e-18)
(-0.213164 0.000318435 -5.07122e-20)
(-0.212708 0.00023201 -4.99351e-18)
(-0.212269 0.000165049 -7.3704e-19)
(-0.211838 0.000117104 1.15514e-18)
(-0.211405 8.97584e-05 3.58337e-19)
(-0.21096 8.02634e-05 -4.76383e-19)
(-0.210494 8.75836e-05 1.08223e-18)
(-0.209998 0.000111442 -2.59273e-18)
(-0.209462 0.000152125 5.36001e-18)
(-0.208878 0.000211745 6.83399e-18)
(-0.208234 0.000291779 6.90987e-18)
(-0.207522 0.000391769 7.27057e-18)
(-0.206731 0.000513435 -6.16221e-19)
(-0.20585 0.000659119 5.53839e-18)
(-0.204866 0.000831789 1.00876e-17)
(-0.203764 0.0010351 1.12057e-17)
(-0.202529 0.00127353 8.38442e-18)
(-0.201144 0.00155265 1.06804e-17)
(-0.199587 0.0018792 2.11188e-18)
(-0.197836 0.00226145 -5.32005e-18)
(-0.195863 0.00270961 3.89153e-18)
(-0.193638 0.00323633 -3.01379e-18)
(-0.191124 0.0038574 -4.10121e-18)
(-0.188279 0.00459272 -4.67467e-18)
(-0.185051 0.00546772 -7.55883e-18)
(-0.181381 0.006515 -1.9505e-18)
(-0.1772 0.00777729 2.71513e-18)
(-0.172414 0.00931096 -1.74749e-18)
(-0.166942 0.0111897 5.08763e-18)
(-0.160599 0.0135202 9.77912e-18)
(-0.153385 0.0164101 1.09635e-17)
(-0.144735 0.0201568 3.20203e-18)
(-0.135334 0.0246262 6.28867e-18)
(-0.122853 0.0311925 -4.4843e-18)
(-0.111231 0.0371593 -2.16685e-18)
(-0.0923941 0.0493006 1.93521e-18)
(-0.0763498 0.0525734 -7.97343e-18)
(-0.051734 0.0636514 -3.07666e-18)
(-0.0144807 0.0394717 1.43711e-19)
(-0.267291 -0.000201745 -2.54581e-20)
(-0.267722 -0.000655122 6.29717e-20)
(-0.268375 -0.00121052 3.7827e-19)
(-0.269304 -0.00168166 3.53321e-19)
(-0.270381 -0.00199542 -1.06342e-18)
(-0.271516 -0.00213849 -2.87578e-19)
(-0.272644 -0.00211409 1.0192e-20)
(-0.273711 -0.00193489 -1.03534e-19)
(-0.274672 -0.00161877 7.45269e-20)
(-0.275492 -0.00118507 -1.01415e-18)
(-0.276142 -0.000652716 -1.77004e-18)
(-0.276596 -3.58935e-05 -5.80169e-19)
(-0.27684 0.000625625 9.05578e-19)
(-0.276864 0.00133674 -1.96404e-18)
(-0.276655 0.00208158 -6.86867e-19)
(-0.27621 0.00284646 2.26975e-18)
(-0.275525 0.00361971 -1.70708e-18)
(-0.274601 0.00439078 -1.87607e-18)
(-0.273441 0.00515008 1.42714e-18)
(-0.272052 0.00588882 6.51082e-19)
(-0.27044 0.0065989 2.03951e-19)
(-0.268616 0.00727267 -1.63226e-19)
(-0.266592 0.00790199 -2.30655e-18)
(-0.264381 0.00848008 1.59876e-18)
(-0.262 0.00900087 -1.90364e-18)
(-0.259466 0.00945916 -5.06276e-19)
(-0.256798 0.00985059 1.08356e-18)
(-0.254015 0.0101717 7.74111e-19)
(-0.25114 0.0104202 -1.69299e-18)
(-0.248191 0.0105947 1.19377e-18)
(-0.245192 0.0106951 5.65939e-19)
(-0.242164 0.0107225 2.44207e-18)
(-0.239126 0.0106789 1.51094e-18)
(-0.236099 0.0105677 -1.71484e-18)
(-0.2331 0.0103929 -3.78176e-20)
(-0.230147 0.0101594 1.77985e-19)
(-0.227255 0.00987312 -1.50761e-18)
(-0.224436 0.00954005 3.18501e-20)
(-0.221703 0.00916677 -9.43488e-20)
(-0.219064 0.00875998 -2.45865e-18)
(-0.216526 0.00832621 -3.32562e-19)
(-0.214095 0.007872 1.46563e-20)
(-0.211775 0.00740485 1.13551e-19)
(-0.209566 0.00693106 1.21579e-20)
(-0.207468 0.00645622 4.02381e-18)
(-0.205479 0.00598509 8.79427e-19)
(-0.203596 0.00552184 3.07089e-19)
(-0.201816 0.00507003 -1.2899e-20)
(-0.200133 0.00463263 3.09846e-19)
(-0.19854 0.00421214 1.18572e-18)
(-0.19703 0.00381066 -2.81598e-19)
(-0.195596 0.0034301 -1.98192e-18)
(-0.194229 0.00307213 3.63069e-19)
(-0.192919 0.00273827 -9.15034e-19)
(-0.191658 0.00242989 9.37211e-19)
(-0.190434 0.00214835 4.54866e-19)
(-0.189238 0.00189484 1.86747e-18)
(-0.188059 0.00167043 1.27904e-18)
(-0.186887 0.00147596 5.77922e-19)
(-0.185711 0.00131202 1.58958e-18)
(-0.18452 0.00117887 -1.17561e-18)
(-0.183305 0.00107646 1.30172e-18)
(-0.182055 0.00100447 -2.042e-19)
(-0.180762 0.000962417 1.71336e-21)
(-0.179415 0.000949625 -3.32701e-18)
(-0.178007 0.000965124 -9.66693e-20)
(-0.176528 0.00100832 2.30709e-19)
(-0.174971 0.00107913 -3.57336e-18)
(-0.173326 0.00117747 -1.29578e-18)
(-0.171585 0.0013035 5.41019e-18)
(-0.16974 0.00145789 1.42516e-18)
(-0.167781 0.00164209 6.8218e-19)
(-0.165699 0.0018584 5.40653e-19)
(-0.163484 0.00210957 6.63961e-19)
(-0.161127 0.00239918 -2.84011e-18)
(-0.158614 0.00273181 7.07683e-18)
(-0.155935 0.00311308 3.28114e-18)
(-0.153076 0.00354985 7.83209e-18)
(-0.150024 0.00405053 1.12513e-17)
(-0.146764 0.00462509 2.26423e-18)
(-0.143279 0.00528578 2.9806e-18)
(-0.139553 0.00604751 2.78643e-18)
(-0.135568 0.00692855 -5.51932e-19)
(-0.131305 0.00795154 2.83455e-18)
(-0.126745 0.00914459 -1.07029e-18)
(-0.121871 0.0105432 1.93493e-18)
(-0.116665 0.012192 -4.00437e-19)
(-0.111117 0.0141488 2.65569e-18)
(-0.105221 0.0164874 7.46047e-19)
(-0.0989968 0.0193051 9.44779e-18)
(-0.0924605 0.0227221 -1.03402e-19)
(-0.0857633 0.0269118 -1.05061e-18)
(-0.0788218 0.0320626 -3.40576e-18)
(-0.0725657 0.0383146 1.17991e-18)
(-0.0655718 0.0463029 9.4135e-18)
(-0.0631133 0.0542801 1.62822e-18)
(-0.0557327 0.0668622 -3.37514e-20)
(-0.0624142 0.0692617 -2.61788e-18)
(-0.0512044 0.082832 -2.69368e-18)
(-0.0329726 0.0363766 -2.84266e-18)
(-0.282835 -0.000139444 -3.02747e-20)
(-0.283142 -0.00050381 1.72946e-19)
(-0.283668 -0.000968676 5.19669e-19)
(-0.284449 -0.00137444 6.68136e-19)
(-0.285382 -0.00165298 -8.70498e-19)
(-0.286384 -0.0017863 -3.33753e-19)
(-0.287392 -0.00177305 -6.18221e-20)
(-0.288348 -0.00162233 -4.67448e-19)
(-0.289206 -0.00134885 -6.95147e-20)
(-0.289928 -0.000969345 1.10958e-20)
(-0.290479 -0.000500579 -2.52864e-18)
(-0.290839 4.36155e-05 -4.76979e-19)
(-0.290987 0.000630483 3.07921e-19)
(-0.290905 0.00126389 -1.04511e-18)
(-0.290586 0.00192823 -1.13386e-18)
(-0.290023 0.00261127 7.6619e-19)
(-0.289214 0.00330256 -1.13088e-18)
(-0.288158 0.0039926 -1.69819e-18)
(-0.286859 0.00467276 -5.51716e-19)
(-0.285322 0.0053351 9.14217e-19)
(-0.283555 0.00597236 2.31574e-18)
(-0.281569 0.00657758 -1.64135e-19)
(-0.279376 0.00714266 -3.18549e-18)
(-0.276991 0.00766161 -2.2127e-19)
(-0.27443 0.00812952 -8.13415e-19)
(-0.271711 0.00854176 -1.08424e-18)
(-0.268855 0.0088944 2.1874e-18)
(-0.265882 0.00918432 9.24706e-19)
(-0.262813 0.0094093 -3.8833e-19)
(-0.259671 0.00956811 2.92472e-18)
(-0.256479 0.00966054 6.99979e-19)
(-0.253258 0.00968738 1.12062e-18)
(-0.250031 0.00965042 -1.55738e-18)
(-0.246818 0.00955236 -9.98433e-19)
(-0.243639 0.00939679 -1.03788e-19)
(-0.240512 0.00918802 6.33982e-20)
(-0.237454 0.00893097 -2.88333e-19)
(-0.234478 0.00863104 1.00922e-19)
(-0.231597 0.00829393 -7.22841e-19)
(-0.228822 0.00792546 -2.56528e-18)
(-0.226161 0.00753151 -5.15203e-19)
(-0.22362 0.00711917 -2.05997e-19)
(-0.221204 0.00669529 -1.81421e-19)
(-0.218914 0.0062652 -1.14956e-19)
(-0.21675 0.00583332 1.725e-18)
(-0.214713 0.00540385 6.48514e-19)
(-0.2128 0.00498058 3.15395e-19)
(-0.211007 0.0045667 -1.15213e-19)
(-0.209329 0.00416494 3.47845e-19)
(-0.207761 0.00377751 2.25876e-18)
(-0.206296 0.0034063 -1.52096e-18)
(-0.204927 0.00305296 -2.89728e-18)
(-0.203645 0.00271893 1.75423e-18)
(-0.202442 0.00240551 8.79211e-20)
(-0.201309 0.00211394 2.48218e-18)
(-0.200237 0.00184541 5.06443e-19)
(-0.199215 0.00160104 3.92543e-18)
(-0.198234 0.00138185 2.17141e-18)
(-0.197283 0.0011887 6.84239e-19)
(-0.196351 0.00102222 3.05662e-18)
(-0.195429 0.000882765 -3.60615e-18)
(-0.194506 0.000770413 2.65327e-18)
(-0.193572 0.000684976 -1.3707e-18)
(-0.192617 0.000626082 -3.87416e-19)
(-0.191633 0.000593315 -1.14484e-18)
(-0.190609 0.000586268 -4.69425e-20)
(-0.189538 0.000604037 -1.28085e-19)
(-0.188409 0.00064617 -1.12047e-18)
(-0.187216 0.000712455 -3.62786e-18)
(-0.185949 0.00080309 3.62069e-18)
(-0.1846 0.000918993 1.95935e-18)
(-0.183158 0.00106143 1.40996e-18)
(-0.181615 0.00123198 1.42557e-18)
(-0.179961 0.00143284 1.67823e-18)
(-0.178186 0.00166712 4.56967e-18)
(-0.176276 0.00193882 5.94116e-18)
(-0.174221 0.00225289 5.17601e-18)
(-0.172005 0.00261536 5.04444e-18)
(-0.169614 0.00303371 1.29444e-17)
(-0.167031 0.00351684 2.84043e-18)
(-0.164237 0.00407571 6.55168e-18)
(-0.161212 0.00472375 5.9981e-18)
(-0.157933 0.00547746 -2.11173e-18)
(-0.154375 0.00635741 -8.59767e-18)
(-0.150511 0.00738932 -3.72754e-18)
(-0.14631 0.00860586 5.20605e-18)
(-0.141741 0.0100486 -1.89838e-18)
(-0.13677 0.011772 7.82148e-18)
(-0.13136 0.0138463 -1.68889e-18)
(-0.125492 0.0163667 5.78323e-18)
(-0.119111 0.0194576 -6.49327e-19)
(-0.112315 0.0232837 -4.328e-18)
(-0.104849 0.0281047 -7.24472e-18)
(-0.097557 0.0338959 2.64592e-18)
(-0.0886567 0.0417899 2.96388e-18)
(-0.0829994 0.0492973 2.66631e-18)
(-0.0714905 0.0630825 5.93541e-19)
(-0.069573 0.065557 -4.89547e-18)
(-0.0536548 0.0806023 -5.66202e-18)
(-0.0209869 0.0402817 -8.38192e-18)
(1.30258 0.174282 1.5618e-18)
(1.30146 0.18605 4.24002e-18)
(1.29975 0.192668 -1.40348e-18)
(1.29844 0.201758 5.77708e-18)
(1.29772 0.210378 4.73948e-18)
(1.29772 0.219626 -2.85048e-18)
(1.29856 0.229066 -4.25957e-18)
(1.30042 0.238823 2.06927e-18)
(1.30356 0.248809 -5.04689e-19)
(1.30827 0.25898 1.47786e-19)
(1.31473 0.269138 1.67172e-19)
(1.32239 0.278682 7.4461e-19)
(1.32787 0.285779 -2.35576e-18)
(1.31934 0.284636 2.36819e-18)
(1.26822 0.264089 2.06653e-18)
(1.12722 0.21157 2.87687e-18)
(0.843837 0.127771 1.44416e-17)
(0.422037 0.0337197 3.06875e-18)
(0.0662034 0.0189949 1.77707e-17)
(-0.059801 0.0237913 6.35032e-18)
(1.30598 0.175961 3.67895e-18)
(1.30502 0.187471 3.54731e-18)
(1.30339 0.193985 1.48891e-18)
(1.30226 0.203021 2.74419e-18)
(1.3017 0.211537 3.81671e-18)
(1.3019 0.220691 -2.927e-19)
(1.30299 0.229986 -8.80492e-19)