/*--------------------------------*- C++ -*----------------------------------*\
  =========                 |
  \\      /  F ield         | OpenFOAM: The Open Source CFD Toolbox
   \\    /   O peration     | Website:  https://openfoam.org
    \\  /    A nd           | Version:  7
     \\/     M anipulation  |
\*---------------------------------------------------------------------------*/
FoamFile
{
    version     2.0;
    format      ascii;
    class       volScalarField;
    location    "26";
    object      p;
}
// * * * * * * * * * * * * * * * * * * * * * * * * * * * * * * * * * * * * * //

dimensions      [0 2 -2 0 0 0 0];

internalField   nonuniform List<scalar> 
175
(
0.0280299
0.0360674
0.0426082
0.0477635
0.0516474
0.0543761
0.0560652
0.0568307
-0.150323
-0.124761
-0.100459
-0.077706
-0.0567016
-0.0375681
-0.0203635
-0.00509437
0.00827242
0.0198008
0.0295763
0.0376992
0.0442796
0.0494337
0.05328
0.05594
0.0575337
0.0581821
-0.152955
-0.126514
-0.101429
-0.0779896
-0.056394
-0.0367601
-0.0191412
-0.00353857
0.0100864
0.0218033
0.0317031
0.0398915
0.0464838
0.0516022
0.0553706
0.0579158
0.0593628
0.0598396
-0.155627
-0.128289
-0.102409
-0.0782779
-0.0560901
-0.0359582
-0.0179297
-0.00199914
0.0118781
0.0237784
0.0337983
0.0420494
0.0486521
0.0537355
0.057423
0.0598556
0.0611584
0.0614671
-0.158348
-0.13014
-0.103489
-0.0786879
-0.0559254
-0.0353085
-0.0168794
-0.000626139
0.013501
0.0255863
0.035731
0.044052
0.0506747
0.0557318
0.0593566
0.0616859
0.062857
0.0630101
-0.161001
-0.131998
-0.104636
-0.0792169
-0.0559216
-0.0348536
-0.0160503
0.000506044
0.0148726
0.0271367
0.0374055
0.0458003
0.0524508
0.057493
0.061065
0.0633085
0.064367
0.0643868
-0.163485
-0.133802
-0.105836
-0.0798813
-0.0561213
-0.0346582
-0.0155247
0.00130201
0.0158844
0.0283138
0.0387014
0.0471718
0.053858
0.0588991
0.0624375
0.06462
0.0655962
0.065519
-0.165734
-0.135525
-0.107084
-0.0807063
-0.0565763
-0.0347944
-0.0153897
0.00166377
0.0164316
0.0290081
0.0395067
0.0480542
0.054786
0.0598441
0.063375
0.0655306
0.0664664
0.0663416
-0.167697
-0.137145
-0.108389
-0.0817237
-0.0573359
-0.0353251
-0.0157191
0.00150927
0.0164265
0.0291278
0.0397273
0.0483529
0.0551418
0.0602386
0.0637939
0.065964
0.0669096
0.0667945
-0.169356
-0.138664
-0.109768
-0.0829635
-0.0584408
-0.0363
-0.0165697
0.000775682
0.0158017
0.0286021
0.0392906
0.047995
0.0548536
0.0600134
0.0636279
0.065857
0.0668645
0.0668168
-0.170725
-0.140099
-0.111242
-0.0844523
-0.0599214
)
;

boundaryField
{
    inlet
    {
        type            zeroGradient;
    }
    outlet
    {
        type            fixedValue;
        value           nonuniform 0();
    }
    polygon
    {
        type            zeroGradient;
    }
    top
    {
        type            symmetryPlane;
    }
    bottom
    {
        type            symmetryPlane;
    }
    outside
    {
        type            slip;
    }
    procBoundary12to4
    {
        type            processor;
        value           nonuniform List<scalar> 
19
(
-0.0377526
-0.0179782
-0.000575874
0.0145162
0.0273887
0.0381534
0.0469371
0.0538784
0.0591254
0.0628336
0.0651647
0.0662839
0.0663581
-0.17184
-0.141481
-0.112838
-0.0862096
-0.0377526
-0.0617925
)
;
    }
    procBoundary12to5
    {
        type            processor;
        value           nonuniform List<scalar> 2(-0.201426 -0.202702);
    }
    procBoundary12to11
    {
        type            processor;
        value           nonuniform List<scalar> 10(0.0567889 0.0580045 0.0594721 0.060914 0.0622846 0.0635148 0.0645427 0.0653168 0.0657833 0.0658803);
    }
    procBoundary12to13
    {
        type            processor;
        value           nonuniform List<scalar> 8(-0.176757 -0.180359 -0.184028 -0.187712 -0.191244 -0.194474 -0.197297 -0.199627);
    }
    procBoundary12to20
    {
        type            processor;
        value           nonuniform List<scalar> 
19
(
0.0261347
0.0342226
0.0408426
0.0461021
0.0501108
0.0529812
0.054825
0.0557548
-0.147564
-0.122763
-0.0991452
-0.0769974
-0.0565211
-0.037841
-0.0210184
-0.00606359
0.0070528
0.0183903
0.0183903
)
;
    }
}


// ************************************************************************* //
