/*--------------------------------*- C++ -*----------------------------------*\
  =========                 |
  \\      /  F ield         | OpenFOAM: The Open Source CFD Toolbox
   \\    /   O peration     | Website:  https://openfoam.org
    \\  /    A nd           | Version:  7
     \\/     M anipulation  |
\*---------------------------------------------------------------------------*/
FoamFile
{
    version     2.0;
    format      ascii;
    class       surfaceScalarField;
    location    "42";
    object      phi;
}
// * * * * * * * * * * * * * * * * * * * * * * * * * * * * * * * * * * * * * //

dimensions      [0 3 -1 0 0 0 0];

internalField   nonuniform List<scalar> 
225
(
-0.00444634
-0.000739758
-0.00444036
-0.000877598
-0.00442702
-0.000993546
-0.00440671
-0.00108758
-0.00438028
-0.00116007
-0.00434901
-0.00121174
-0.00431455
-0.00124372
-0.00427885
-0.00125749
-0.00424411
-0.00125489
-0.00421261
-0.00123804
-0.00120933
-0.00372367
0.000523771
-0.00374411
0.000273801
-0.00376399
3.77547e-05
-0.00378177
-0.000182576
-0.00379607
-0.000385945
-0.00380559
-0.000570887
-0.00380922
-0.000736122
-0.00380619
-0.000880627
-0.00379605
-0.00100369
-0.00377873
-0.00110491
-0.00375454
-0.00118425
-0.00372424
-0.00124204
-0.00368895
-0.00127901
-0.00365018
-0.00129626
-0.00360976
-0.00129531
-0.00356976
-0.00127804
-0.00124666
-0.00306257
0.000537086
-0.0030784
0.000289627
-0.00309542
5.47801e-05
-0.00311215
-0.000165845
-0.00312721
-0.000370883
-0.00313928
-0.000558824
-0.00314714
-0.000728261
-0.00314979
-0.000877975
-0.00314647
-0.00100701
-0.0031367
-0.00111468
-0.00312031
-0.00120064
-0.00309748
-0.00126487
-0.00306875
-0.00130774
-0.00303501
-0.00133001
-0.00299751
-0.00133282
-0.00295781
-0.00131773
-0.00128669
-0.00237272
0.000542491
-0.00238256
0.000299466
-0.00239567
6.78844e-05
-0.00241063
-0.000150878
-0.00242614
-0.000355375
-0.00244088
-0.000544085
-0.0024536
-0.000715544
-0.00246314
-0.000868427
-0.00246854
-0.00100161
-0.002469
-0.00111422
-0.00246395
-0.00120568
-0.00245311
-0.00127571
-0.00243647
-0.00132439
-0.0024143
-0.00135217
-0.00238723
-0.00135989
-0.00235619
-0.00134878
-0.00132047
-0.00165655
0.000538676
-0.00165925
0.000302165
-0.00166742
7.60599e-05
-0.00167981
-0.000138487
-0.00169516
-0.000340024
-0.00171221
-0.000527042
-0.00172967
-0.000698078
-0.00174634
-0.00085176
-0.00176108
-0.000986875
-0.00177288
-0.00110242
-0.0017809
-0.00119766
-0.00178448
-0.00127212
-0.00178319
-0.00132569
-0.0017768
-0.00135856
-0.00176536
-0.00137132
-0.00174919
-0.00136494
-0.00134075
-0.000919685
0.000524895
-0.000914562
0.000297042
-0.000917204
7.8701e-05
-0.000926452
-0.000129238
-0.000941131
-0.000325345
-0.000960035
-0.000508139
-0.0009819
-0.000676213
-0.00100546
-0.000828198
-0.00102949
-0.000962843
-0.00105284
-0.00107908
-0.00107444
-0.00117605
-0.00109339
-0.00125318
-0.00110889
-0.00131018
-0.00112038
-0.00134708
-0.00112743
-0.00136427
-0.00112988
-0.00136249
-0.00134286
-0.0001696
0.000501033
-0.000156523
0.000283964
-0.000153456
7.56346e-05
-0.000159364
-0.000123331
-0.000173156
-0.000311554
-0.000193677
-0.000487617
-0.000219681
-0.000650209
-0.000249879
-0.000798
-0.000282976
-0.000929746
-0.000317705
-0.00104435
-0.000352853
-0.0011409
-0.000387295
-0.00121874
-0.000420008
-0.000450102
-0.000476837
-0.000499639
0.000585557
0.000606078
0.0006144
0.000611479
0.000598324
0.000576051
0.000545891
0.000509146
0.000467153
0.000421264
0.000372812
)
;

boundaryField
{
    inlet
    {
        type            calculated;
        value           nonuniform 0();
    }
    outlet
    {
        type            calculated;
        value           nonuniform 0();
    }
    polygon
    {
        type            calculated;
        value           nonuniform 0();
    }
    top
    {
        type            symmetryPlane;
        value           uniform 0;
    }
    bottom
    {
        type            symmetryPlane;
        value           uniform 0;
    }
    outside
    {
        type            calculated;
        value           nonuniform 0();
    }
    procBoundary54to46
    {
        type            processor;
        value           nonuniform List<scalar> 
18
(
-0.00127747
-0.00131698
-0.00133754
-0.00133969
-0.00132438
0.000467623
0.000263443
6.73122e-05
-0.00012041
-0.000298398
-0.000465344
-0.000620049
-0.000761254
-0.000887754
-0.00099846
-0.00109245
0.000323085
-0.00116901
)
;
    }
    procBoundary54to53
    {
        type            processor;
        value           nonuniform List<scalar> 6(-0.00353242 -0.00291778 -0.00232241 -0.00172891 -0.00112777 -0.000518122);
    }
    procBoundary54to55
    {
        type            processor;
        value           nonuniform List<scalar> 7(0.00370408 0.00304925 0.00236732 0.00166036 0.000933466 0.000193463 -0.000552147);
    }
    procBoundary54to61
    {
        type            processor;
        value           uniform -0.00418662;
    }
    procBoundary54to62
    {
        type            processor;
        value           nonuniform List<scalar> 
18
(
0.000741075
0.000871615
0.000980205
0.00106727
0.00113364
0.00118047
0.00120926
0.0012218
0.00122015
0.00120654
0.00118334
-0.00050418
-0.00025336
-1.78786e-05
0.000200363
0.000400246
0.00444502
0.000580399
)
;
    }
}


// ************************************************************************* //
