/*--------------------------------*- C++ -*----------------------------------*\
  =========                 |
  \\      /  F ield         | OpenFOAM: The Open Source CFD Toolbox
   \\    /   O peration     | Website:  https://openfoam.org
    \\  /    A nd           | Version:  7
     \\/     M anipulation  |
\*---------------------------------------------------------------------------*/
FoamFile
{
    version     2.0;
    format      ascii;
    class       volScalarField;
    location    "15";
    object      p;
}
// * * * * * * * * * * * * * * * * * * * * * * * * * * * * * * * * * * * * * //

dimensions      [0 2 -2 0 0 0 0];

internalField   nonuniform List<scalar> 
50
(
-0.407103
-0.43535
-0.516603
-0.56476
-0.617139
-0.510694
-0.398306
-0.423862
-0.497881
-0.535016
-0.5911
-0.536805
-0.414524
-0.483773
-0.530695
-0.567744
-0.549788
-0.402153
-0.462218
-0.528481
-0.539608
-0.561241
-0.389209
-0.442024
-0.522041
-0.517082
-0.561976
-0.374149
-0.421169
-0.502415
-0.507258
-0.560583
-0.358287
-0.401388
-0.472272
-0.515012
-0.525002
-0.340356
-0.37889
-0.437809
-0.521848
-0.550507
-0.356615
-0.404334
-0.479391
-0.459625
-0.34433
-0.365083
-0.404123
-0.984137
)
;

boundaryField
{
    inlet
    {
        type            zeroGradient;
    }
    outlet
    {
        type            fixedValue;
        value           nonuniform 0();
    }
    polygon
    {
        type            zeroGradient;
    }
    top
    {
        type            symmetryPlane;
    }
    bottom
    {
        type            symmetryPlane;
    }
    outside
    {
        type            slip;
    }
    procBoundary6to2
    {
        type            processor;
        value           nonuniform List<scalar> 
12
(
-0.38639
-0.378491
-0.388863
-0.388863
-0.378594
-0.367834
-0.356599
-0.345408
-0.333991
-0.321781
-0.321781
-0.307489
)
;
    }
    procBoundary6to3
    {
        type            processor;
        value           uniform -0.502921;
    }
    procBoundary6to5
    {
        type            processor;
        value           nonuniform List<scalar> 4(-0.337064 -0.334341 -0.41911 -0.557429);
    }
    procBoundary6to7
    {
        type            processor;
        value           nonuniform List<scalar> 5(-0.518761 -0.531548 -0.534457 -0.54116 -0.527826);
    }
}


// ************************************************************************* //
