/*--------------------------------*- C++ -*----------------------------------*\
  =========                 |
  \\      /  F ield         | OpenFOAM: The Open Source CFD Toolbox
   \\    /   O peration     | Website:  https://openfoam.org
    \\  /    A nd           | Version:  7
     \\/     M anipulation  |
\*---------------------------------------------------------------------------*/
FoamFile
{
    version     2.0;
    format      ascii;
    class       surfaceScalarField;
    location    "108";
    object      phi;
}
// * * * * * * * * * * * * * * * * * * * * * * * * * * * * * * * * * * * * * //

dimensions      [0 3 -1 0 0 0 0];

internalField   nonuniform List<scalar> 
14496
(
0.00153651
1.46616e-07
-3.35967e-07
0.00153724
6.07592e-07
-1.34144e-06
0.00153882
1.33001e-06
-2.90815e-06
0.00154109
1.9131e-06
-4.18111e-06
0.00154376
2.22821e-06
-4.90085e-06
0.00154651
2.23816e-06
-4.99042e-06
0.00154903
1.95064e-06
-4.46491e-06
0.00155103
1.40649e-06
-3.40653e-06
0.00155229
6.60411e-07
-1.92253e-06
0.00155266
-2.38306e-07
-1.26207e-07
0.00155198
-1.2592e-06
1.93247e-06
0.00155019
-2.34564e-06
4.13966e-06
0.00154723
-3.46093e-06
6.41909e-06
0.00154309
-4.5796e-06
8.71698e-06
0.00153778
-5.68018e-06
1.09892e-05
0.00153133
-6.74508e-06
1.31995e-05
0.00152377
-7.76071e-06
1.53194e-05
0.00151516
-8.71689e-06
1.7327e-05
0.00150556
-9.60617e-06
1.92058e-05
0.00149504
-1.04235e-05
2.09434e-05
0.00148368
-1.11657e-05
2.25308e-05
0.00147154
-1.18312e-05
2.39617e-05
0.00145873
-1.24193e-05
2.52317e-05
0.00144532
-1.29302e-05
2.63378e-05
0.00143141
-1.33648e-05
2.72783e-05
0.00141708
-1.37241e-05
2.80522e-05
0.00140243
-1.40094e-05
2.86597e-05
0.00138755
-1.42223e-05
2.91019e-05
0.00137254
-1.43646e-05
2.9381e-05
0.00135747
-1.44382e-05
2.95002e-05
0.00134246
-1.44452e-05
2.94642e-05
0.00132757
-1.43881e-05
2.92788e-05
0.00131288
-1.42698e-05
2.89512e-05
0.00129849
-1.40931e-05
2.84895e-05
0.00128445
-1.38615e-05
2.79029e-05
0.00127082
-1.35782e-05
2.72014e-05
0.00125767
-1.32472e-05
2.63957e-05
0.00124505
-1.28719e-05
2.54965e-05
0.00123299
-1.24562e-05
2.45152e-05
0.00122153
-1.2004e-05
2.34628e-05
0.0012107
-1.15188e-05
2.23504e-05
0.00120052
-1.10041e-05
2.11884e-05
0.00119099
-1.04634e-05
1.99871e-05
0.00118214
-9.89965e-06
1.8756e-05
0.00117395
-9.31602e-06
1.75041e-05
0.00116642
-8.71536e-06
1.62398e-05
0.00115955
-8.10048e-06
1.49711e-05
0.00115332
-7.47411e-06
1.37052e-05
0.00114771
-6.83901e-06
1.2449e-05
0.0011427
-6.19796e-06
1.12088e-05
0.00113826
-5.55386e-06
9.99049e-06
0.00113437
-4.90976e-06
8.79978e-06
0.001131
-4.26889e-06
7.64199e-06
0.00112811
-3.63472e-06
6.52229e-06
0.00112568
-3.01092e-06
5.44567e-06
0.00112366
-2.40139e-06
4.41702e-06
0.00112203
-1.81025e-06
3.44114e-06
0.00112075
-1.24182e-06
2.52273e-06
0.00111979
-7.00291e-07
1.66656e-06
0.00111909
-1.85075e-07
8.76258e-07
0.00111866
2.84071e-07
1.4804e-07
0.00111843
7.10722e-07
-4.76615e-07
0.00111837
1.0804e-06
-1.02285e-06
0.00111845
1.39775e-06
-1.48015e-06
0.00111863
1.65614e-06
-1.83637e-06
0.00111888
1.85417e-06
-2.09884e-06
0.00111915
1.98674e-06
-2.26013e-06
0.00111942
2.04931e-06
-2.31357e-06
0.00111963
2.0376e-06
-2.25465e-06
0.00111976
1.94717e-06
-2.07704e-06
0.00111975
1.7754e-06
-1.76592e-06
0.00111955
1.5288e-06
-1.32932e-06
0.00111912
1.20025e-06
-7.63205e-07
0.00111842
7.74168e-07
-7.43372e-08
0.00111733
2.66895e-07
8.20179e-07
0.00111581
-3.40513e-07
1.85857e-06
0.00111379
-1.04772e-06
3.06901e-06
0.00111116
-1.84597e-06
4.47159e-06
0.00110783
-2.75045e-06
6.08928e-06
0.00110365
-3.77326e-06
7.95183e-06
0.00109848
-4.93141e-06
1.00976e-05
0.00109215
-6.24721e-06
1.25764e-05
0.00108445
-7.75045e-06
1.54516e-05
0.00107513
-9.48078e-06
1.88049e-05
0.00106387
-1.14906e-05
2.2742e-05
0.00105032
-1.38489e-05
2.74003e-05
0.00103401
-1.66469e-05
3.29586e-05
0.00101436
-2.00049e-05
3.96524e-05
0.000990652
-2.40863e-05
4.77985e-05
0.00096195
-2.90963e-05
5.77982e-05
0.000927027
-3.53677e-05
7.02904e-05
0.000884413
-4.31426e-05
8.57569e-05
0.000831707
-5.34346e-05
0.00010614
0.000767065
-6.56541e-05
0.000130296
0.000684283
-8.43072e-05
0.000167089
0.000584903
-0.000101681
0.000201061
0.000451379
-0.000136616
0.00027014
0.000304602
-0.000151975
0.000298751
0.000127765
-0.000179884
0.000356721
-0.000131082
0.000258847
0.00155199
-3.05683e-09
0.00155263
-3.64886e-08
0.00155405
-9.05453e-08
0.00155612
-1.57455e-07
0.00155858
-2.2798e-07
0.00156111
-2.93793e-07
0.00156341
-3.48274e-07
0.0015652
-3.87113e-07
0.00156627
-4.07666e-07
0.00156644
-4.11004e-07
0.00156559
-4.03631e-07
0.00156362
-3.72399e-07
0.00156048
-3.25059e-07
0.00155616
-2.64537e-07
0.00155068
-1.92217e-07
0.00154404
-1.09522e-07
0.0015363
-1.80477e-08
0.0015275
8.03607e-08
0.00151771
1.83678e-07
0.001507
2.89499e-07
0.00149544
3.95005e-07
0.00148311
4.97071e-07
0.0014701
5.92344e-07
0.00145649
6.77395e-07
0.00144238
7.48891e-07
0.00142785
8.03785e-07
0.001413
8.39486e-07
0.00139792
8.53997e-07
0.00138271
8.4602e-07
0.00136746
8.15007e-07
0.00135225
7.61167e-07
0.00133718
6.8543e-07
0.00132232
5.89379e-07
0.00130775
4.75168e-07
0.00129354
3.45419e-07
0.00127976
2.03129e-07
0.00126646
5.15065e-08
0.0012537
-1.05807e-07
0.00124151
-2.65236e-07
0.00122993
-4.23213e-07
0.00121898
-5.7601e-07
0.0012087
-7.20031e-07
0.00119909
-8.51799e-07
0.00119016
-9.68036e-07
0.00118191
-1.06571e-06
0.00117433
-1.14211e-06
0.00116743
-1.19492e-06
0.00116118
-1.22227e-06
0.00115556
-1.22277e-06
0.00115056
-1.19563e-06
0.00114614
-1.14064e-06
0.00114229
-1.05824e-06
0.00113897
-9.49503e-07
0.00113615
-8.16131e-07
0.0011338
-6.60456e-07
0.00113189
-4.85365e-07
0.00113037
-2.94224e-07
0.00112922
-9.05351e-08
0.0011284
1.20632e-07
0.00112788
3.36568e-07
0.00112762
5.47091e-07
0.00112758
7.48664e-07
0.00112773
9.31688e-07
0.00112803
1.09717e-06
0.00112844
1.23851e-06
0.00112894
1.35525e-06
0.00112949
1.44366e-06
0.00113004
1.5001e-06
0.00113055
1.52187e-06
0.00113099
1.5074e-06
0.00113131
1.45617e-06
0.00113146
1.37623e-06
0.0011314
1.2654e-06
0.00113105
1.12269e-06
0.00113036
9.51585e-07
0.00112927
7.56497e-07
0.00112767
5.52565e-07
0.00112548
3.45322e-07
0.00112258
1.41028e-07
0.00111887
-5.40573e-08
0.00111417
-2.33265e-07
0.00110831
-3.93407e-07
0.00110109
-5.28772e-07
0.00109225
-6.35659e-07
0.00108147
-7.11891e-07
0.00106838
-7.5641e-07
0.0010525
-7.69573e-07
0.00103325
-7.53094e-07
0.00100987
-7.10075e-07
0.000981418
-6.44797e-07
0.000946613
-5.62104e-07
0.000903939
-4.68851e-07
0.000850872
-3.67969e-07
0.000785489
-2.70709e-07
0.000701357
-1.74694e-07
0.000599768
-9.15443e-08
0.000463171
-1.90915e-08
0.000311155
4.09183e-08
0.000131185
8.64157e-08
1.02776e-07
0.00140619
6.03937e-07
-1.02131e-06
0.00140739
2.23595e-06
-3.43905e-06
0.00140973
4.74538e-06
-7.07988e-06
0.00141289
6.75535e-06
-9.92067e-06
0.00141651
7.89409e-06
-1.15092e-05
0.00142019
8.06008e-06
-1.17433e-05
0.0014236
7.28902e-06
-1.06999e-05
0.00142646
5.71312e-06
-8.57497e-06
0.00142856
3.49737e-06
-5.59671e-06
0.00142975
8.08284e-07
-1.99097e-06
0.00142991
-2.25273e-06
2.08546e-06
0.00142898
-5.55265e-06
6.4868e-06
0.00142692
-8.95856e-06
1.10218e-05
0.00142372
-1.2394e-05
1.55936e-05
0.00141939
-1.57935e-05
2.01161e-05
0.00141398
-1.91038e-05
2.45198e-05
0.00140751
-2.22827e-05
2.875e-05
0.00140004
-2.52975e-05
3.27641e-05
0.00139164
-2.81235e-05
3.65296e-05
0.00138236
-3.07416e-05
4.00213e-05
0.00137228
-3.31377e-05
4.32203e-05
0.00136146
-3.5301e-05
4.61118e-05
0.00135
-3.72237e-05
4.86844e-05
0.00133797
-3.88998e-05
5.09295e-05
0.00132546
-4.03251e-05
5.28404e-05
0.00131254
-4.1497e-05
5.44127e-05
0.00129931
-4.24143e-05
5.5644e-05
0.00128586
-4.30777e-05
5.65345e-05
0.00127226
-4.34898e-05
5.70873e-05
0.00125861
-4.36554e-05
5.73083e-05
0.00124498
-4.35813e-05
5.72071e-05
0.00123146
-4.32769e-05
5.67962e-05
0.00121812
-4.27534e-05
5.60913e-05
0.00120504
-4.20242e-05
5.51107e-05
0.00119227
-4.11042e-05
5.38754e-05
0.00117987
-4.00096e-05
5.24078e-05
0.00116789
-3.8758e-05
5.07322e-05
0.00115639
-3.73671e-05
4.88734e-05
0.00114539
-3.58553e-05
4.6857e-05
0.00113492
-3.42408e-05
4.47081e-05
0.00112501
-3.25417e-05
4.24517e-05
0.00111567
-3.07752e-05
4.01119e-05
0.00110692
-2.89579e-05
3.77115e-05
0.00109875
-2.71055e-05
3.52724e-05
0.00109117
-2.52328e-05
3.28147e-05
0.00108416
-2.33533e-05
3.03573e-05
0.00107773
-2.14799e-05
2.79176e-05
0.00107184
-1.96241e-05
2.55113e-05
0.00106648
-1.77965e-05
2.31529e-05
0.00106164
-1.60069e-05
2.08552e-05
0.00105727
-1.4264e-05
1.86296e-05
0.00105336
-1.25758e-05
1.64865e-05
0.00104987
-1.09497e-05
1.44352e-05
0.00104678
-9.39236e-06
1.24838e-05
0.00104405
-7.91009e-06
1.06397e-05
0.00104165
-6.50864e-06
8.90944e-06
0.00103955
-5.19347e-06
7.29912e-06
0.0010377
-3.96978e-06
5.81429e-06
0.00103608
-2.84243e-06
4.46014e-06
0.00103466
-1.8152e-06
3.24125e-06
0.00103339
-8.9655e-07
2.16141e-06
0.00103223
-7.15206e-08
1.23595e-06
0.00103118
5.89985e-07
4.58947e-07
0.0010302
1.14168e-06
-1.60475e-07
0.00102922
1.5686e-06
-5.87107e-07
0.00102822
1.86032e-06
-8.61388e-07
0.00102717
2.01325e-06
-9.61131e-07
0.00102602
2.02093e-06
-8.78436e-07
0.00102475
1.87695e-06
-6.08359e-07
0.00102334
1.5673e-06
-1.5366e-07
0.0010217
1.09187e-06
5.49955e-07
0.00101978
4.55605e-07
1.46672e-06
0.00101754
-3.69269e-07
2.61034e-06
0.00101495
-1.42279e-06
4.00477e-06
0.00101194
-2.67654e-06
5.69052e-06
0.00100843
-4.16519e-06
7.67674e-06
0.00100434
-5.90978e-06
9.99424e-06
0.000999597
-7.93554e-06
1.26821e-05
0.000994086
-1.02807e-05
1.57916e-05
0.000987693
-1.29925e-05
1.93857e-05
0.00098028
-1.61303e-05
2.35433e-05
0.000971686
-1.97696e-05
2.83637e-05
0.000961719
-2.40057e-05
3.39723e-05
0.000950152
-2.89609e-05
4.0528e-05
0.00093671
-3.47911e-05
4.8233e-05
0.000921061
-4.16986e-05
5.73481e-05
0.000902797
-4.9945e-05
6.82091e-05
0.000881414
-5.98748e-05
8.12576e-05
0.000856286
-7.19467e-05
9.70749e-05
0.000826615
-8.67528e-05
0.000116424
0.000791405
-0.000105189
0.000140399
0.00074937
-0.000128048
0.000170082
0.000698764
-0.000157937
0.000208543
0.000637757
-0.000193637
0.000254644
0.000562219
-0.000246975
0.000322513
0.000473231
-0.000296719
0.000385707
0.000357306
-0.00039632
0.000512245
0.000237582
-0.000433128
0.000552852
8.48612e-05
-0.000517841
0.000670562
-0.000352185
0.000437046
0.00144832
0.00144921
0.00145105
0.00145363
0.00145662
0.00145969
0.00146251
0.00146482
0.00146639
0.00146708
0.00146676
0.00146534
0.0014628
0.00145913
0.00145432
0.00144842
0.00144145
0.00143348
0.00142457
0.00141477
0.00140416
0.00139282
0.00138083
0.00136827
0.00135522
0.00134178
0.00132802
0.00131405
0.00129994
0.00128578
0.00127167
0.00125767
0.00124386
0.00123033
0.00121713
0.00120432
0.00119196
0.00118009
0.00116875
0.00115797
0.00114778
0.00113819
0.00112922
0.00112087
0.00111314
0.00110603
0.00109952
0.0010936
0.00108825
0.00108346
0.00107918
0.00107541
0.0010721
0.00106923
0.00106676
0.00106467
0.00106292
0.00106147
0.0010603
0.00105936
0.00105861
0.00105806
0.00105763
0.00105729
0.00105702
0.00105678
0.00105654
0.00105624
0.00105587
0.00105536
0.00105468
0.00105381
0.00105268
0.00105118
0.00104932
0.00104702
0.00104418
0.00104071
0.00103652
0.00103148
0.00102545
0.00101825
0.0010097
0.000999544
0.000987495
0.000973197
0.00095621
0.000935988
0.00091184
0.000882885
0.000847986
0.000805696
0.000753899
0.000690558
0.000610672
0.000515014
0.000388835
0.000254458
9.33383e-05
0.00118949
1.62641e-06
-2.55722e-06
0.00119163
4.98492e-06
-7.12733e-06
0.00119527
9.8848e-06
-1.35207e-05
0.00119984
1.35889e-05
-1.81676e-05
0.00120484
1.56048e-05
-2.05974e-05
0.00120981
1.58698e-05
-2.08401e-05
0.00121442
1.45254e-05
-1.91329e-05
0.00121841
1.18418e-05
-1.58351e-05
0.00122161
8.11317e-06
-1.13125e-05
0.00122389
3.62475e-06
-5.90264e-06
0.00122519
-1.41325e-06
1.05375e-07
0.00122545
-6.8474e-06
6.58844e-06
0.00122466
-1.24351e-05
1.32247e-05
0.00122282
-1.80597e-05
1.98984e-05
0.00121996
-2.36181e-05
2.64854e-05
0.00121609
-2.90274e-05
3.28906e-05
0.00121128
-3.42223e-05
3.90396e-05
0.00120555
-3.91519e-05
4.48744e-05
0.00119898
-4.37773e-05
5.03502e-05
0.00119162
-4.80683e-05
5.54323e-05
0.00118353
-5.20017e-05
6.00938e-05
0.00117477
-5.55594e-05
6.43135e-05
0.00116542
-5.8727e-05
6.80742e-05
0.00115556
-6.14934e-05
7.13622e-05
0.00114524
-6.38499e-05
7.41669e-05
0.00113455
-6.57901e-05
7.64801e-05
0.00112356
-6.73109e-05
7.82975e-05
0.00111235
-6.84118e-05
7.96183e-05
0.001101
-6.90963e-05
8.04465e-05
0.00108959
-6.9372e-05
8.07908e-05
0.00107817
-6.92506e-05
8.06656e-05
0.00106683
-6.87479e-05
8.009e-05
0.00105562
-6.7884e-05
7.90883e-05
0.00104462
-6.6682e-05
7.76886e-05
0.00103386
-6.51683e-05
7.59231e-05
0.00102341
-6.33716e-05
7.38265e-05
0.00101329
-6.13225e-05
7.14358e-05
0.00100356
-5.90524e-05
6.8789e-05
0.000994227
-5.65933e-05
6.59247e-05
0.000985323
-5.39772e-05
6.28813e-05
0.000976861
-5.12352e-05
5.96965e-05
0.000968852
-4.83977e-05
5.64065e-05
0.0009613
-4.54933e-05
5.30456e-05
0.000954203
-4.25492e-05
4.96465e-05
0.000947554
-3.95907e-05
4.62392e-05
0.000941344
-3.66413e-05
4.28517e-05
0.000935557
-3.37225e-05
3.95095e-05
0.000930175
-3.08538e-05
3.62357e-05
0.000925177
-2.80528e-05
3.3051e-05
0.000920538
-2.53351e-05
2.99736e-05
0.000916233
-2.27147e-05
2.70197e-05
0.000912234
-2.02038e-05
2.42033e-05
0.00090851
-1.78133e-05
2.15368e-05
0.000905032
-1.55525e-05
1.90306e-05
0.000901768
-1.34297e-05
1.66937e-05
0.000898686
-1.14522e-05
1.45342e-05
0.000895754
-9.62655e-06
1.25588e-05
0.000892939
-7.95859e-06
1.07737e-05
0.000890208
-6.45372e-06
9.18454e-06
0.000887529
-5.11704e-06
7.79653e-06
0.000884867
-3.95391e-06
6.61535e-06
0.000882187
-2.96848e-06
5.64849e-06
0.000879463
-2.17772e-06
4.90207e-06
0.000876664
-1.57998e-06
4.37855e-06
0.000873748
-1.1793e-06
4.09566e-06
0.000870681
-9.81983e-07
4.04856e-06
0.000867431
-9.95847e-07
4.24605e-06
0.000863962
-1.22823e-06
4.69701e-06
0.000860238
-1.68658e-06
5.41113e-06
0.000856224
-2.38801e-06
6.4013e-06
0.000851872
-3.34513e-06
7.69805e-06
0.00084713
-4.56442e-06
9.30549e-06
0.000841955
-6.06685e-06
1.12425e-05
0.000836297
-7.8822e-06
1.35397e-05
0.0008301
-1.00362e-05
1.62336e-05
0.000823298
-1.25561e-05
1.9358e-05
0.00081582
-1.54816e-05
2.29594e-05
0.000807586
-1.8861e-05
2.70951e-05
0.000798504
-2.27576e-05
3.18398e-05
0.000788469
-2.72487e-05
3.72833e-05
0.000777362
-3.24312e-05
4.35383e-05
0.000765044
-3.84264e-05
5.07447e-05
0.000751352
-4.53862e-05
5.90776e-05
0.000736098
-5.35027e-05
6.87569e-05
0.000719058
-6.30196e-05
8.006e-05
0.000699966
-7.42493e-05
9.33411e-05
0.000678507
-8.75926e-05
0.000109051
0.000654302
-0.000103576
0.000127781
0.000626898
-0.000122883
0.000150288
0.000595733
-0.000146427
0.000177592
0.000560183
-0.00017544
0.00021099
0.000519361
-0.000211361
0.000252183
0.00047264
-0.000257269
0.000303991
0.000418368
-0.000312982
0.000367254
0.000356373
-0.000392025
0.000454019
0.000285472
-0.00046774
0.000538641
0.000204864
-0.000612105
0.000692714
0.000125888
-0.000652006
0.000730981
1.78888e-05
-0.00079326
0.000901259
-0.000463123
0.000481012
0.00124682
0.00124836
0.00125117
0.00125484
0.00125893
0.00126306
0.00126688
0.00127015
0.00127267
0.0012743
0.00127497
0.00127461
0.0012732
0.00127073
0.00126723
0.00126272
0.00125725
0.00125086
0.00124361
0.00123557
0.00122679
0.00121734
0.0012073
0.00119673
0.00118572
0.00117435
0.00116268
0.0011508
0.00113879
0.00112673
0.00111469
0.00110273
0.00109094
0.00107937
0.00106808
0.00105711
0.00104652
0.00103634
0.00102661
0.00101734
0.00100855
0.00100027
0.000992487
0.00098521
0.000978434
0.00097215
0.000966345
0.000961003
0.000956103
0.000951623
0.000947538
0.00094382
0.000940442
0.000937374
0.000934584
0.000932041
0.000929714
0.000927569
0.000925576
0.0009237
0.000921907
0.000920175
0.000918456
0.000916716
0.000914949
0.000913106
0.000911149
0.000909042
0.000906747
0.000904206
0.00090141
0.000898313
0.000894856
0.000890979
0.000886633
0.000881754
0.000876266
0.000870087
0.000863122
0.000855259
0.000846371
0.000836308
0.000824894
0.000811919
0.000797133
0.000780231
0.000760848
0.00073853
0.000712721
0.000682718
0.000647677
0.000606398
0.000557672
0.000499334
0.000429822
0.000347789
0.000247928
0.000148775
2.60771e-05
0.000929253
3.77315e-06
-5.53421e-06
0.000932667
9.7205e-06
-1.31347e-05
0.000937774
1.76099e-05
-2.27163e-05
0.000943745
2.31367e-05
-2.91081e-05
0.000949949
2.58787e-05
-3.20825e-05
0.000955957
2.60199e-05
-3.20281e-05
0.000961482
2.39115e-05
-2.94367e-05
0.000966334
2.00017e-05
-2.4853e-05
0.000970389
1.47244e-05
-1.87793e-05
0.000973568
8.46778e-06
-1.16471e-05
0.000975816
1.55708e-06
-3.80515e-06
0.000977152
-5.84396e-06
4.50824e-06
0.000977549
-1.34216e-05
1.30243e-05
0.000977027
-2.10212e-05
2.15436e-05
0.000975609
-2.85123e-05
2.99301e-05
0.000973328
-3.57902e-05
3.80711e-05
0.000970223
-4.27732e-05
4.58786e-05
0.000966336
-4.93977e-05
5.32839e-05
0.000961717
-5.56146e-05
6.02343e-05
0.000956414
-6.13858e-05
6.66885e-05
0.000950481
-6.66813e-05
7.26139e-05
0.000943974
-7.14774e-05
7.79844e-05
0.00093695
-7.57547e-05
8.27787e-05
0.000929469
-7.94974e-05
8.69788e-05
0.000921592
-8.26929e-05
9.05703e-05
0.000913381
-8.53318e-05
9.35424e-05
0.000904901
-8.74086e-05
9.58884e-05
0.000896216
-8.89223e-05
9.76071e-05
0.00088739
-8.98773e-05
9.87033e-05
0.000878485
-9.0284e-05
9.9189e-05
0.000869561
-9.01588e-05
9.9083e-05
0.000860674
-8.95244e-05
9.84113e-05
0.000851877
-8.84089e-05
9.72063e-05
0.000843217
-8.68455e-05
9.55059e-05
0.000834735
-8.48713e-05
9.33527e-05
0.000826469
-8.25268e-05
9.0793e-05
0.000818448
-7.98548e-05
8.78754e-05
0.000810698
-7.68994e-05
8.46499e-05
0.000803236
-7.3705e-05
8.11671e-05
0.000796075
-7.03159e-05
7.74768e-05
0.000789222
-6.67752e-05
7.36278e-05
0.00078268
-6.31244e-05
6.96667e-05
0.000776445
-5.9403e-05
6.56378e-05
0.00077051
-5.56479e-05
6.15826e-05
0.000764865
-5.18936e-05
5.75394e-05
0.000759493
-4.81715e-05
5.35434e-05
0.000754377
-4.45107e-05
4.96267e-05
0.000749496
-4.09373e-05
4.58183e-05
0.000744826
-3.74743e-05
4.21437e-05
0.000740343
-3.41423e-05
3.86253e-05
0.00073602
-3.0959e-05
3.52825e-05
0.000731828
-2.794e-05
3.21321e-05
0.000727738
-2.50986e-05
2.91885e-05
0.000723721
-2.24461e-05
2.64635e-05
0.000719745
-1.99923e-05
2.39675e-05
0.000715782
-1.77452e-05
2.17089e-05
0.000711799
-1.57123e-05
1.96952e-05
0.000707766
-1.38996e-05
1.79327e-05
0.000703651
-1.23129e-05
1.64274e-05
0.000699424
-1.09578e-05
1.51848e-05
0.000695053
-9.83993e-06
1.42111e-05
0.000690506
-8.96573e-06
1.35128e-05
0.000685753
-8.3432e-06
1.30965e-05
0.000680761
-7.97597e-06
1.29672e-05
0.0006755
-7.87663e-06
1.31382e-05
0.000669934
-8.04495e-06
1.36108e-05
0.00066403
-8.49098e-06
1.43953e-05
0.000657752
-9.22458e-06
1.55026e-05
0.000651063
-1.02579e-05
1.69466e-05
0.000643926
-1.16082e-05
1.87455e-05
0.0006363
-1.33004e-05
2.09262e-05
0.000628141
-1.53445e-05
2.35029e-05
0.000619403
-1.77645e-05
2.65026e-05
0.000610037
-2.05949e-05
2.99616e-05
0.000599988
-2.3874e-05
3.39225e-05
0.000589199
-2.76429e-05
3.84321e-05
0.000577604
-3.19551e-05
4.35499e-05
0.000565131
-3.68762e-05
4.93489e-05
0.0005517
-4.24906e-05
5.5922e-05
0.00053722
-4.88994e-05
6.33792e-05
0.000521591
-5.6229e-05
7.18584e-05
0.000504698
-6.4636e-05
8.15292e-05
0.000486411
-7.4315e-05
9.26013e-05
0.000466585
-8.55098e-05
0.000105336
0.000445054
-9.85261e-05
0.000120058
0.000421629
-0.000113752
0.000137177
0.0003961
-0.000131679
0.000157208
0.000368234
-0.000152947
0.000180813
0.000337781
-0.000178368
0.000208822
0.000304485
-0.000209029
0.000242325
0.000268139
-0.000246259
0.000282605
0.000228447
-0.000291915
0.000331607
0.000185903
-0.000348431
0.000390974
0.00013962
-0.000417742
0.000464026
9.48271e-05
-0.00050821
0.000553003
4.62856e-05
-0.000600396
0.000648937
1.73646e-05
-0.00074937
0.000778291
-1.45622e-05
-0.000789711
0.000821638
-2.50804e-05
-0.000956876
0.000967395
-0.000437775
0.000412695
0.000987292
0.000989885
0.000993974
0.000998943
0.00100422
0.0010094
0.00101418
0.00101835
0.00102176
0.00102433
0.00102599
0.00102673
0.00102654
0.00102541
0.00102339
0.00102049
0.00101675
0.00101223
0.00100697
0.00100101
0.000994425
0.000987261
0.000979581
0.000971445
0.000962919
0.000954068
0.000944957
0.000935653
0.000926222
0.000916729
0.000907236
0.000897801
0.00088848
0.000879324
0.000870375
0.000861675
0.000853256
0.000845146
0.000837365
0.000829931
0.000822852
0.000816134
0.000809777
0.000803775
0.000798121
0.000792801
0.0007878
0.000783098
0.000778675
0.000774506
0.000770567
0.00076683
0.000763268
0.000759853
0.000756554
0.000753343
0.00075019
0.000747064
0.000743935
0.000740774
0.00073755
0.000734232
0.000730791
0.000727194
0.000723413
0.000719416
0.000715171
0.000710644
0.000705797
0.00070059
0.000694988
0.000688949
0.000682427
0.000675372
0.000667731
0.000659446
0.00065045
0.000640669
0.000630019
0.000618403
0.000605712
0.000591821
0.000576583
0.00055983
0.000541364
0.000520953
0.000498325
0.000473159
0.000445078
0.000413641
0.000378372
0.00033864
0.0002942
0.000243712
0.000189521
0.000127766
7.11101e-05
1.23799e-05
-4.32373e-05
-0.00088749
0.010534
-0.0103036
-0.00111857
0.0105251
-0.010294
-0.0013505
0.010512
-0.0102801
-0.00158369
0.0105025
-0.0102693
-0.00181826
0.0104983
-0.0102638
-0.00205462
0.0105005
-0.0102641
-0.0022932
0.0105102
-0.0102716
-0.00253462
0.010529
-0.0102876
-0.00277963
0.010559
-0.010314
-0.00302887
0.0106022
-0.0103529
-0.00328141
0.010658
-0.0104055
-0.0035292
0.0107154
-0.0104676
-0.00374282
0.0107303
-0.0105167
-0.00384428
0.0105789
-0.0104774
-0.0036835
0.0100059
-0.0101667
-0.00307785
0.00864126
-0.00924691
-0.00198718
0.00615504
-0.00724571
-0.000772955
0.00279914
-0.00401336
-0.000100342
0.000219609
-0.000892222
-0.000521435
0.000421094
-0.000893278
0.0107632
-0.0011256
0.0107574
-0.00135775
0.0107441
-0.00159168
0.0107364
-0.00182679
0.0107334
-0.00206379
0.0107375
-0.00230292
0.0107493
-0.00254475
0.0107708
-0.00278951
0.0108037
-0.0030361
0.0108488
-0.00327853
0.0109004
-0.0034971
0.010934
-0.00364242
0.0108756
-0.00361872
0.0105552
-0.00328728
0.00967448
-0.00253853
0.00789251
-0.00144846
0.00506496
-0.000479954
0.00183063
-3.54417e-05
-0.000224904
-0.000556877
-0.00091677
0.01012
-0.00993579
-0.00110129
0.0101102
-0.00992567
-0.00128695
0.0100948
-0.00990916
-0.00147402
0.0100828
-0.0098957
-0.00166272
0.0100756
-0.0098869
-0.00185337
0.0100741
-0.00988344
-0.0020464
0.0100794
-0.00988634
-0.00224232
0.0100927
-0.00989682
-0.00244186
0.0101161
-0.00991658
-0.00264591
0.010152
-0.00994793
-0.00285486
0.0102026
-0.00999366
-0.00306659
0.010268
-0.0100562
-0.00327024
0.0103357
-0.0101321
-0.00343021
0.0103593
-0.0101993
-0.00346375
0.0102111
-0.0101776
-0.00322293
0.00961728
-0.00985811
-0.00252617
0.00808321
-0.00877996
-0.00131543
0.00518868
-0.00639942
-0.00027267
0.00167067
-0.00271343
-0.000280735
8.06524e-06
-0.000925044
-0.00110887
-0.00129411
-0.00148064
-0.00166881
-0.00185883
-0.00205106
-0.0022459
-0.00244376
-0.00264472
-0.00284759
-0.00304728
-0.00322824
-0.00334642
-0.00330199
-0.00293162
-0.00209412
-0.000918807
-0.000140358
-0.000904875
0.00980473
-0.00967258
-0.00103753
0.00979425
-0.0096616
-0.00117147
0.00977626
-0.00964232
-0.00130713
0.00976137
-0.0096257
-0.00144469
0.00975066
-0.0096131
-0.00158448
0.00974514
-0.00960534
-0.00172692
0.00974563
-0.00960319
-0.00187248
0.00975336
-0.0096078
-0.00202181
0.00976992
-0.00962059
-0.00217568
0.00979761
-0.00964374
-0.00233479
0.00983928
-0.00968018
-0.00249906
0.00989789
-0.00973362
-0.00266588
0.00997273
-0.0098059
-0.00282391
0.0100552
-0.00989721
-0.00294126
0.0100974
-0.00998004
-0.00292645
0.00995617
-0.00997097
-0.00260362
0.00923836
-0.0095612
-0.00175799
0.00734821
-0.00819384
-0.000572048
0.00373277
-0.00491871
0.000333124
-0.000905172
-0.000915123
-0.00104654
-0.00117944
-0.00131377
-0.00145001
-0.0015883
-0.00172901
-0.00187247
-0.00201913
-0.00216946
-0.00232383
-0.00248217
-0.00264152
-0.00278557
-0.00286578
-0.00276772
-0.00230932
-0.00136052
-0.000341189
-0.000853697
0.00959763
-0.00952105
-0.000931227
0.00958583
-0.0095083
-0.00101042
0.00956481
-0.00948562
-0.00109147
0.00954664
-0.00946559
-0.00117486
0.00953176
-0.00944836
-0.00126091
0.00952162
-0.00943557
-0.00135003
0.0095167
-0.00942758
-0.00144268
0.00951822
-0.00942557
-0.00153949
0.00952741
-0.0094306
-0.00164127
0.00954636
-0.00944458
-0.00174895
0.00957778
-0.0094701
-0.00186316
0.00962543
-0.00951121
-0.00198462
0.00969142
-0.00956997
-0.0021111
0.00978025
-0.00965377
-0.00223623
0.00987488
-0.00974976
-0.0023154
0.00993726
-0.00985809
-0.00224785
0.00972014
-0.00978768
-0.00179554
0.0087413
-0.00919361
-0.000836422
0.00584908
-0.0068082
0.00147886
-0.00231528
-0.000865513
-0.000941285
-0.00101879
-0.00109786
-0.0011792
-0.00126293
-0.00134942
-0.001439
-0.00153218
-0.00162955
-0.00173195
-0.00184015
-0.00195463
-0.00207159
-0.00217675
-0.00221046
-0.00205152
-0.00150406
-0.00057369
-0.000767377
0.00950357
-0.00948401
-0.00078859
0.00948929
-0.00946808
-0.000811966
0.00946462
-0.00944124
-0.000837738
0.00944232
-0.00941655
-0.000866246
0.00942268
-0.00939417
-0.000897885
0.00940702
-0.00937539
-0.000933134
0.00939581
-0.00936056
-0.00097253
0.00939019
-0.00935079
-0.00101673
0.00939107
-0.00934687
-0.00106667
0.00940015
-0.00935022
-0.00112354
0.00941988
-0.00936301
-0.0011885
0.00945416
-0.0093892
-0.00126349
0.00950499
-0.00943
-0.00134911
0.00958011
-0.00949449
-0.00144775
0.00966949
-0.00957085
-0.00154538
0.0097875
-0.00968988
-0.00160569
0.00978107
-0.00972075
-0.00144819
0.00942022
-0.00957773
-0.000855452
0.00739882
-0.00799156
0.00295009
-0.00380554
-0.000780045
-0.00079905
-0.000820055
-0.000843325
-0.000869006
-0.000897551
-0.000929319
-0.000964703
-0.00100423
-0.00104866
-0.00109888
-0.00115594
-0.00122091
-0.00129456
-0.00137483
-0.00144542
-0.00145204
-0.00122543
-0.000634804
-0.000652197
0.00952349
-0.00956063
-0.000617683
0.00950508
-0.00953959
-0.000585466
0.00947631
-0.00950852
-0.00055629
0.00944858
-0.00947775
-0.000530209
0.00942356
-0.00944964
-0.000507908
0.0094013
-0.0094236
-0.00049005
0.00938272
-0.00940058
-0.000476796
0.00936879
-0.00938205
-0.000469108
0.00936011
-0.00936779
-0.000468334
0.00935769
-0.00935846
-0.000475695
0.00936387
-0.00935651
-0.00049298
0.00938172
-0.00936444
-0.000522011
0.00941357
-0.00938454
-0.000567185
0.0094642
-0.00941903
-0.000630221
0.0095286
-0.00946556
-0.000721302
0.0096232
-0.00953212
-0.000820912
0.00966024
-0.00956063
-0.000863947
0.00958166
-0.00953863
-0.000623196
0.00822614
-0.00846689
0.00423421
-0.00485741
-0.00066467
-0.00062767
-0.000592604
-0.000560575
-0.000531191
-0.000505279
-0.00048312
-0.000465122
-0.000451887
-0.000444416
-0.000443554
-0.000451028
-0.000467462
-0.000497753
-0.000540006
-0.000606686
-0.00066719
-0.000663256
-0.000428671
-0.000516131
0.0096549
-0.00974667
-0.000428378
0.00963016
-0.00971791
-0.000342921
0.00959747
-0.00968292
-0.000260836
0.00956314
-0.00964523
-0.00018148
0.00953238
-0.00961173
-0.000106231
0.0095025
-0.00957775
-3.55809e-05
0.00947546
-0.00954611
2.89234e-05
0.00945073
-0.00951523
8.57303e-05
0.00943027
-0.00948707
0.000134803
0.0094141
-0.00946318
0.000174541
0.00940431
-0.00944405
0.000202683
0.00940253
-0.00943068
0.00021662
0.00941174
-0.00942568
0.000210907
0.00942956
-0.00942385
0.000181918
0.00945974
-0.00943075
0.000109912
0.0094854
-0.0094134
1.21809e-05
0.00949269
-0.00939495
-0.000179213
0.00938636
-0.00919497
-0.000198861
0.00844052
-0.00842087
0.00487178
-0.00507064
-0.000527111
-0.000436544
-0.000347601
-0.000262215
-0.000179472
-0.000100574
-2.56998e-05
4.29827e-05
0.000105455
0.000161099
0.000208905
0.000247001
0.000274207
0.000284743
0.000278923
0.000232209
0.000164261
1.19997e-05
-1.43757e-05
-0.000369017
0.00989186
-0.0100313
-0.000232317
0.0098572
-0.0099939
-9.59223e-05
0.00982227
-0.00995866
3.50517e-05
0.00977972
-0.00991069
0.000159689
0.00974136
-0.00986599
0.000279362
0.00970304
-0.00982272
0.000393011
0.00966628
-0.00977993
0.000500127
0.00963012
-0.00973724
0.000599715
0.0095958
-0.00969539
0.00069024
0.00956434
-0.00965487
0.000770052
0.00953629
-0.0096161
0.00083684
0.00951204
-0.00957882
0.000886909
0.00949277
-0.00954284
0.000914562
0.00947171
-0.00949936
0.000909451
0.00944905
-0.00944394
0.000853901
0.00938615
-0.0093306
0.000720411
0.00929574
-0.00916225
0.00044943
0.00895743
-0.00868645
0.000128632
0.00813514
-0.00781434
0.00467658
-0.00454795
-0.000376052
-0.000236771
-9.74244e-05
3.7065e-05
0.000166688
0.000291988
0.000412167
0.000527056
0.000635784
0.000736946
0.000829188
0.000910547
0.000977634
0.00102549
0.00104379
0.00101654
0.000917326
0.000679789
0.000394063
0.00378759
3.71233e-06
-2.88478e-06
0.00378837
-1.09015e-07
-6.71981e-07
0.0037858
1.2528e-05
-9.96225e-06
0.0037857
1.00621e-05
-9.95883e-06
0.00378171
2.05286e-05
-1.65413e-05
0.00377957
2.95117e-05
-2.73711e-05
0.00377283
3.6381e-05
-2.96385e-05
0.00376628
6.82554e-05
-6.17058e-05
0.00375409
6.87737e-05
-5.6585e-05
0.00373806
0.000146593
-0.000130561
0.00371439
0.000138164
-0.000114496
0.00367786
0.000309001
-0.000272471
0.00362827
0.000294008
-0.000244416
0.0035454
0.000666569
-0.000583702
0.0034307
0.000675059
-0.000560363
0.00323128
0.00155566
-0.00135624
0.00292085
0.00177897
-0.00146854
0.00236625
0.0043192
-0.0037646
0.00136255
0.00607811
-0.00507441
0.0153559
-0.0139934
0.0037876
4.52372e-06
0.0037883
-8.01937e-07
0.00378585
1.49777e-05
0.00378565
1.02614e-05
0.00378175
2.44255e-05
0.00377953
3.17286e-05
0.0037728
4.31144e-05
0.0037662
7.48508e-05
0.00375379
8.11843e-05
0.00373777
0.000162614
0.00371326
0.000162676
0.00367684
0.000345417
0.00362478
0.000346073
0.00354226
0.000749084
0.00342082
0.000796501
0.0032231
0.00175339
0.00289591
0.00210615
0.00235802
0.00485709
0.00135196
0.00708417
0.0167079
0.00432155
2.14469e-06
-1.52708e-06
0.00432178
1.13542e-06
-1.36397e-06
0.00431977
7.65162e-06
-5.643e-06
0.0043187
9.23712e-06
-8.16308e-06
0.00431548
1.28891e-05
-9.6695e-06
0.00431181
2.41943e-05
-2.05286e-05
0.00430622
2.33787e-05
-1.77844e-05
0.0042973
5.34521e-05
-4.45347e-05
0.0042869
4.51182e-05
-3.47134e-05
0.00426724
0.000111768
-9.21101e-05
0.00424654
9.19937e-05
-7.1294e-05
0.00420449
0.000231509
-0.000189455
0.00416049
0.000197064
-0.000153064
0.00406911
0.000493787
-0.00040241
0.00396721