/*--------------------------------*- C++ -*----------------------------------*\
  =========                 |
  \\      /  F ield         | OpenFOAM: The Open Source CFD Toolbox
   \\    /   O peration     | Website:  https://openfoam.org
    \\  /    A nd           | Version:  7
     \\/     M anipulation  |
\*---------------------------------------------------------------------------*/
FoamFile
{
    version     2.0;
    format      ascii;
    class       volVectorField;
    location    "38";
    object      U;
}
// * * * * * * * * * * * * * * * * * * * * * * * * * * * * * * * * * * * * * //

dimensions      [0 1 -1 0 0 0 0];

internalField   nonuniform List<vector> 
11200
(
(0.329774 -0.132078 4.46884e-19)
(0.186624 -0.124699 -5.75078e-19)
(0.167331 -0.0997276 1.59503e-18)
(0.0723299 -0.107569 2.44451e-19)
(0.029745 -0.0948345 -2.76221e-19)
(-0.0424198 -0.0972196 4.23882e-19)
(-0.0936749 -0.0922223 -8.00755e-20)
(-0.155559 -0.0913529 1.49572e-19)
(-0.209322 -0.0879745 2.40696e-18)
(-0.264881 -0.0852185 -6.57728e-18)
(-0.316503 -0.0812535 -1.35295e-18)
(-0.366416 -0.0769457 1.2914e-17)
(-0.412946 -0.0719247 -1.20487e-18)
(-0.456349 -0.0664902 1.05944e-17)
(-0.496103 -0.0606758 -2.50168e-17)
(-0.532158 -0.0546391 5.34028e-18)
(-0.56437 -0.0484684 1.10551e-17)
(-0.592724 -0.0422521 -1.42604e-17)
(-0.617217 -0.0360475 -2.24155e-17)
(-0.637885 -0.0298983 -3.03762e-17)
(-0.65478 -0.0238335 -5.75456e-17)
(-0.667962 -0.0178778 -2.61307e-17)
(-0.677511 -0.0120531 -1.52487e-17)
(-0.683504 -0.00638107 -1.06713e-17)
(-0.686055 -0.000901881 -2.3323e-18)
(-0.685283 0.00437638 -3.57934e-17)
(-0.681312 0.00940098 1.51413e-17)
(-0.674319 0.014138 -3.512e-19)
(-0.664488 0.018546 1.86276e-17)
(-0.652036 0.0225856 6.17622e-18)
(-0.637202 0.0262216 -1.42216e-17)
(-0.620247 0.0294226 4.32745e-18)
(-0.601448 0.0321619 -2.87019e-17)
(-0.5811 0.0344196 2.30882e-17)
(-0.559507 0.0361832 -3.93081e-18)
(-0.536977 0.037449 -1.61599e-17)
(-0.513819 0.0382217 -2.8854e-18)
(-0.490336 0.038514 2.31945e-18)
(-0.46682 0.0383463 -2.03179e-17)
(-0.443549 0.037747 -2.61298e-17)
(-0.420779 0.0367512 -3.47856e-17)
(-0.398742 0.0354003 -3.54688e-17)
(-0.377643 0.0337408 -5.57452e-18)
(-0.357656 0.0318229 -9.25872e-18)
(-0.338923 0.0296996 3.78832e-18)
(-0.32155 0.027425 1.35234e-17)
(-0.305611 0.0250527 -1.26162e-17)
(-0.291147 0.0226346 -2.57628e-17)
(-0.278167 0.0202194 -2.56161e-18)
(-0.266653 0.0178509 -1.71912e-18)
(-0.25656 0.0155679 1.52998e-17)
(-0.247822 0.0134027 1.20583e-17)
(-0.240356 0.0113811 8.06697e-19)
(-0.234066 0.00952215 1.35545e-19)
(-0.228843 0.00783831 -3.97343e-18)
(-0.224578 0.00633605 -4.26424e-18)
(-0.221155 0.00501635 -1.54395e-17)
(-0.218462 0.00387573 1.0362e-17)
(-0.216389 0.00290657 4.53018e-18)
(-0.214834 0.00209769 2.66075e-18)
(-0.213702 0.00143594 -1.32583e-17)
(-0.212907 0.000906647 -8.64302e-18)
(-0.212374 0.000494684 -1.7718e-17)
(-0.212034 0.000184039 -1.75877e-17)
(-0.211834 -3.939e-05 -7.15534e-18)
(-0.211724 -0.000191654 -9.75105e-18)
(-0.211662 -0.000281872 -3.92181e-18)
(-0.211617 -0.00032215 -2.32841e-18)
(-0.211562 -0.000320865 -2.87604e-18)
(-0.211477 -0.000285252 3.44748e-18)
(-0.211342 -0.000221096 -1.5528e-17)
(-0.211143 -0.000131761 -1.20956e-17)
(-0.210867 -1.46339e-05 2.71997e-18)
(-0.2105 0.000110429 -1.50751e-17)
(-0.210029 0.000258033 7.98913e-18)
(-0.209445 0.000427172 -1.35751e-17)
(-0.208736 0.000618921 1.58798e-17)
(-0.207886 0.000836508 -5.22896e-18)
(-0.206879 0.00108368 -1.7594e-17)
(-0.205698 0.00136628 9.29366e-18)
(-0.204319 0.00168994 -5.76222e-18)
(-0.20272 0.00206488 -2.2832e-17)
(-0.200863 0.00249857 -8.08018e-18)
(-0.198726 0.00300955 -7.62853e-19)
(-0.19624 0.00360597 3.41153e-18)
(-0.193394 0.00432409 -1.59062e-17)
(-0.190053 0.00516752 1.25359e-17)
(-0.186256 0.00621308 1.93081e-17)
(-0.181705 0.00744363 3.16725e-17)
(-0.176617 0.00902841 2.18593e-17)
(-0.170259 0.0108968 1.84087e-17)
(-0.163419 0.0133872 1.13889e-17)
(-0.154198 0.0164109 -6.38992e-18)
(-0.145004 0.0203231 -9.76706e-19)
(-0.131077 0.0257604 1.09947e-17)
(-0.118469 0.0312237 1.01103e-17)
(-0.0975227 0.041555 -1.48239e-17)
(-0.0775924 0.0455167 -7.7607e-18)
(-0.0504875 0.0555791 -3.74178e-18)
(-0.0121646 0.0386134 -4.06378e-18)
(0.329263 -0.119261 8.63639e-19)
(0.18215 -0.112331 -8.59914e-19)
(0.163738 -0.0893879 -7.71074e-19)
(0.0671812 -0.0966263 -1.27863e-18)
(0.0246906 -0.0850155 1.98573e-19)
(-0.0481685 -0.0871355 -2.41261e-19)
(-0.099518 -0.0826373 -1.74605e-19)
(-0.161741 -0.0818509 2.00471e-19)
(-0.215672 -0.0788165 2.26177e-18)
(-0.271461 -0.0763438 -1.22376e-18)
(-0.323258 -0.0727935 -5.6935e-18)
(-0.373366 -0.0689386 1.46402e-17)
(-0.420079 -0.0644464 2.58272e-18)
(-0.463668 -0.0595836 1.75755e-17)
(-0.503601 -0.0543792 -2.02628e-17)
(-0.539827 -0.0489737 1.27262e-17)
(-0.572193 -0.0434458 1.57623e-17)
(-0.600683 -0.0378748 -1.76544e-17)
(-0.625288 -0.0323128 -1.92109e-17)
(-0.646043 -0.0267991 -1.70426e-17)
(-0.662998 -0.0213603 -4.16683e-17)
(-0.676212 -0.016019 -2.19105e-17)
(-0.685768 -0.0107949 -2.86394e-17)
(-0.691743 -0.00570762 1.71846e-18)
(-0.694252 -0.000791156 -2.31731e-19)
(-0.693416 0.00393917 -2.29426e-17)
(-0.68936 0.00844603 1.50803e-18)
(-0.682263 0.0126951 -6.02108e-18)
(-0.67231 0.0166494 2.02582e-17)
(-0.659719 0.0202736 -1.17574e-18)
(-0.64473 0.0235363 -1.7022e-17)
(-0.627604 0.0264095 8.90613e-18)
(-0.608621 0.0288691 -1.64599e-17)
(-0.588075 0.0308972 1.41619e-17)
(-0.566272 0.0324826 1.93856e-18)
(-0.543521 0.0336219 -1.67954e-17)
(-0.520132 0.0343192 5.93037e-18)
(-0.496411 0.0345857 4.90175e-18)
(-0.47265 0.0344399 -2.14398e-17)
(-0.449129 0.0339068 -3.13738e-17)
(-0.426106 0.0330179 -3.6189e-17)
(-0.403816 0.0318101 -2.98746e-17)
(-0.382466 0.030325 -9.62067e-18)
(-0.362232 0.0286075 1.83689e-18)
(-0.343256 0.0267049 1.10725e-17)
(-0.32565 0.0246657 2.31401e-18)
(-0.309489 0.0225379 -1.00818e-17)
(-0.294815 0.0203681 -2.24942e-17)
(-0.281639 0.0181998 -7.0121e-18)
(-0.269945 0.0160726 -1.70761e-18)
(-0.259687 0.0140212 5.60275e-18)
(-0.250803 0.0120748 1.24589e-17)
(-0.243208 0.0102566 -1.44542e-18)
(-0.236805 0.00858386 -1.59951e-18)
(-0.231488 0.00706789 -7.59467e-18)
(-0.227145 0.0057146 -5.00147e-18)
(-0.223662 0.00452494 -1.04045e-17)
(-0.220924 0.0034956 1.82455e-17)
(-0.218823 0.00261964 2.80042e-18)
(-0.217254 0.00188718 -8.72036e-19)
(-0.216122 0.00128666 -8.14922e-18)
(-0.215341 0.000805026 -1.38499e-17)
(-0.214832 0.000428784 -1.45978e-17)
(-0.21453 0.000143753 -1.39011e-17)
(-0.214377 -6.26061e-05 -9.5252e-18)
(-0.214323 -0.000202777 -1.73475e-17)
(-0.214326 -0.000287319 -5.81915e-18)
(-0.214353 -0.000326963 2.41102e-18)
(-0.214377 -0.000329184 -6.00737e-18)
(-0.214377 -0.00030044 8.23372e-18)
(-0.214333 -0.000245861 -1.51809e-17)
(-0.21423 -0.000168675 -1.38578e-17)
(-0.214055 -7.08689e-05 -5.43943e-18)
(-0.213793 4.5323e-05 -1.67186e-17)
(-0.213431 0.000174853 7.0502e-18)
(-0.212962 0.000324364 -9.1027e-18)
(-0.21237 0.000494267 1.57143e-17)
(-0.211641 0.000687417 -5.94961e-18)
(-0.210758 0.000907214 -1.60133e-17)
(-0.209705 0.00115893 1.60232e-19)
(-0.208456 0.00144765 -6.93451e-18)
(-0.206989 0.00178264 -2.61404e-17)
(-0.205264 0.00217066 -1.06239e-17)
(-0.203259 0.00262858 -8.77117e-18)
(-0.200902 0.00316372 5.05274e-18)
(-0.198182 0.00380919 -1.15454e-17)
(-0.194955 0.00456811 1.0465e-17)
(-0.191265 0.00551071 1.41021e-17)
(-0.186791 0.0066213 3.57739e-17)
(-0.181765 0.00805421 2.23684e-17)
(-0.175406 0.00974685 2.18874e-17)
(-0.168535 0.0120043 8.62835e-18)
(-0.15915 0.0147607 -6.41309e-18)
(-0.149706 0.0183149 1.16238e-19)
(-0.135323 0.0233043 1.30105e-17)
(-0.12192 0.0282912 1.46884e-17)
(-0.100062 0.0377287 -1.87944e-17)
(-0.0783327 0.0414737 -5.77787e-18)
(-0.0497751 0.050092 -3.23065e-18)
(-0.011659 0.0346576 -5.36329e-18)
(0.328746 -0.106102 1.66297e-18)
(0.177932 -0.0997371 -5.42176e-19)
(0.160386 -0.0789786 -4.39836e-20)
(0.062413 -0.0855689 -1.66627e-18)
(0.0200299 -0.0751356 -1.418e-18)
(-0.0534482 -0.0770139 -2.92942e-19)
(-0.104877 -0.073017 -3.11301e-19)
(-0.167393 -0.0723252 3.42511e-19)
(-0.221467 -0.0696383 2.62936e-18)
(-0.277452 -0.067457 -6.29577e-19)
(-0.329398 -0.064324 -4.58832e-18)
(-0.379673 -0.0609253 1.1006e-17)
(-0.42654 -0.0569635 7.04363e-18)
(-0.470288 -0.0526741 1.41851e-17)
(-0.510373 -0.0480808 -5.39899e-18)
(-0.546745 -0.0433076 1.08449e-17)
(-0.579244 -0.0384238 2.01747e-17)
(-0.60785 -0.0334997 -7.44751e-18)
(-0.63255 -0.0285815 -1.97023e-17)
(-0.653378 -0.0237046 -7.76339e-18)
(-0.670382 -0.0188929 -3.2732e-17)
(-0.683623 -0.0141667 -1.93495e-17)
(-0.69318 -0.0095439 -1.77404e-17)
(-0.699136 -0.00504199 1.87106e-17)
(-0.701604 -0.000691575 2.86796e-20)
(-0.700707 0.00349561 -1.42663e-17)
(-0.696572 0.00748494 1.73468e-17)
(-0.689379 0.0112458 -1.12348e-17)
(-0.679314 0.014746 2.71756e-17)
(-0.666596 0.0179545 1.24848e-17)
(-0.651465 0.0208434 1.1415e-18)
(-0.634185 0.0233878 1.54323e-17)
(-0.615035 0.0255666 -7.73409e-18)
(-0.594311 0.0273637 1.06498e-17)
(-0.572319 0.0287693 5.10325e-18)
(-0.54937 0.0297803 -2.06403e-17)
(-0.525775 0.0304003 -1.36437e-18)
(-0.50184 0.0306392 6.29837e-18)
(-0.47786 0.0305131 -2.75298e-17)
(-0.454116 0.0300443 -2.49771e-17)
(-0.430868 0.0292604 -2.7056e-17)
(-0.408352 0.0281941 -2.75707e-17)
(-0.386778 0.026882 -1.25793e-17)
(-0.366322 0.0253638 1.3846e-17)
(-0.347131 0.0236812 1.95914e-17)
(-0.329316 0.0218772 -9.15435e-18)
(-0.312956 0.019994 -1.01099e-17)
(-0.298093 0.018073 -2.31853e-17)
(-0.284742 0.0161526 -1.15718e-17)
(-0.272885 0.0142679 -1.89018e-18)
(-0.26248 0.0124497 -2.35376e-18)
(-0.253463 0.0107239 4.62988e-18)
(-0.245751 0.00911113 -4.16902e-18)
(-0.239247 0.0076267 -3.81104e-18)
(-0.233845 0.00628073 -2.22695e-18)
(-0.229431 0.00507849 -6.62141e-18)
(-0.225892 0.00402088 -7.18609e-18)
(-0.223114 0.00310495 1.95221e-17)
(-0.220985 0.00232469 7.23911e-19)
(-0.219402 0.00167174 5.08749e-18)
(-0.218269 0.00113584 -4.84183e-18)
(-0.217498 0.000705574 -1.15123e-17)
(-0.217011 0.000369111 -1.33894e-17)
(-0.216739 0.000114308 -1.21179e-17)
(-0.216627 -7.13633e-05 -1.33071e-17)
(-0.216622 -0.000200018 -1.69534e-17)
(-0.216681 -0.000278486 -7.8203e-18)
(-0.216772 -0.0003167 -2.80462e-18)
(-0.216865 -0.000321428 -1.09248e-17)
(-0.21694 -0.000298447 1.46356e-17)
(-0.216975 -0.000252349 -1.85531e-17)
(-0.216957 -0.000186053 -7.00414e-18)
(-0.21687 -0.000100628 -2.95524e-18)
(-0.216701 3.10115e-06 -2.17314e-17)
(-0.216437 0.000112754 8.22942e-18)
(-0.216067 0.00024192 -5.8396e-18)
(-0.215578 0.000389474 1.89181e-17)
(-0.214956 0.0005577 -9.00011e-18)
(-0.214183 0.000749609 -5.36606e-18)
(-0.213242 0.000969864 4.28888e-18)
(-0.212107 0.00122295 2.35129e-18)
(-0.210756 0.00151716 -3.38654e-17)
(-0.209148 0.00185847 -1.41444e-17)
(-0.207259 0.002262 -1.79938e-17)
(-0.205016 0.00273425 8.14693e-18)
(-0.202406 0.00330494 -1.01937e-17)
(-0.19928 0.0039768 1.16675e-17)
(-0.195682 0.0048129 1.12019e-17)
(-0.191276 0.00579939 3.36227e-17)
(-0.186305 0.00707424 2.49132e-17)
(-0.179943 0.00858407 1.5931e-17)
(-0.173041 0.0105971 6.76642e-18)
(-0.163514 0.0130705 -7.89861e-18)
(-0.153841 0.0162435 1.42765e-18)
(-0.139062 0.0207453 1.6868e-17)
(-0.124938 0.0252122 9.26869e-18)
(-0.102288 0.0336888 -1.43068e-17)
(-0.0789988 0.0371488 -4.47359e-18)
(-0.0491217 0.0444558 -3.3841e-18)
(-0.0112094 0.0307743 -7.51019e-18)
(0.328238 -0.0926382 3.03822e-18)
(0.174035 -0.0869188 -2.7891e-19)
(0.157319 -0.068527 9.1629e-19)
(0.0580805 -0.074398 -2.4195e-18)
(0.0158106 -0.0652074 -1.2734e-18)
(-0.05821 -0.0668459 4.31063e-19)
(-0.109703 -0.0633596 -3.68496e-19)
(-0.172469 -0.0627602 6.03095e-19)
(-0.226662 -0.0604253 3.58692e-18)
(-0.282812 -0.0585347 -3.67142e-19)
(-0.334883 -0.0558195 -4.11143e-18)
(-0.385297 -0.0528759 9.94208e-18)
(-0.432294 -0.0494441 1.34067e-17)
(-0.476175 -0.0457276 1.17362e-17)
(-0.516389 -0.0417461 9.17368e-18)
(-0.552883 -0.0376068 1.21701e-17)
(-0.585493 -0.0333697 2.71516e-17)
(-0.614196 -0.0290958 -2.39687e-18)
(-0.638977 -0.0248257 -2.36447e-17)
(-0.659865 -0.0205903 1.86345e-18)
(-0.67691 -0.0164109 -3.08471e-17)
(-0.69017 -0.0123053 -1.70996e-17)
(-0.699727 -0.00828919 -6.63049e-18)
(-0.705663 -0.00437802 1.60656e-17)
(-0.708092 -0.00059796 -3.71637e-18)
(-0.707138 0.00303969 1.91992e-17)
(-0.702932 0.00650616 9.93071e-18)
(-0.695652 0.00977409 -1.81594e-17)
(-0.685486 0.0128158 4.06426e-17)
(-0.672654 0.0156044 2.50198e-17)
(-0.657397 0.0181157 -5.0307e-18)
(-0.639979 0.020328 2.38601e-17)
(-0.62068 0.0222231 -2.25278e-18)
(-0.599798 0.0237868 1.05549e-17)
(-0.577638 0.0250106 5.77703e-18)
(-0.554514 0.0258919 -2.89191e-17)
(-0.530736 0.0264336 -5.62749e-18)
(-0.506613 0.0266443 8.02578e-18)
(-0.482441 0.026538 -2.42515e-17)
(-0.458501 0.0261338 -2.31255e-17)
(-0.435055 0.0254557 -3.79864e-17)
(-0.412341 0.0245321 -2.87262e-17)
(-0.390569 0.0233945 -1.46409e-17)
(-0.369919 0.0220774 1.6292e-17)
(-0.350538 0.0206171 1.77502e-17)
(-0.33254 0.0190505 -1.09998e-17)
(-0.316004 0.0174146 -1.14579e-17)
(-0.300975 0.0157451 -1.66509e-17)
(-0.287468 0.0140755 -1.68293e-17)
(-0.275468 0.0124363 -1.09715e-18)
(-0.264933 0.0108544 -1.03226e-17)
(-0.255798 0.00935216 -2.0647e-18)
(-0.247982 0.00794777 -8.02211e-18)
(-0.241388 0.00665455 -5.9052e-18)
(-0.23591 0.00548136 2.39737e-18)
(-0.231434 0.00443283 -9.21829e-18)
(-0.227845 0.00350982 -4.8367e-18)
(-0.225029 0.00270981 1.48681e-17)
(-0.222876 0.00202774 -2.29288e-18)
(-0.221279 0.00145657 1.24769e-17)
(-0.220144 0.00098736 -2.5557e-18)
(-0.21938 0.0006102 -1.08619e-17)
(-0.218911 0.000314777 -1.44551e-17)
(-0.218666 9.04642e-05 -1.25653e-17)
(-0.218589 -7.46259e-05 -8.13418e-18)
(-0.218626 -0.0001889 -1.92368e-17)
(-0.218733 -0.000259665 -1.01204e-17)
(-0.218878 -0.00029526 -7.83887e-18)
(-0.219032 -0.000301554 -1.7965e-17)
(-0.21917 -0.000283601 1.3882e-17)
(-0.219275 -0.000245458 -1.59227e-17)
(-0.21933 -0.000189733 -1.13151e-17)
(-0.219319 -0.000117733 -3.24239e-19)
(-0.219231 -2.8798e-05 -1.96071e-17)
(-0.219051 6.65517e-05 1.25853e-18)
(-0.218768 0.000176879 -3.9113e-18)
(-0.218369 0.00030316 1.50974e-17)
(-0.217839 0.000447375 -3.50966e-18)
(-0.217161 0.000612186 -7.10485e-18)
(-0.216318 0.000801647 -2.08348e-18)
(-0.215282 0.00101965 -6.1162e-19)
(-0.214031 0.00127345 -3.72619e-17)
(-0.212524 0.00156825 -1.78835e-17)
(-0.210737 0.00191732 -1.78375e-17)
(-0.208591 0.00232627 1.60218e-18)
(-0.206077 0.00282127 -1.09352e-17)
(-0.203038 0.00340458 1.51179e-17)
(-0.199521 0.00413175 9.79805e-18)
(-0.195174 0.00499063 2.45335e-17)
(-0.19025 0.00610218 1.79144e-17)
(-0.183886 0.00742148 1.13876e-17)
(-0.176956 0.0091797 5.42223e-18)
(-0.167306 0.0113522 -1.10502e-17)
(-0.157428 0.014125 3.33108e-18)
(-0.142312 0.0180989 2.44778e-17)
(-0.127548 0.0220123 5.3126e-18)
(-0.104216 0.0294737 -1.12594e-18)
(-0.0795858 0.0326019 -3.29781e-18)
(-0.0485189 0.0387749 -3.34897e-18)
(-0.0107977 0.0270136 -1.13406e-17)
(0.327753 -0.078897 1.82323e-18)
(0.170526 -0.0739011 -8.85704e-21)
(0.154579 -0.05804 2.2987e-18)
(0.054239 -0.0631277 -1.90864e-18)
(0.012081 -0.0552398 -1.31174e-18)
(-0.0624048 -0.0566366 4.99254e-19)
(-0.113948 -0.0536703 -4.96683e-19)
(-0.176923 -0.0531629 1.10633e-18)
(-0.231214 -0.0511835 5.3958e-18)
(-0.287501 -0.0495837 -5.87668e-19)
(-0.339673 -0.0472868 -3.93936e-18)
(-0.390202 -0.0447979 1.16947e-17)
(-0.437305 -0.0418956 1.07643e-17)
(-0.481296 -0.0387519 1.16748e-17)
(-0.521615 -0.0353828 2.63557e-17)
(-0.55821 -0.0318787 1.66214e-17)
(-0.590913 -0.0282903 1.95696e-17)
(-0.619696 -0.0246695 -1.44509e-18)
(-0.644543 -0.0210507 -8.89752e-18)
(-0.665481 -0.0174605 1.11743e-17)
(-0.682557 -0.0139171 -1.30659e-17)
(-0.695832 -0.0104358 -1.4391e-17)
(-0.705386 -0.00703015 5.88746e-18)
(-0.711303 -0.00371328 1.73973e-17)
(-0.713698 -0.000506666 -9.1635e-18)
(-0.712694 0.00257706 3.12488e-17)
(-0.708423 0.0055175 5.53584e-19)
(-0.701067 0.00828953 -7.15922e-19)
(-0.690812 0.01087 4.12571e-17)
(-0.67788 0.013236 3.52949e-17)
(-0.662513 0.015367 -1.32014e-17)
(-0.644974 0.0172448 1.31494e-17)
(-0.625546 0.0188538 -4.503e-19)
(-0.604526 0.020182 1.20185e-17)
(-0.582221 0.0212222 5.12263e-18)
(-0.558944 0.021972 -2.34257e-17)
(-0.535009 0.0224339 -6.88599e-18)
(-0.510723 0.0226151 1.01316e-17)
(-0.486384 0.0225275 -1.13751e-17)
(-0.462275 0.0221872 -2.49195e-17)
(-0.438658 0.0216146 -3.99936e-17)
(-0.415773 0.0208335 -1.80955e-17)
(-0.393832 0.0198706 -1.70659e-17)
(-0.373015 0.0187552 1.06572e-17)
(-0.35347 0.0175179 1.77169e-17)
(-0.335314 0.0161901 -1.68454e-17)
(-0.318626 0.014803 -1.51516e-17)
(-0.303455 0.0133868 -1.31404e-17)
(-0.289814 0.01197 -2.35663e-17)
(-0.277689 0.0105786 2.59389e-19)
(-0.267041 0.0092352 -2.05169e-17)
(-0.257805 0.0079591 -8.12704e-18)
(-0.249899 0.00676562 -3.05627e-18)
(-0.243227 0.00566616 -8.94228e-18)
(-0.237682 0.00466829 -2.07428e-18)
(-0.233151 0.003776 -3.65174e-18)
(-0.229519 0.00299003 -1.34488e-17)
(-0.226671 0.00230833 1.42352e-17)
(-0.224495 0.00172664 -6.78559e-18)
(-0.222886 0.00123914 1.21147e-17)
(-0.221748 0.000838309 -2.00388e-18)
(-0.220991 0.000515762 -2.4823e-18)
(-0.220535 0.000262732 -1.73558e-17)
(-0.220313 7.03457e-05 -3.99628e-18)
(-0.220264 -7.21209e-05 -4.14804e-18)
(-0.220337 -0.000171263 -1.43342e-17)
(-0.220485 -0.000233269 -1.35134e-17)
(-0.220676 -0.00026525 -1.41447e-17)
(-0.22088 -0.000272217 -2.77482e-17)
(-0.221074 -0.000258475 6.28042e-18)
(-0.221237 -0.000227498 -1.7405e-17)
(-0.221354 -0.000181521 -1.6523e-17)
(-0.221409 -0.000121719 -8.99194e-18)
(-0.221389 -4.8958e-05 -2.10257e-17)
(-0.221281 3.41864e-05 -4.5171e-18)
(-0.221071 0.000125585 -2.81138e-18)
(-0.220748 0.000231119 1.38863e-17)
(-0.220298 0.000351926 1.38079e-19)
(-0.219701 0.00049024 -9.92289e-18)
(-0.21894 0.000649478 -8.41032e-18)
(-0.217988 0.000832932 -4.023e-18)
(-0.216824 0.00104678 -3.55849e-17)
(-0.215402 0.00129544 -2.33423e-17)
(-0.213701 0.00159024 -2.0601e-17)
(-0.211639 0.00193593 -3.61581e-18)
(-0.209207 0.00235491 -1.41729e-17)
(-0.206241 0.00284905 9.88828e-18)
(-0.202794 0.0034659 -3.23026e-18)
(-0.198497 0.00419518 2.06556e-17)
(-0.193612 0.00513998 1.32833e-17)
(-0.187246 0.00626363 8.5828e-18)
(-0.180293 0.00775995 3.93163e-18)
(-0.170539 0.00961859 -1.67417e-17)
(-0.160484 0.0119786 5.94648e-18)
(-0.145084 0.0153936 2.3721e-17)
(-0.129767 0.0187313 8.93747e-19)
(-0.105857 0.025129 -1.39897e-18)
(-0.0800938 0.027878 -3.01768e-18)
(-0.0479777 0.0330128 -3.29856e-18)
(-0.0104262 0.0231874 -1.70298e-17)
(0.327309 -0.0649099 8.6175e-19)
(0.167473 -0.0607113 -6.43573e-19)
(0.152213 -0.0475238 7.73907e-19)
(0.0509412 -0.0517727 -1.68778e-18)
(0.00888786 -0.0452403 -1.50566e-18)
(-0.0659853 -0.0463928 7.24408e-19)
(-0.117567 -0.0439548 -4.89574e-19)
(-0.180712 -0.0435403 5.89043e-19)
(-0.23508 -0.041919 5.82976e-18)
(-0.291477 -0.0406111 -1.30052e-18)
(-0.343731 -0.038733 -4.32296e-18)
(-0.394352 -0.0366986 8.09594e-18)
(-0.44154 -0.0343258 9.77968e-18)
(-0.485618 -0.0317549 1.37618e-17)
(-0.526022 -0.0289986 3.49079e-17)
(-0.562699 -0.0261306 6.39738e-18)
(-0.595476 -0.0231924 1.34174e-17)
(-0.624324 -0.0202265 -3.86336e-18)
(-0.649224 -0.0172614 -1.68362e-17)
(-0.670202 -0.014319 7.78189e-20)
(-0.687304 -0.0114143 8.55311e-19)
(-0.700589 -0.0085601 -1.25263e-17)
(-0.71014 -0.00576759 -1.98347e-18)
(-0.71604 -0.00304762 1.89551e-17)
(-0.718404 -0.000417174 -1.69037e-17)
(-0.717356 0.00211039 2.41837e-17)
(-0.713031 0.00452258 1.37242e-17)
(-0.705609 0.00679655 1.98492e-17)
(-0.695279 0.00891357 2.65314e-17)
(-0.682262 0.0108549 2.10385e-17)
(-0.666801 0.0126037 -2.84522e-17)
(-0.649161 0.0141451 7.60117e-18)
(-0.629623 0.0154661 6.97559e-19)
(-0.608486 0.0165569 -5.0772e-18)
(-0.586058 0.0174117 -1.78891e-17)
(-0.562653 0.0180284 -2.37909e-17)
(-0.538585 0.018409 -6.36849e-18)
(-0.514162 0.0185595 -2.99609e-18)
(-0.489683 0.0184895 -1.92394e-17)
(-0.465432 0.0182122 -1.63819e-17)
(-0.441672 0.0177443 -3.23211e-17)
(-0.418644 0.0171052 -2.25472e-17)
(-0.39656 0.0163169 -2.0939e-17)
(-0.375603 0.0154033 9.27915e-18)
(-0.355922 0.0143894 6.7965e-18)
(-0.337633 0.0133009 -1.52939e-17)
(-0.320819 0.0121635 -2.0537e-17)
(-0.305527 0.011002 -1.19066e-17)
(-0.291773 0.00983955 -2.3079e-17)
(-0.279545 0.00869756 -7.61774e-18)
(-0.268801 0.00759468 -2.39575e-17)
(-0.25948 0.0065467 -1.49798e-17)
(-0.251499 0.00556623 -8.60783e-18)
(-0.244761 0.00466267 -1.32205e-17)
(-0.23916 0.00384228 -6.7944e-18)
(-0.234583 0.00310835 9.49033e-19)
(-0.230914 0.00246153 -1.37224e-17)
(-0.228038 0.00190016 6.46686e-18)
(-0.225843 0.00142074 -2.54267e-18)
(-0.224224 0.0010187 3.8481e-18)
(-0.223082 0.000687944 -2.23096e-18)
(-0.22233 0.000421623 -4.85201e-18)
(-0.221886 0.000212548 -2.34853e-17)
(-0.221681 5.35144e-05 4.4495e-18)
(-0.221657 -6.508e-05 -1.02273e-18)
(-0.221758 -0.000147978 -2.34228e-17)
(-0.22194 -0.000200274 -7.98242e-18)
(-0.222169 -0.000227793 -1.19207e-17)
(-0.222415 -0.000234661 -3.13248e-17)
(-0.222654 -0.00022443 9.98335e-19)
(-0.222866 -0.000199975 -2.2795e-17)
(-0.223034 -0.000163154 -2.44065e-17)
(-0.223143 -0.000114944 -1.86342e-17)
(-0.22318 -5.60139e-05 -2.62806e-17)
(-0.22313 1.19726e-05 -9.81024e-18)
(-0.222982 8.59599e-05 -1.98224e-18)
(-0.222723 0.000171351 4.16463e-18)
(-0.222337 0.000269184 3.04003e-18)
(-0.221807 0.000381393 -1.44101e-17)
(-0.221115 0.000510769 -1.64754e-17)
(-0.220233 0.000660001 -7.37093e-18)
(-0.21914 0.000834173 -2.92767e-17)
(-0.21779 0.00103689 -3.13116e-17)
(-0.216159 0.00127752 -2.56222e-17)
(-0.214167 0.00155992 -8.5567e-18)
(-0.211802 0.0019026 -2.04918e-17)
(-0.208898 0.00230707 8.14868e-18)
(-0.205508 0.00281256 -4.34869e-18)
(-0.201253 0.00341075 2.08684e-17)
(-0.196401 0.00418625 1.03071e-17)
(-0.190035 0.00511047 6.58578e-18)
(-0.183062 0.0063397 3.30612e-18)
(-0.173223 0.00787463 -2.65104e-17)
(-0.16302 0.00981273 1.06516e-17)
(-0.147388 0.0126436 2.73976e-17)
(-0.131608 0.0153889 -4.17815e-18)
(-0.107222 0.020682 -2.28496e-18)
(-0.080524 0.0230053 -3.28402e-18)
(-0.0475113 0.0271606 -3.46062e-18)
(-0.0101015 0.0192566 -1.46062e-17)
(0.326924 -0.0507142 1.94907e-20)
(0.164941 -0.0473767 -1.52777e-18)
(0.150261 -0.0369855 -5.57535e-19)
(0.0482362 -0.0403468 -1.70137e-18)
(0.0062745 -0.0352158 -2.0002e-18)
(-0.0689082 -0.0361205 2.39048e-19)
(-0.120518 -0.0342176 -5.75067e-19)
(-0.183796 -0.0338972 2.30529e-19)
(-0.238224 -0.0326361 4.60707e-18)
(-0.294706 -0.0316207 -3.01036e-18)
(-0.347023 -0.0301617 -5.39906e-18)
(-0.397715 -0.0285816 6.77657e-18)
(-0.444968 -0.0267378 1.07761e-17)
(-0.489115 -0.0247395 1.95231e-17)
(-0.529585 -0.0225961 3.54949e-17)
(-0.566325 -0.0203648 1.08874e-17)
(-0.59916 -0.0180779 2.71096e-17)
(-0.628059 -0.0157685 -1.05819e-17)
(-0.653 -0.013459 -6.77066e-18)
(-0.674008 -0.0111665 -9.11971e-18)
(-0.691129 -0.00890281 1.29163e-17)
(-0.704423 -0.00667807 -1.30138e-17)
(-0.71397 -0.00450106 -6.74107e-18)
(-0.719855 -0.00238032 2.43699e-17)
(-0.722195 -0.000328564 -2.9409e-17)
(-0.721111 0.0016409 2.56615e-17)
(-0.716741 0.00352279 2.7896e-17)
(-0.709266 0.0052966 1.79787e-17)
(-0.698874 0.00694817 1.76279e-17)
(-0.685788 0.00846285 3.02694e-17)
(-0.670251 0.00982756 -2.60546e-17)
(-0.652527 0.0110306 6.83171e-18)
(-0.632901 0.0120618 8.03304e-19)
(-0.611669 0.0129137 -2.30157e-18)
(-0.589142 0.0135815 -2.40784e-17)
(-0.565633 0.0140637 -2.66783e-17)
(-0.541457 0.0143618 -5.09668e-18)
(-0.516923 0.0144804 -1.69357e-17)
(-0.492331 0.014427 -1.47854e-17)
(-0.467965 0.014212 -1.091e-17)
(-0.44409 0.0138481 -1.55128e-17)
(-0.420947 0.0133507 -1.46658e-17)
(-0.398748 0.0127369 -2.61599e-17)
(-0.377678 0.0120252 1.22932e-17)
(-0.357887 0.0112352 9.01521e-18)
(-0.339492 0.0103868 -4.81789e-18)
(-0.322576 0.00949998 -1.68974e-17)
(-0.307187 0.00859412 -1.17603e-17)
(-0.293343 0.00768739 -2.61608e-17)
(-0.281031 0.00679635 -1.59267e-17)
(-0.270212 0.00593562 -3.13182e-17)
(-0.260821 0.0051175 -1.25204e-17)
(-0.252779 0.00435187 -1.47049e-17)
(-0.245989 0.00364607 -9.11152e-18)
(-0.240343 0.00300501 -1.3761e-18)
(-0.235728 0.00243128 6.22824e-18)
(-0.232029 0.0019254 -6.0703e-18)
(-0.229131 0.00148607 8.07365e-19)
(-0.22692 0.00111055 7.62838e-20)
(-0.225292 0.000795557 -3.33188e-18)
(-0.224148 0.000536373 -3.42296e-18)
(-0.223399 0.000327647 -8.16883e-18)
(-0.222964 0.00016377 -2.35738e-17)
(-0.222773 3.93076e-05 4.90321e-18)
(-0.222768 -5.42815e-05 1.35987e-18)
(-0.222892 -0.00012015 -2.60055e-17)
(-0.223101 -0.000161944 -2.68444e-18)
(-0.22336 -0.000184277 -1.15117e-18)
(-0.223639 -0.000190398 -2.97078e-17)
(-0.223914 -0.000183089 -1.99086e-18)
(-0.224164 -0.000164611 -2.21551e-17)
(-0.224373 -0.000136417 -2.45295e-17)
(-0.224525 -9.92572e-05 -1.88465e-17)
(-0.224607 -5.37471e-05 -2.43411e-17)
(-0.224605 2.34474e-06 -1.53269e-17)
(-0.224506 5.66761e-05 -1.26655e-17)
(-0.224297 0.000121862 7.15214e-18)
(-0.223963 0.000197016 6.62945e-18)
(-0.223486 0.000283455 -2.20226e-17)
(-0.222849 0.000383299 -1.4714e-17)
(-0.222023 0.000498626 -1.15416e-17)
(-0.220986 0.000633394 -2.8567e-17)
(-0.219692 0.00079041 -3.19546e-17)
(-0.218119 0.000976982 -2.18993e-17)
(-0.216182 0.00119614 -1.29595e-17)
(-0.213871 0.00146234 -3.05952e-17)
(-0.211016 0.0017768 -3.53623e-18)
(-0.207672 0.00217014 -6.6911e-18)
(-0.20345 0.0026361 1.28034e-17)
(-0.198626 0.00324038 8.23318e-18)
(-0.192259 0.0039622 5.72861e-18)
(-0.185271 0.00492057 2.77629e-18)
(-0.175365 0.00612395 -2.84882e-17)
(-0.165044 0.00763384 5.86064e-18)
(-0.149231 0.00985975 2.36091e-17)
(-0.13308 0.0120004 -1.13798e-17)
(-0.108315 0.016156 -3.04347e-18)
(-0.0808757 0.0180123 -3.95295e-18)
(-0.0471279 0.0212305 -3.22812e-18)
(-0.00982932 0.0152213 -1.55162e-17)
(0.326616 -0.0363515 -7.56259e-19)
(0.162986 -0.0339259 -1.90432e-18)
(0.14876 -0.0264309 -2.0742e-18)
(0.0461664 -0.0288644 -1.94362e-18)
(0.00427845 -0.0251727 -2.77548e-18)
(-0.071136 -0.0258261 -1.69301e-19)
(-0.122765 -0.0244645 -7.41205e-19)
(-0.186141 -0.0242392 3.2498e-20)
(-0.240612 -0.0233398 4.24668e-18)
(-0.297157 -0.0226176 -1.17634e-18)
(-0.349519 -0.0215777 -4.94668e-19)
(-0.400263 -0.0204515 7.47308e-18)
(-0.447564 -0.0191363 1.42001e-17)
(-0.491761 -0.0177101 1.8261e-17)
(-0.532279 -0.0161792 2.67e-17)
(-0.569066 -0.0145848 1.57185e-17)
(-0.601944 -0.0129497 2.67922e-17)
(-0.63088 -0.0112978 -3.12319e-18)
(-0.655851 -0.00964504 3.79928e-18)
(-0.676882 -0.00800392 -1.7586e-17)
(-0.694018 -0.00638298 2.88831e-17)
(-0.707317 -0.0047895 -1.90382e-17)
(-0.716861 -0.00322985 -9.30938e-18)
(-0.722735 -0.00171024 3.24501e-17)
(-0.725055 -0.000239399 -4.81563e-17)
(-0.723945 0.0011699 1.16818e-17)
(-0.71954 0.00252 1.9502e-17)
(-0.712025 0.00379187 1.74396e-17)
(-0.701586 0.00497618 1.13228e-17)
(-0.688447 0.00606245 4.10967e-17)
(-0.672852 0.00704131 -3.26238e-17)
(-0.655065 0.00790433 1.11963e-17)
(-0.635371 0.0086443 -1.63142e-18)
(-0.614067 0.00925573 -8.18601e-19)
(-0.591464 0.00973522 -3.59871e-17)
(-0.567876 0.0100816 -1.26741e-17)
(-0.543618 0.0102961 -2.94887e-18)
(-0.519001 0.0103819 -1.65665e-17)
(-0.494323 0.0103444 -1.19429e-17)
(-0.469871 0.0101909 -6.58478e-18)
(-0.445908 0.00993083 -1.58606e-18)
(-0.422677 0.00957494 -8.71104e-18)
(-0.400393 0.00913553 -2.06716e-17)
(-0.379238 0.00862587 2.03173e-17)
(-0.359364 0.00805998 1.19806e-17)
(-0.340889 0.00745217 2.79335e-18)
(-0.323895 0.00681674 -1.66046e-17)
(-0.308434 0.00616752 -1.34036e-17)
(-0.294522 0.00551754 -2.21717e-17)
(-0.282147 0.00487869 -1.4405e-17)
(-0.27127 0.00426143 -3.32287e-17)
(-0.261828 0.0036746 -1.02046e-17)
(-0.25374 0.00312528 -1.22623e-17)
(-0.246909 0.00261875 -6.2077e-18)
(-0.241229 0.00215853 4.15163e-18)
(-0.236587 0.00174648 1.22277e-17)
(-0.232865 0.00138297 -1.08192e-17)
(-0.22995 0.00106703 -3.9846e-18)
(-0.227727 0.000796604 2.66066e-18)
(-0.226092 0.000569975 -1.13087e-17)
(-0.224946 0.000383668 -5.19065e-18)
(-0.224199 0.000233694 -2.66525e-18)
(-0.223771 0.000115911 -1.69778e-17)
(-0.223591 2.63307e-05 7.58862e-18)
(-0.223599 -4.13718e-05 3.37669e-18)
(-0.22374 -8.91462e-05 -2.30281e-17)
(-0.223969 -0.000119646 3.66031e-18)
(-0.224251 -0.00013616 9.68448e-18)
(-0.224555 -0.000141012 -2.2825e-17)
(-0.224857 -0.000136201 -3.54905e-18)
(-0.225136 -0.000123361 -1.4921e-17)
(-0.225375 -0.000103547 -2.79459e-17)
(-0.225559 -7.73079e-05 -2.17409e-17)
(-0.225674 -4.51816e-05 -2.65392e-17)
(-0.225708 -5.27678e-06 -2.2228e-17)
(-0.225646 3.33909e-05 -1.32792e-17)
(-0.225474 7.96205e-05 1.23111e-17)
(-0.225179 0.000132843 1.05621e-17)
(-0.224742 0.000194099 -2.29751e-17)
(-0.224146 0.000264909 -1.49837e-17)
(-0.223361 0.000346759 -1.71871e-17)
(-0.222366 0.000442483 -2.13923e-17)
(-0.221115 0.000554092 -2.52007e-17)
(-0.219584 0.000686818 -2.07021e-17)
(-0.217689 0.000842843 -1.89641e-17)
(-0.215419 0.00103251 -3.38664e-17)
(-0.212601 0.00125675 -1.31691e-18)
(-0.209291 0.00153745 2.16832e-18)
(-0.205094 0.00187039 7.85606e-18)
(-0.200291 0.00230219 6.85144e-18)
(-0.193923 0.00281949 4.96571e-18)
(-0.186925 0.00350471 2.15187e-18)
(-0.17697 0.00437132 -2.32845e-17)
(-0.166562 0.00544961 3.6293e-18)
(-0.150614 0.00705548 1.14182e-17)
(-0.134185 0.00858435 -9.68855e-18)
(-0.109139 0.0115778 -3.89778e-18)
(-0.0811462 0.012933 -5.45954e-18)
(-0.0468333 0.0152392 -3.4849e-18)
(-0.00961532 0.0110744 -2.00442e-17)
(0.326399 -0.0218659 -1.67309e-18)
(0.161654 -0.020389 -1.71336e-18)
(0.147742 -0.0158644 -3.98399e-18)
(0.0447662 -0.0173403 -2.41879e-18)
(0.00292972 -0.015116 -4.07269e-18)
(-0.0726389 -0.0155158 -5.49785e-19)
(-0.12428 -0.0147003 -1.01552e-18)
(-0.187721 -0.0145713 -1.05761e-19)
(-0.242219 -0.0140355 4.77257e-18)
(-0.298805 -0.0136073 7.85306e-20)
(-0.351197 -0.0129872 4.98948e-18)
(-0.401974 -0.0123151 1.0371e-17)
(-0.449307 -0.0115284 1.04432e-17)
(-0.493536 -0.010674 2.04695e-17)
(-0.534087 -0.0097557 2.20842e-17)
(-0.570904 -0.0087981 2.26601e-17)
(-0.60381 -0.00781504 2.85745e-17)
(-0.632771 -0.00682095 9.8796e-19)
(-0.657763 -0.00582555 -7.41046e-18)
(-0.678809 -0.00483642 -2.84507e-17)
(-0.695954 -0.00385885 2.68739e-17)
(-0.709256 -0.00289729 -8.62464e-18)
(-0.718799 -0.00195566 -8.05692e-18)
(-0.724665 -0.0010377 4.41482e-17)
(-0.726973 -0.000147741 -5.34289e-17)
(-0.725844 0.000699056 7.85363e-18)
(-0.721416 0.00151697 1.57445e-17)
(-0.713873 0.00228632 -8.11417e-18)
(-0.703403 0.00300265 8.7145e-18)