/*--------------------------------*- C++ -*----------------------------------*\
  =========                 |
  \\      /  F ield         | OpenFOAM: The Open Source CFD Toolbox
   \\    /   O peration     | Website:  https://openfoam.org
    \\  /    A nd           | Version:  7
     \\/     M anipulation  |
\*---------------------------------------------------------------------------*/
FoamFile
{
    version     2.0;
    format      ascii;
    class       volVectorField;
    location    "112";
    object      U;
}
// * * * * * * * * * * * * * * * * * * * * * * * * * * * * * * * * * * * * * //

dimensions      [0 1 -1 0 0 0 0];

internalField   nonuniform List<vector> 
125
(
(1.34359 -0.215104 -3.18879e-19)
(1.33817 -0.218378 -5.5044e-19)
(1.33162 -0.221888 -5.63965e-19)
(1.32384 -0.225704 -6.87662e-19)
(1.31447 -0.229931 -7.53226e-19)
(1.30278 -0.234512 -6.14322e-19)
(1.3465 -0.190785 -2.40842e-20)
(1.35043 -0.192535 -2.22762e-19)
(1.35342 -0.194244 -3.33523e-19)
(1.35548 -0.195933 -2.85898e-19)
(1.35667 -0.197622 -8.01009e-20)
(1.357 -0.199338 -2.85019e-19)
(1.3565 -0.201102 -1.82776e-19)
(1.35519 -0.202938 -3.21507e-19)
(1.35308 -0.204872 -1.52534e-19)
(1.35015 -0.206927 -2.42173e-19)
(1.34636 -0.209125 -2.52715e-19)
(1.34165 -0.211478 -1.79215e-19)
(1.33596 -0.213986 -6.52014e-20)
(1.32923 -0.216647 -2.05809e-19)
(1.32131 -0.219491 -1.48556e-19)
(1.31184 -0.222554 -9.57725e-20)
(1.30032 -0.225694 2.38751e-20)
(1.35546 -0.192845 -4.53592e-19)
(1.35721 -0.194033 -3.00668e-19)
(1.35833 -0.195207 -7.77576e-20)
(1.35882 -0.196383 1.27352e-19)
(1.35871 -0.197579 -4.88764e-20)
(1.358 -0.198812 -1.69181e-20)
(1.3567 -0.200098 -2.02385e-19)
(1.35479 -0.201452 -7.80885e-20)
(1.35224 -0.202886 1.38282e-19)
(1.349 -0.204413 -5.37706e-20)
(1.34501 -0.206037 3.03724e-20)
(1.34018 -0.207756 3.20004e-19)
(1.33443 -0.209551 6.15885e-19)
(1.32766 -0.211408 9.26331e-19)
(1.31969 -0.213326 1.72501e-18)
(1.31023 -0.21529 2.98717e-18)
(1.29895 -0.217118 5.28223e-18)
(1.35904 -0.193736 -4.10196e-19)
(1.35968 -0.194552 -1.74139e-19)
(1.35989 -0.195366 -1.93293e-19)
(1.35966 -0.196189 -6.59473e-20)
(1.35899 -0.197033 7.57362e-20)
(1.35787 -0.197906 -1.24037e-19)
(1.35627 -0.198816 -9.67278e-20)
(1.35415 -0.199767 3.86082e-20)
(1.35146 -0.200762 4.56892e-19)
(1.34813 -0.201801 5.5587e-20)
(1.34409 -0.202877 4.03118e-19)
(1.33924 -0.203973 3.97265e-19)
(1.33348 -0.205063 7.90472e-19)
(1.32672 -0.206119 1.06261e-18)
(1.31878 -0.207119 1.68389e-18)
(1.30942 -0.208009 2.29518e-18)
(1.29844 -0.208593 2.98331e-18)
(1.36023 -0.194068 -4.01724e-19)
(1.36037 -0.19463 -3.9084e-20)
(1.36019 -0.195188 -3.84607e-19)
(1.35968 -0.195749 -5.00096e-19)
(1.35881 -0.196315 -1.20866e-18)
(1.35755 -0.196888 -1.94751e-18)
(1.35586 -0.197469 -3.79929e-18)
(1.35369 -0.198055 -5.86598e-18)
(1.35097 -0.198641 3.0275e-18)
(1.34764 -0.199218 -1.15681e-18)
(1.3436 -0.199773 7.54793e-19)
(1.33878 -0.200281 1.17891e-19)
(1.33308 -0.20071 5.15626e-19)
(1.32639 -0.20103 4.44438e-19)
(1.31855 -0.20121 5.12336e-19)
(1.30938 -0.201173 3.0734e-19)
(1.29877 -0.20073 -2.24747e-19)
(1.3605 -0.19414 -6.38463e-19)
(1.36045 -0.194504 -3.33638e-19)
(1.36013 -0.194851 -5.75021e-19)
(1.35953 -0.19518 -1.90325e-19)
(1.35861 -0.195489 -3.78468e-19)
(1.35731 -0.195773 -8.15165e-19)
(1.35561 -0.196027 -1.26073e-18)
(1.35344 -0.196241 -5.0512e-19)
(1.35074 -0.196403 9.3755e-19)
(1.34743 -0.196499 -3.232e-19)
(1.34343 -0.196505 5.32774e-19)
(1.33866 -0.196391 -1.37718e-19)
(1.33304 -0.196117 3.22561e-19)
(1.32643 -0.195644 1.63395e-19)
(1.31872 -0.194925 3.77679e-19)
(1.30977 -0.19386 3.90373e-19)
(1.29955 -0.192248 5.80591e-19)
(1.36046 -0.194221 -6.20871e-19)
(1.36035 -0.194437 -1.10048e-19)
(1.36001 -0.194621 -5.633e-19)
(1.35939 -0.194767 -2.4218e-19)
(1.35847 -0.194868 -5.79365e-20)
(1.35719 -0.194918 -1.82883e-19)
(1.35551 -0.194909 -1.79651e-19)
(1.35337 -0.194827 -5.66354e-20)
(1.35071 -0.194656 2.66759e-19)
(1.34745 -0.194377 -1.49472e-19)
(1.34353 -0.193964 3.33735e-19)
(1.33887 -0.193385 8.36506e-20)
(1.33338 -0.192598 3.67455e-19)
(1.32695 -0.191563 3.09242e-19)
(1.31947 -0.190236 5.79198e-19)
(1.31088 -0.188549 8.32908e-19)
(1.30114 -0.186349 1.39954e-18)
(1.36027 -0.194024 -3.6611e-19)
(1.36013 -0.194015 1.93459e-19)
(1.35977 -0.193941 -1.94564e-19)
(1.35914 -0.193791 -8.82617e-20)
(1.35821 -0.193555 2.32928e-19)
(1.35692 -0.193219 2.08616e-19)
(1.35524 -0.192766 1.21552e-19)
(1.3531 -0.192178 -3.5831e-20)
(1.35044 -0.19143 2.34324e-19)
(1.34719 -0.190497 1.28253e-19)
(1.34329 -0.189344 1.63091e-19)
(1.33865 -0.187936 1.21958e-19)
(1.3332 -0.18623 3.27778e-19)
(1.32682 -0.184181 3.87684e-19)
(1.31939 -0.181743 6.56177e-19)
(1.31086 -0.178869 9.08748e-19)
(1.30138 -0.175463 1.30462e-18)
)
;

boundaryField
{
    inlet
    {
        type            uniformFixedValue;
        uniformValue    constant (1 0 0);
        value           nonuniform 0();
    }
    outlet
    {
        type            pressureInletOutletVelocity;
        value           nonuniform 0();
    }
    polygon
    {
        type            fixedValue;
        value           nonuniform 0();
    }
    top
    {
        type            symmetryPlane;
    }
    bottom
    {
        type            symmetryPlane;
    }
    outside
    {
        type            zeroGradient;
    }
    procBoundary2to1
    {
        type            processor;
        value           nonuniform List<vector> 5((1.29483 -0.172701 1.53327e-18) (1.29402 -0.184383 1.90422e-18) (1.29219 -0.190701 9.44318e-19) (1.29097 -0.199972 -1.03965e-18) (1.29027 -0.208532 3.32388e-18));
    }
    procBoundary2to3
    {
        type            processor;
        value           nonuniform List<vector> 7((1.34157 -0.188974 -4.64913e-19) (1.35302 -0.191624 -2.74799e-19) (1.35795 -0.192906 -1.24969e-19) (1.35977 -0.193498 4.90856e-19) (1.36031 -0.193758 3.33889e-20) (1.36036 -0.193976 -1.08453e-19) (1.3602 -0.193977 -3.5588e-19));
    }
    procBoundary2to9
    {
        type            processor;
        value           nonuniform List<vector> 3((1.29036 -0.217911 8.01959e-18) (1.2913 -0.22741 -1.97988e-20) (1.29329 -0.237287 -3.58483e-19));
    }
    procBoundary2to10
    {
        type            processor;
        value           nonuniform List<vector> 
18
(
(1.34523 -0.218339 -1.18409e-18)
(1.34071 -0.222515 -9.69689e-19)
(1.33476 -0.226977 -1.09102e-18)
(1.32743 -0.23184 -1.18891e-18)
(1.31838 -0.237294 -1.81525e-18)
(1.30666 -0.243414 -2.51837e-18)
(1.32698 -0.186592 -3.69327e-19)
(1.33468 -0.189156 -3.73753e-19)
(1.34105 -0.191654 -6.71122e-19)
(1.34613 -0.194104 -2.29509e-19)
(1.34993 -0.196526 -2.94117e-19)
(1.35249 -0.198945 -6.35936e-19)
(1.35384 -0.201389 -7.59282e-19)
(1.35403 -0.203887 -5.19729e-19)
(1.35308 -0.20647 -4.33149e-19)
(1.35103 -0.209176 -4.68689e-19)
(1.34787 -0.212044 -6.61169e-19)
(1.34787 -0.212044 -6.61169e-19)
)
;
    }
}


// ************************************************************************* //
