/*--------------------------------*- C++ -*----------------------------------*\
  =========                 |
  \\      /  F ield         | OpenFOAM: The Open Source CFD Toolbox
   \\    /   O peration     | Website:  https://openfoam.org
    \\  /    A nd           | Version:  7
     \\/     M anipulation  |
\*---------------------------------------------------------------------------*/
FoamFile
{
    version     2.0;
    format      ascii;
    class       volVectorField;
    location    "74";
    object      U;
}
// * * * * * * * * * * * * * * * * * * * * * * * * * * * * * * * * * * * * * //

dimensions      [0 1 -1 0 0 0 0];

internalField   nonuniform List<vector> 
115
(
(1.30258 0.174282 1.48224e-18)
(1.30146 0.18605 3.37348e-18)
(1.29975 0.192668 -1.06124e-18)
(1.29844 0.201758 4.83233e-18)
(1.29772 0.210378 4.37374e-18)
(1.30598 0.175961 3.10582e-18)
(1.30502 0.18747 2.71246e-18)
(1.30339 0.193985 1.10775e-18)
(1.30226 0.203021 2.46257e-18)
(1.3017 0.211537 3.41912e-18)
(1.29433 0.170459 1.65428e-18)
(1.29307 0.182984 6.51377e-19)
(1.291 0.190021 -5.00679e-18)
(1.28932 0.199578 -3.54273e-19)
(1.2882 0.208715 4.57791e-18)
(1.28775 0.218503 -1.63714e-18)
(1.2987 0.172477 4.79901e-18)
(1.29751 0.184594 1.6927e-18)
(1.29563 0.191404 -3.93725e-18)
(1.29414 0.200696 4.78382e-18)
(1.29324 0.209547 3.12502e-18)
(1.28425 0.165841 7.99134e-18)
(1.28286 0.179275 -1.17881e-19)
(1.2804 0.186755 -4.14639e-18)
(1.27831 0.196931 4.07116e-19)
(1.27672 0.206716 3.85531e-18)
(1.27576 0.217185 6.56776e-18)
(1.28951 0.16822 3.80172e-18)
(1.2882 0.181148 -1.48328e-18)
(1.28595 0.188367 -6.4141e-18)
(1.28408 0.198166 1.22643e-18)
(1.28275 0.207565 2.32834e-18)
(1.28207 0.217621 3.07568e-18)
(1.27261 0.160505 8.31423e-18)
(1.27099 0.175008 3.74064e-20)
(1.26808 0.182955 -5.4924e-18)
(1.26554 0.193879 -1.45591e-18)
(1.26339 0.204412 4.4629e-18)
(1.26186 0.215702 6.37351e-18)
(1.27861 0.163222 4.54796e-18)
(1.27713 0.177134 -2.34941e-19)
(1.27447 0.184795 -2.11941e-18)
(1.27217 0.195271 4.79099e-18)
(1.27033 0.205364 3.06105e-18)
(1.26911 0.216159 2.69334e-18)
(1.25978 0.154587 5.27455e-18)
(1.25778 0.170278 1.05777e-18)
(1.25434 0.178728 -8.27147e-18)
(1.25122 0.190506 -3.34743e-19)
(1.24844 0.20186 6.20177e-18)
(1.24619 0.214086 1.57764e-17)
(1.26631 0.15757 1.52098e-17)
(1.26453 0.172617 6.64555e-19)
(1.26138 0.180762 -6.12029e-18)
(1.25858 0.192035 3.924e-20)
(1.25615 0.202907 -1.61566e-18)
(1.2543 0.21458 6.71371e-18)
(1.24658 0.14832 7.44831e-18)
(1.24399 0.165239 -3.24221e-18)
(1.24004 0.174232 3.2844e-19)
(1.23623 0.18693 6.7939e-18)
(1.2328 0.199152 3.61217e-18)
(1.22969 0.212361 8.14714e-18)
(1.25316 0.15144 1.23024e-17)
(1.2509 0.167702 -4.12617e-18)
(1.24721 0.176365 -3.74816e-18)
(1.24375 0.18853 -7.4965e-19)
(1.24064 0.200252 2.02058e-18)
(1.23798 0.212897 1.03513e-17)
(1.23389 0.142029 8.20379e-18)
(1.2304 0.160189 -5.92857e-18)
(1.22618 0.16989 -1.55695e-18)
(1.22169 0.18358 -9.91198e-19)
(1.21785 0.19671 -4.74913e-18)
(1.2402 0.145118 1.25207e-17)
(1.23722 0.162608 -1.34538e-17)
(1.23311 0.171872 -2.13646e-18)
(1.22899 0.184987 5.27781e-18)
(1.22536 0.197583 -5.535e-18)
(1.22191 0.211177 1.18352e-17)
(1.2204 0.136106 8.85387e-18)
(1.21591 0.155495 -1.14862e-17)
(1.21123 0.166074 6.43787e-19)
(1.2055 0.180619 -2.38555e-17)
(1.20033 0.194835 -6.63428e-18)
(1.22728 0.138952 5.58827e-18)
(1.22325 0.157701 -1.10989e-17)
(1.21895 0.167798 -1.06343e-17)
(1.21392 0.181903 -1.59911e-17)
(1.20961 0.195496 -6.99559e-18)
(1.08426 0.135923 1.91115e-17)
(1.1334 0.133911 -4.83438e-17)
(1.15981 0.189038 -1.03801e-17)
(1.09297 0.124359 3.06619e-17)
(1.14038 0.125266 -1.26258e-17)
(1.16894 0.172858 4.37725e-18)
(1.10093 0.112463 3.1074e-17)
(1.14661 0.116026 -4.37626e-17)
(1.17749 0.157141 -8.26032e-18)
(1.10783 0.103157 6.6669e-17)
(1.15204 0.108511 -7.39367e-18)
(1.18474 0.145087 5.34015e-17)
(1.11302 0.0860204 1.73647e-17)
(1.15584 0.0940463 -1.8478e-18)
(1.19073 0.12377 1.78187e-17)
(1.32177 0.181972 1.66677e-18)
(1.3125 0.178688 2.50907e-18)
(1.32169 0.191421 1.40504e-18)
(1.31208 0.189382 2.03143e-18)
(1.32072 0.196651 9.04992e-19)
(1.31068 0.195339 9.71383e-19)
(1.32039 0.203696 1.3816e-18)
(1.30998 0.203578 2.0858e-18)
(1.32056 0.210344 1.27641e-18)
(1.30981 0.211341 2.27486e-18)
)
;

boundaryField
{
    inlet
    {
        type            uniformFixedValue;
        uniformValue    constant (1 0 0);
        value           nonuniform 0();
    }
    outlet
    {
        type            pressureInletOutletVelocity;
        value           nonuniform 0();
    }
    polygon
    {
        type            fixedValue;
        value           nonuniform 0();
    }
    top
    {
        type            symmetryPlane;
    }
    bottom
    {
        type            symmetryPlane;
    }
    outside
    {
        type            zeroGradient;
    }
    procBoundary57to49
    {
        type            processor;
        value           nonuniform List<vector> 
23
(
(1.29772 0.219626 -1.95916e-18)
(1.3019 0.220691 -1.37374e-19)
(1.28809 0.228586 1.77526e-19)
(1.29302 0.219036 1.79778e-18)
(1.29302 0.219036 1.79778e-18)
(1.27554 0.228054 1.18095e-18)
(1.28215 0.22802 -2.20352e-18)
(1.26098 0.22749 -9.92525e-19)
(1.26858 0.227397 -8.49397e-19)
(1.24454 0.226915 6.50039e-19)
(1.25307 0.226793 2.58704e-18)
(1.22705 0.226345 5.0198e-18)
(1.23588 0.226208 7.09834e-18)
(1.21409 0.210843 5.31232e-18)
(1.21409 0.210843 5.31232e-18)
(1.2189 0.225639 6.09164e-18)
(1.19525 0.210003 4.40724e-18)
(1.20543 0.210045 2.15714e-18)
(1.07483 0.147441 6.74698e-18)
(1.12572 0.142274 -4.3722e-18)
(1.15 0.206035 8.994e-18)
(1.32152 0.217313 -5.70693e-20)
(1.31049 0.219611 -7.27348e-20)
)
;
    }
    procBoundary57to56
    {
        type            processor;
        value           nonuniform List<vector> 5((1.06825 0.0742006 6.10318e-18) (1.07461 0.0692572 6.24522e-17) (1.08024 0.0637661 7.99771e-18) (1.08494 0.0590587 -2.03888e-17) (1.0885 0.049511 -1.31351e-17));
    }
    procBoundary57to58
    {
        type            processor;
        value           nonuniform List<vector> 5((1.33008 0.184701 1.12786e-18) (1.3301 0.192929 9.09594e-19) (1.32944 0.197468 6.70289e-19) (1.32929 0.203477 9.26084e-19) (1.32958 0.209151 7.36231e-19));
    }
}


// ************************************************************************* //
