/*--------------------------------*- C++ -*----------------------------------*\
  =========                 |
  \\      /  F ield         | OpenFOAM: The Open Source CFD Toolbox
   \\    /   O peration     | Website:  https://openfoam.org
    \\  /    A nd           | Version:  7
     \\/     M anipulation  |
\*---------------------------------------------------------------------------*/
FoamFile
{
    version     2.0;
    format      ascii;
    class       volVectorField;
    location    "34";
    object      U;
}
// * * * * * * * * * * * * * * * * * * * * * * * * * * * * * * * * * * * * * //

dimensions      [0 1 -1 0 0 0 0];

internalField   nonuniform List<vector> 
115
(
(1.18583 0.1359 3.60602e-17)
(1.19092 0.137548 3.31674e-17)
(1.19477 0.138385 3.1337e-17)
(1.19773 0.138719 3.0839e-17)
(1.20013 0.138753 2.89949e-17)
(1.20226 0.138684 2.72599e-17)
(1.20437 0.138634 2.49939e-17)
(1.20669 0.138711 2.33647e-17)
(1.20939 0.138981 2.25342e-17)
(1.21256 0.139496 2.04006e-17)
(1.21628 0.140298 1.64713e-17)
(1.22057 0.141408 1.44122e-17)
(1.22544 0.142838 1.12941e-17)
(1.23086 0.144584 7.8479e-18)
(1.23678 0.146631 7.87539e-18)
(1.24316 0.148948 1.13714e-17)
(1.2499 0.151499 8.62338e-18)
(1.12067 0.130727 1.00651e-16)
(1.12531 0.133665 9.74467e-17)
(1.12914 0.135398 9.33135e-17)
(1.13245 0.136265 8.92549e-17)
(1.1355 0.136525 8.41676e-17)
(1.13852 0.136428 8.1331e-17)
(1.14171 0.136157 7.91784e-17)
(1.14525 0.135868 7.47542e-17)
(1.14928 0.135669 7.06264e-17)
(1.15388 0.135648 6.60721e-17)
(1.15911 0.135873 6.17594e-17)
(1.165 0.136396 5.47136e-17)
(1.17154 0.137251 4.49511e-17)
(1.1787 0.138458 2.97214e-17)
(1.18645 0.140019 6.05616e-18)
(1.19472 0.141922 3.12117e-17)
(1.20343 0.144139 4.87309e-17)
(1.03576 0.12739 1.05637e-17)
(1.03945 0.130774 9.70742e-18)
(1.04273 0.132831 7.79763e-18)
(1.04586 0.133875 8.18931e-18)
(1.04911 0.134166 8.66423e-18)
(1.05267 0.133955 6.90663e-18)
(1.0567 0.133448 6.56e-18)
(1.06134 0.132825 6.02696e-18)
(1.0667 0.132225 5.86079e-18)
(1.07282 0.131762 4.95265e-18)
(1.07973 0.131527 3.43597e-18)
(1.08746 0.131588 3.36486e-18)
(1.09597 0.131995 1.35961e-18)
(1.10522 0.132778 1.16881e-18)
(1.11517 0.133949 -7.92412e-19)
(1.12575 0.135505 -1.74676e-18)
(1.13686 0.137425 -5.99102e-18)
(0.945222 0.12511 2.91058e-18)
(0.947153 0.128732 3.18749e-18)
(0.948959 0.130834 1.76108e-18)
(0.950947 0.131746 8.10369e-19)
(0.953393 0.131759 1.27137e-18)
(0.956512 0.131146 1.81964e-18)
(0.960476 0.13014 1.47899e-18)
(0.965396 0.128945 1.13165e-18)
(0.971343 0.127727 -2.9036e-19)
(0.978346 0.126624 -1.86664e-19)
(0.986403 0.125746 1.86417e-19)
(0.995486 0.125178 8.96177e-20)
(1.00555 0.124983 -7.18456e-20)
(1.01654 0.125203 -1.72765e-18)
(1.02837 0.125861 -2.96122e-18)
(1.04098 0.126962 -4.07801e-18)
(1.05426 0.128492 -7.24776e-18)
(0.854963 0.124354 2.54284e-18)
(0.854656 0.128133 5.38681e-18)
(0.85428 0.130137 3.60188e-18)
(0.854217 0.13072 1.92654e-18)
(0.854816 0.130214 3.75267e-18)
(0.856362 0.128935 1.60573e-18)
(0.859077 0.12716 1.61068e-18)
(0.863105 0.125134 3.20881e-18)
(0.868524 0.123057 2.28824e-18)
(0.875356 0.121096 1.31459e-18)
(0.883574 0.119381 2.06098e-18)
(0.893122 0.118013 1.40097e-18)
(0.903921 0.117066 7.4027e-19)
(0.915879 0.11659 -9.96328e-19)
(0.928896 0.116613 -1.9794e-18)
(0.942868 0.117143 -3.20562e-18)
(0.957691 0.118174 -7.01889e-18)
(0.767291 0.125206 1.34231e-17)
(0.76496 0.129219 1.1779e-17)
(0.762363 0.131155 1.08028e-17)
(0.759939 0.131377 9.88743e-18)
(0.758115 0.130253 1.08646e-17)
(0.757273 0.128145 9.25069e-18)
(0.757731 0.125387 8.49531e-18)
(0.759723 0.12228 8.7114e-18)
(0.7634 0.119079 6.62594e-18)
(0.768825 0.115996 6.30495e-18)
(0.775995 0.113194 6.69245e-18)
(0.784848 0.110798 5.91027e-18)
(0.795286 0.108896 2.78861e-18)
(0.807186 0.107544 2.95635e-18)
(0.820417 0.106773 -1.58592e-19)
(0.834843 0.106593 2.06009e-18)
(0.850332 0.106994 1.5123e-19)
(0.681701 0.127181 3.9204e-17)
(0.678231 0.131643 3.88708e-17)
(0.674154 0.13372 3.68419e-17)
(0.669894 0.133759 3.38874e-17)
(0.665903 0.132136 3.18264e-17)
(0.662626 0.129241 3.00302e-17)
(0.660473 0.125461 2.83613e-17)
(0.659791 0.121156 2.64632e-17)
(0.660849 0.11665 2.31217e-17)
(0.663819 0.112216 2.23759e-17)
(0.668782 0.108074 2.08413e-17)
(0.675735 0.104393 1.9076e-17)
(0.684605 0.101289 1.33975e-17)
)
;

boundaryField
{
    inlet
    {
        type            uniformFixedValue;
        uniformValue    constant (1 0 0);
        value           nonuniform 0();
    }
    outlet
    {
        type            pressureInletOutletVelocity;
        value           nonuniform 0();
    }
    polygon
    {
        type            fixedValue;
        value           nonuniform 0();
    }
    top
    {
        type            symmetryPlane;
    }
    bottom
    {
        type            symmetryPlane;
    }
    outside
    {
        type            zeroGradient;
    }
    procBoundary61to53
    {
        type            processor;
        value           nonuniform List<vector> 
18
(
(0.695274 0.098835 8.98946e-18)
(0.707592 0.0970696 4.03224e-18)
(0.721395 0.0960011 1.23787e-17)
(0.736519 0.0956153 1.43465e-17)
(0.595924 0.129454 1.22192e-16)
(0.592493 0.1346 1.1474e-16)
(0.588145 0.137102 1.09836e-16)
(0.583217 0.137267 1.04682e-16)
(0.578101 0.135451 9.85336e-17)
(0.573222 0.132041 9.41968e-17)
(0.569016 0.127443 8.84258e-17)
(0.565898 0.12206 8.55764e-17)
(0.56424 0.116273 8.16996e-17)
(0.564341 0.110423 7.75766e-17)
(0.566414 0.1048 7.20594e-17)
(0.570577 0.0996368 6.70723e-17)
(0.695274 0.098835 8.98946e-18)
(0.576855 0.0951026 5.83205e-17)
)
;
    }
    procBoundary61to60
    {
        type            processor;
        value           nonuniform List<vector> 6((1.25694 0.154237 1.55288e-18) (1.21251 0.146635 2.59421e-17) (1.14843 0.13968 -1.33761e-17) (1.06812 0.130428 -9.42603e-18) (0.973256 0.119681 -1.32928e-17) (0.866758 0.107951 -4.23302e-18));
    }
    procBoundary61to62
    {
        type            processor;
        value           nonuniform List<vector> 7((1.17917 0.133153 3.65195e-17) (1.11497 0.126249 1.05153e-16) (1.03139 0.122365 1.12045e-17) (0.94283 0.119639 3.273e-18) (0.854804 0.118456 3.41184e-18) (0.768935 0.118784 1.32651e-17) (0.684188 0.120039 4.02281e-17));
    }
}


// ************************************************************************* //
