/*--------------------------------*- C++ -*----------------------------------*\
  =========                 |
  \\      /  F ield         | OpenFOAM: The Open Source CFD Toolbox
   \\    /   O peration     | Website:  https://openfoam.org
    \\  /    A nd           | Version:  7
     \\/     M anipulation  |
\*---------------------------------------------------------------------------*/
FoamFile
{
    version     2.0;
    format      ascii;
    class       volScalarField;
    location    "84";
    object      p;
}
// * * * * * * * * * * * * * * * * * * * * * * * * * * * * * * * * * * * * * //

dimensions      [0 2 -2 0 0 0 0];

internalField   nonuniform List<scalar> 
125
(
-0.0247066
-0.0248006
-0.0249145
-0.025051
-0.0252127
-0.0254019
-0.0256204
-0.0258697
-0.026151
-0.0264652
-0.0268131
-0.0271953
-0.0276119
-0.0280633
-0.0285494
-0.0290703
-0.0247121
-0.0248069
-0.0249217
-0.0250595
-0.0252228
-0.0254138
-0.0256344
-0.0258861
-0.02617
-0.0264872
-0.0268383
-0.0272238
-0.0276441
-0.0280994
-0.0285897
-0.029115
-0.0247165
-0.0248114
-0.0249265
-0.0250649
-0.025229
-0.025421
-0.0256428
-0.0258958
-0.0261812
-0.0265
-0.0268528
-0.0272401
-0.0276623
-0.0281195
-0.0286117
-0.0291389
-0.0247205
-0.0248151
-0.0249303
-0.0250689
-0.0252336
-0.0254264
-0.0256493
-0.0259036
-0.0261905
-0.026511
-0.0268658
-0.0272553
-0.0276799
-0.0281397
-0.0286347
-0.0291649
-0.0247244
-0.0248184
-0.0249333
-0.025072
-0.0252369
-0.0254304
-0.0256541
-0.0259095
-0.0261978
-0.02652
-0.0268766
-0.0272681
-0.0276949
-0.028157
-0.0286545
-0.0291872
-0.0247282
-0.0248213
-0.0249356
-0.0250739
-0.0252389
-0.0254327
-0.0256571
-0.0259135
-0.026203
-0.0265266
-0.0268849
-0.0272784
-0.0277072
-0.0281717
-0.0286717
-0.0292071
-0.0247319
-0.0248237
-0.024937
-0.0250748
-0.0252396
-0.0254335
-0.0256583
-0.0259155
-0.0262061
-0.026531
-0.0268909
-0.0272863
-0.0277172
-0.028184
-0.0286864
-0.0292245
-0.0247356
-0.0248259
-0.0249381
-0.0250751
-0.0252394
-0.0254333
-0.0256584
-0.0259161
-0.0262076
-0.0265337
-0.0268951
-0.0272921
-0.027725
)
;

boundaryField
{
    inlet
    {
        type            zeroGradient;
    }
    outlet
    {
        type            fixedValue;
        value           nonuniform 0();
    }
    polygon
    {
        type            zeroGradient;
    }
    top
    {
        type            symmetryPlane;
    }
    bottom
    {
        type            symmetryPlane;
    }
    outside
    {
        type            slip;
    }
    procBoundary29to21
    {
        type            processor;
        value           nonuniform List<scalar> 
17
(
-0.0281939
-0.0286987
-0.0292393
-0.0247395
-0.024828
-0.0249389
-0.0250751
-0.025239
-0.0254328
-0.0256581
-0.0259165
-0.026209
-0.0265363
-0.0268992
-0.027298
-0.0281939
-0.0277328
)
;
    }
    procBoundary29to22
    {
        type            processor;
        value           nonuniform List<scalar> 2(-0.0246582 -0.0246639);
    }
    procBoundary29to28
    {
        type            processor;
        value           nonuniform List<scalar> 6(-0.0296751 -0.0297008 -0.02973 -0.0297551 -0.0297777 -0.0297979);
    }
    procBoundary29to30
    {
        type            processor;
        value           nonuniform List<scalar> 6(-0.0246288 -0.0246339 -0.0246384 -0.0246429 -0.0246478 -0.0246529);
    }
    procBoundary29to36
    {
        type            processor;
        value           uniform -0.0296257;
    }
    procBoundary29to37
    {
        type            processor;
        value           nonuniform List<scalar> 
16
(
-0.0247063
-0.0248004
-0.0249142
-0.0250507
-0.0252125
-0.0254018
-0.0256203
-0.0258696
-0.0261509
-0.0264652
-0.0268132
-0.0271953
-0.027612
-0.0280634
-0.0285495
-0.0290704
)
;
    }
}


// ************************************************************************* //
