/*--------------------------------*- C++ -*----------------------------------*\
  =========                 |
  \\      /  F ield         | OpenFOAM: The Open Source CFD Toolbox
   \\    /   O peration     | Website:  https://openfoam.org
    \\  /    A nd           | Version:  7
     \\/     M anipulation  |
\*---------------------------------------------------------------------------*/
FoamFile
{
    version     2.0;
    format      ascii;
    class       volScalarField;
    location    "50";
    object      p;
}
// * * * * * * * * * * * * * * * * * * * * * * * * * * * * * * * * * * * * * //

dimensions      [0 2 -2 0 0 0 0];

internalField   nonuniform List<scalar> 
4000
(
0.0884689
0.0984166
0.101952
0.108103
0.111411
0.115216
0.117344
0.119341
0.119459
0.119268
0.115788
0.112597
0.102038
0.0937167
0.0685757
0.0404827
-0.022421
-0.136076
-0.300481
-0.819638
0.0785861
0.0881635
0.0914454
0.0969529
0.099753
0.102791
0.104119
0.104936
0.103675
0.101501
0.0958452
0.0889646
0.0741999
0.0564899
0.0229517
-0.0118787
-0.0671598
-0.0812462
-0.165942
0.0551328
0.069334
0.0787693
0.0818259
0.0869107
0.0891881
0.091516
0.0918712
0.0913458
0.0883923
0.0837599
0.0751641
0.063291
0.0428921
0.0165422
-0.0235976
-0.0646447
-0.11914
-0.171082
-0.219634
-0.359597
0.0604795
0.0696819
0.0724408
0.0770735
0.0787514
0.0802652
0.079537
0.0775762
0.0729264
0.0658072
0.053877
0.037177
0.0119448
-0.019576
-0.0595025
-0.0927079
-0.128692
-0.125374
-0.183092
-0.0683306
0.0518795
0.0607309
0.0631208
0.0672432
0.0682896
0.0689798
0.0672276
0.0639223
0.0575627
0.0479807
0.0329624
0.0121501
-0.0168289
-0.050768
-0.0867437
-0.111058
-0.134223
-0.159844
-0.164087
-0.184946
0.0435352
0.0519726
0.0539589
0.0575237
0.0578946
0.057688
0.0548584
0.0500194
0.0414872
0.029089
0.011026
-0.0129386
-0.0434509
-0.0757952
-0.103118
-0.116609
-0.135486
-0.128752
-0.148867
-0.0991214
0.0354831
0.0434705
0.0450465
0.048036
0.0477492
0.0466901
0.0428622
0.0367764
0.0268293
0.0127957
-0.00697295
-0.0326534
-0.0633808
-0.0925178
-0.112369
-0.122229
-0.133471
-0.138217
-0.135182
-0.127143
0.0277508
0.0352548
0.03642
0.0388008
0.0378542
0.0359325
0.0309474
0.0232538
0.0112147
-0.00533936
-0.0274777
-0.0546713
-0.0840325
-0.10759
-0.120714
-0.126989
-0.133517
-0.122991
-0.124464
-0.0978414
0.0203422
0.0273183
0.0280917
0.0298375
0.0282931
0.0255652
0.0197416
0.0112531
-0.0012437
-0.0176777
-0.0388775
-0.0645126
-0.0919554
-0.112286
-0.123359
-0.127332
-0.128362
-0.120256
-0.115942
-0.0991523
0.0132847
0.0196848
0.0201073
0.0211727
0.0190621
0.0154521
0.00866741
-0.00115715
-0.0155618
-0.034532
-0.0587127
-0.0877064
-0.116636
-0.137338
-0.144189
-0.137302
-0.126173
-0.109838
-0.103116
-0.0808588
0.19161
0.209306
0.215838
0.23079
0.24086
0.255888
0.269231
0.286217
0.304199
0.326197
0.351231
0.381992
0.417007
0.460715
0.508276
0.568942
0.625113
0.711104
0.75686
0.898889
0.181366
0.198606
0.204567
0.218836
0.227887
0.241834
0.25366
0.268863
0.284396
0.303481
0.324574
0.351134
0.380328
0.418273
0.455562
0.511451
0.549311
0.635645
0.651527
0.788315
0.171191
0.187706
0.193216
0.206486
0.214617
0.227255
0.237615
0.251016
0.264327
0.280931
0.298889
0.322385
0.347649
0.383433
0.417145
0.473102
0.509754
0.595611
0.61673
0.736625
0.161066
0.176798
0.181931
0.194266
0.201582
0.213024
0.22204
0.233784
0.24499
0.259155
0.273769
0.293731
0.313559
0.345099
0.369942
0.423201
0.445822
0.536151
0.542704
0.674579
0.150849
0.165794
0.170555
0.181991
0.188511
0.198764
0.206431
0.216466
0.225471
0.237017
0.248044
0.26419
0.278508
0.305332
0.323078
0.370411
0.388905
0.466053
0.481894
0.58928
0.140507
0.154649
0.159052
0.169578
0.175331
0.184379
0.190728
0.199055
0.205892
0.214823
0.222355
0.234604
0.243664
0.265359
0.276051
0.318108
0.326748
0.408696
0.411072
0.564415
0.130093
0.143413
0.1475
0.157112
0.16216
0.17002
0.175147
0.181821
0.186619
0.192916
0.197109
0.20524
0.209032
0.224097
0.227918
0.258018
0.260706
0.307222
0.319957
0.393529
0.119651
0.132135
0.135967
0.144682
0.149123
0.155839
0.159884
0.165009
0.167987
0.172146
0.173441
0.178263
0.17677
0.187124
0.18286
0.212182
0.203575
0.283383
0.262709
0.505328
0.109243
0.120883
0.124544
0.132375
0.136306
0.141929
0.145069
0.148811
0.150452
0.152789
0.151734
0.153128
0.147204
0.149682
0.136819
0.145733
0.123732
0.111134
0.0740207
0.0228419
0.0988362
0.109624
0.113205
0.12019
0.123758
0.128373
0.130841
0.133531
0.134174
0.135058
0.132251
0.131409
0.122623
0.122365
0.107368
0.12436
0.123746
0.217316
0.224059
0.557036
0.0988363
0.109624
0.113205
0.12019
0.123758
0.128373
0.130841
0.133531
0.134174
0.135058
0.132251
0.131409
0.122623
0.122365
0.107368
0.12436
0.123746
0.217316
0.224059
0.557036
0.109243
0.120883
0.124544
0.132375
0.136306
0.141929
0.145069
0.148811
0.150452
0.152789
0.151734
0.153128
0.147204
0.149682
0.136819
0.145733
0.123732
0.111134
0.0740207
0.0228419
0.119651
0.132135
0.135967
0.144682
0.149123
0.155839
0.159884
0.165009
0.167987
0.172146
0.173441
0.178263
0.17677
0.187124
0.18286
0.212182
0.203575
0.283383
0.262709
0.505328
0.130093
0.143413
0.1475
0.157112
0.16216
0.17002
0.175147
0.181821
0.186619
0.192916
0.197109
0.20524
0.209032
0.224097
0.227918
0.258018
0.260706
0.307222
0.319957
0.393529
0.140507
0.154649
0.159052
0.169578
0.175331
0.184379
0.190728
0.199055
0.205892
0.214823
0.222355
0.234604
0.243664
0.265359
0.276051
0.318108
0.326748
0.408696
0.411072
0.564415
0.150849
0.165794
0.170555
0.181991
0.188511
0.198764
0.206431
0.216466
0.225471
0.237017
0.248044
0.26419
0.278508
0.305332
0.323078
0.370411
0.388905
0.466053
0.481894
0.58928
0.161066
0.176798
0.181931
0.194266
0.201582
0.213024
0.22204
0.233784
0.24499
0.259155
0.273769
0.293731
0.313559
0.345099
0.369942
0.423201
0.445822
0.536151
0.542704
0.674579
0.171191
0.187706
0.193216
0.206486
0.214617
0.227255
0.237615
0.251016
0.264327
0.280931
0.298889
0.322385
0.347649
0.383433
0.417145
0.473102
0.509754
0.595611
0.61673
0.736625
0.181366
0.198606
0.204567
0.218836
0.227887
0.241834
0.25366
0.268863
0.284396
0.303481
0.324574
0.351134
0.380328
0.418273
0.455562
0.511451
0.549311
0.635645
0.651527
0.788315
0.19161
0.209306
0.215838
0.23079
0.24086
0.255888
0.269231
0.286217
0.304199
0.326197
0.351231
0.381992
0.417007
0.460715
0.508276
0.568942
0.625113
0.711104
0.75686
0.898889
0.0132848
0.0196849
0.0201074
0.0211727
0.0190621
0.0154521
0.00866745
-0.00115711
-0.0155617
-0.034532
-0.0587127
-0.0877063
-0.116636
-0.137338
-0.144189
-0.137302
-0.126173
-0.109838
-0.103116
-0.0808588
0.0203423
0.0273184
0.0280917
0.0298376
0.0282931
0.0255652
0.0197417
0.0112531
-0.00124366
-0.0176777
-0.0388775
-0.0645125
-0.0919553
-0.112286
-0.123359
-0.127332
-0.128362
-0.120256
-0.115942
-0.0991523
0.0277508
0.0352549
0.03642
0.0388008
0.0378543
0.0359325
0.0309474
0.0232539
0.0112148
-0.00533931
-0.0274776
-0.0546713
-0.0840325
-0.10759
-0.120714
-0.126989
-0.133517
-0.122991
-0.124464
-0.0978414
0.0354831
0.0434705
0.0450465
0.0480361
0.0477492
0.0466901
0.0428623
0.0367765
0.0268293
0.0127958
-0.00697291
-0.0326534
-0.0633808
-0.0925177
-0.112369
-0.122229
-0.133471
-0.138217
-0.135182
-0.127143
0.0435352
0.0519727
0.0539589
0.0575237
0.0578946
0.0576881
0.0548585
0.0500194
0.0414873
0.029089
0.0110261
-0.0129386
-0.0434509
-0.0757951
-0.103118
-0.116609
-0.135486
-0.128752
-0.148867
-0.0991214
0.0518795
0.0607309
0.0631208
0.0672432
0.0682896
0.0689799
0.0672277
0.0639223
0.0575628
0.0479808
0.0329624
0.0121502
-0.0168289
-0.0507679
-0.0867437
-0.111058
-0.134223
-0.159844
-0.164087
-0.184946
0.0604796
0.0696819
0.0724408
0.0770736
0.0787514
0.0802652
0.079537
0.0775762
0.0729265
0.0658072
0.053877
0.037177
0.0119448
-0.019576
-0.0595025
-0.0927079
-0.128692
-0.125374
-0.183092
-0.0683306
0.0693341
0.0787694
0.0818259
0.0869108
0.0891882
0.091516
0.0918712
0.0913459
0.0883924
0.0837599
0.0751641
0.0632911
0.0428921
0.0165422
-0.0235976
-0.0646446
-0.11914
-0.171082
-0.219634
-0.359597
0.0785861
0.0881636
0.0914454
0.0969529
0.0997531
0.102791
0.104119
0.104936
0.103675
0.101501
0.0958452
0.0889647
0.0742
0.0564899
0.0229517
-0.0118787
-0.0671597
-0.0812462
-0.165942
0.0551328
0.0884689
0.0984167
0.101952
0.108103
0.111411
0.115217
0.117344
0.119341
0.119459
0.119268
0.115788
0.112597
0.102038
0.0937167
0.0685757
0.0404827
-0.022421
-0.136076
-0.300481
-0.819638
0.224529
0.242774
0.251378
0.265968
0.278631
0.293456
0.308872
0.32601
0.344961
0.366261
0.390362
0.417971
0.449754
0.486407
0.527961
0.574685
0.624655
0.679134
0.729289
0.778195
0.267707
0.284022
0.292647
0.306491
0.319574
0.334597
0.35091
0.368876
0.388576
0.410184
0.433767
0.459348
0.486796
0.515869
0.546117
0.576961
0.606826
0.636583
0.658383
0.679986
0.304041
0.318386
0.325935
0.33783
0.348961
0.361383
0.374523
0.388564
0.403553
0.419535
0.436514
0.454427
0.473156
0.492448
0.511949
0.530966
0.549024
0.564627
0.576879
0.584479
0.331364
0.343287
0.349797
0.360056
0.369758
0.380573
0.391967
0.403997
0.416599
0.429681
0.443125
0.45678
0.470437
0.483854
0.496705
0.508667
0.519217
0.528038
0.534306
0.537896
0.352276
0.361584
0.366579
0.374409
0.381689
0.389717
0.398071
0.406781
0.415794
0.42504
0.43443
0.443847
0.45315
0.462154
0.470653
0.47838
0.485102
0.490478
0.494306
0.496309
0.368077
0.375516
0.379562
0.385908
0.391824
0.398323
0.405026
0.411935
0.418975
0.426063
0.433106
0.440003
0.446639
0.452893
0.458632
0.463724
0.468019
0.471399
0.473726
0.474922
0.3794
0.384797
0.38772
0.392296
0.396547
0.401195
0.405969
0.410867
0.415838
0.420821
0.425753
0.430561
0.435166
0.439482
0.443419
0.446883
0.449789
0.45205
0.453604
0.454396
0.388067
0.392342
0.394652
0.398271
0.401613
0.405252
0.408958
0.412728
0.41651
0.420256
0.423912
0.427424
0.430738
0.433798
0.43655
0.43894
0.44092
0.442448
0.443487
0.444013
0.394071
0.397042
0.398661
0.401193
0.403541
0.406096
0.408701
0.411351
0.414011
0.416646
0.419217
0.421688
0.424019
0.42617
0.428101
0.429776
0.431161
0.432228
0.432952
0.433319
0.398723
0.401086
0.402357
0.404345
0.406171
0.408149
0.41015
0.41217
0.414181
0.416155
0.418064
0.419882
0.42158
0.423133
0.424517
0.425709
0.426688
0.427438
0.427946
0.428203
0.40188
0.40348
0.404351
0.405717
0.406981
0.408353
0.409747
0.411159
0.412568
0.413954
0.415299
0.416582
0.417783
0.418883
0.419864
0.42071
0.421405
0.421938
0.422298
0.42248
0.404364
0.405649
0.406338
0.407415
0.4084
0.409463
0.410535
0.411613
0.412682
0.413726
0.414731
0.415684
0.41657
0.417377
0.418093
0.418706
0.419209
0.419594
0.419853
0.419984
0.406016
0.406872
0.407333
0.408065
0.408738
0.40947
0.410211
0.41096
0.411706
0.412437
0.413145
0.413817
0.414444
0.415017
0.415526
0.415963
0.416322
0.416596
0.416782
0.416875
0.407344
0.408044
0.408416
0.409
0.409531
0.410105
0.410681
0.41126
0.411832
0.412389
0.412925
0.413431
0.413901
0.414328
0.414706
0.415029
0.415294
0.415496
0.415632
0.415701
0.408204
0.408665
0.408909
0.409304
0.409663
0.410056
0.410453
0.410854
0.411253
0.411644
0.412021
0.412379
0.412713
0.413017
0.413287
0.413518
0.413708
0.413853
0.413951
0.414
0.408917
0.409305
0.409508
0.409831
0.410123
0.410438
0.410755
0.411072
0.411386
0.411691
0.411984
0.412261
0.412517
0.41275
0.412956
0.413132
0.413277
0.413386
0.413461
0.413498
0.409357
0.409614
0.409746
0.409968
0.410166
0.410386
0.410607
0.410831
0.411054
0.411272
0.411483
0.411683
0.411869
0.412039
0.41219
0.41232
0.412425
0.412506
0.412561
0.412589
0.409722
0.409947
0.410064
0.410254
0.410425
0.410611
0.410798
0.410986
0.411172
0.411353
0.411528
0.411692
0.411845
0.411984
0.412107
0.412212
0.412298
0.412363
0.412408
0.41243
0.409911
0.41006
0.410133
0.41027
0.410386
0.410524
0.41066
0.410801
0.410941
0.41108
0.411215
0.411343
0.411463
0.411572
0.411669
0.411753
0.411822
0.411874
0.411909
0.411927
0.4101
0.41024
0.410322
0.410453
0.410576
0.410712
0.41085
0.41099
0.411131
0.411268
0.411401
0.411527
0.411644
0.411751
0.411845
0.411926
0.411992
0.412043
0.412077
0.412094
0.00125647
0.00240878
0.00327276
0.00409265
0.00499515
0.00599155
0.00710033
0.00834853
0.00975617
0.0113349
0.0130882
0.0150096
0.0170781
0.0192541
0.0214754
0.0236544
0.0256772
0.0274049
0.0286832
0.0293676
0.00457392
0.0065725
0.00797891
0.00927993
0.010623
0.0120044
0.0134279
0.0149089
0.0164573
0.018074
0.0197533
0.0214839
0.0232467
0.0250134
0.0267457
0.0283933
0.0298928
0.0311635
0.0321054
0.0326128
0.00884689
0.0115765
0.0137604
0.0159786
0.0184106
0.0210653
0.023959
0.0271182
0.0305561
0.0342668
0.0382227
0.042371
0.0466305
0.0508886
0.055004
0.0588127
0.0621397
0.0648147
0.0666899
0.0676564
0.0130359
0.0158413
0.0181944
0.0205718
0.0231616
0.0259666
0.0289883
0.0322395
0.0357244
0.0394309
0.0433283
0.0473655
0.0514679
0.0555357
0.0594448
0.0630514
0.0662004
0.068737
0.0705211
0.0714434
0.0172686
0.0200791
0.0226795
0.0254302
0.0285471
0.0320499
0.0359445
0.0402392
0.0449288
0.0499816
0.0553335
0.0608858
0.0665039
0.0720203
0.0772432
0.0819704
0.0860062
0.0891801
0.0913628
0.0924727
0.0207713
0.0230586
0.0254555
0.028046
0.0310171
0.0344072
0.038219
0.0424495
0.047085
0.0520896
0.0573973
0.0629094
0.0684936
0.0739859
0.0791981
0.0839286
0.0879791
0.0911731
0.0933739
0.0944945
0.0235656
0.0251721
0.0272568
0.0297306
0.0326971
0.0362257
0.040332
0.0450089
0.0502291
0.0559345
0.0620273
0.068367
0.0747745
0.0810396
0.0869351
0.0922329
0.0967227
0.10023
0.102628
0.103843
0.0248096
0.0254852
0.0268844
0.02883
0.0313288
0.0344412
0.0381893
0.0425649
0.0475358
0.0530398
0.0589765
0.0652048
0.0715448
0.0777853
0.0836947
0.0890362
0.093586
0.0971536
0.0995995
0.10084
0.0241326
0.023891
0.0245346
0.025867
0.0278623
0.0305806
0.034051
0.0382688
0.0431978
0.0487628
0.0548425
0.0612712
0.0678441
0.074328
0.0804749
0.0860374
0.0907855
0.094521
0.097096
0.0983992
0.0213899
0.0198193
0.0195559
0.0199723
0.0210844
0.0229846
0.0256977
0.0292209
0.0335261
0.0385458
0.0441666
0.0502301
0.0565373
0.0628548
0.0689269
0.0744892
0.0792876
0.0830951
0.08574
0.0870946
0.016538
0.0132608
0.0119863
0.0112743
0.0112995
0.012196
0.0139861
0.0166774
0.0202552
0.0246592
0.0297767
0.0354475
0.04147
0.0476082
0.0536014
0.0591757
0.0640611
0.067995
0.0707604
0.0721979
0.00931752
0.00393305
0.00150165
-0.000667528
-0.00205288
-0.00252515
-0.00205669
-0.000608247
0.00183548
0.00524362
0.00952665
0.0145392
0.0200848
0.0259206
0.0317655
0.037319
0.0422555
0.0463059
0.0491799
0.0506777
-0.000435434
-0.00822256
-0.0119061
-0.0158073
-0.0188231
-0.0208835
-0.0219417
-0.0219042
-0.0207246
-0.0184153
-0.0150532
-0.0107783
-0.00578548
-0.000320726
0.00533097
0.0108267
0.0158572
0.0200476
0.0230754
0.0246701
-0.0128856
-0.0232774
-0.0282903
-0.0341765
-0.03903
-0.0428797
-0.0456472
-0.0471584
-0.0473329
-0.0461701
-0.0437414
-0.0401919
-0.0357295
-0.0306132
-0.0251613
-0.0197021
-0.0146317
-0.0103386
-0.00719784
-0.00553064
-0.0280348
-0.0410793
-0.0474198
-0.0554018
-0.0621088
-0.0677344
-0.0721412
-0.0750861
-0.0764848
-0.0763453
-0.0747537
-0.0718695
-0.0679124
-0.0631498
-0.0579179
-0.0525514
-0.0474824
-0.0431297
-0.0399135
-0.0381957
-0.0457827
-0.0613552
-0.06895
-0.0789844
-0.0873802
-0.0945903
-0.100378
-0.104474
-0.106824
-0.107468
-0.106523
-0.104175
-0.100653
-0.0962458
-0.0912494
-0.0860644
-0.0810935
-0.0767797
-0.0735675
-0.0718437
-0.0657778
-0.0835413
-0.0921947
-0.104009
-0.113706
-0.122103
-0.128841
-0.133699
-0.136674
-0.137849
-0.137377
-0.135459
-0.132331
-0.128277
-0.123598
-0.118672
-0.113899
-0.109725
-0.106599
-0.104916
-0.0874375
-0.106893
-0.116304
-0.129447
-0.139921
-0.149015
-0.156232
-0.161464
-0.164759
-0.166247
-0.166102
-0.16453
-0.16177
-0.158076
-0.153761
-0.149166
-0.144679
-0.140732
-0.137763
-0.136161
-0.109904
-0.130448
-0.140237
-0.154155
-0.164857
-0.174173
-0.181475
-0.186774
-0.190177
-0.191833
-0.19192
-0.190638
-0.188214
-0.184892
-0.180959
-0.176734
-0.172584
-0.168916
-0.166149
-0.164653
-0.132181
-0.153208
-0.162981
-0.177142
-0.187595
-0.196769
-0.203871
-0.209045
-0.212427
-0.214163
-0.214423
-0.213392
-0.211278
-0.20831
-0.204752
-0.2009
-0.197096
-0.193721
-0.19117
-0.189789
-0.15321
-0.174203
-0.183614
-0.197602
-0.207466
-0.216284
-0.223014
-0.227981
-0.231281
-0.233055
-0.233452
-0.232639
-0.2308
-0.228152
-0.224934
-0.221425
-0.217944
-0.214845
-0.212499
-0.211228
-0.172031
-0.19263
-0.201421
-0.214985
-0.224059
-0.23244
-0.238722
-0.243461
-0.246662
-0.248457
-0.248969
-0.248339
-0.246738
-0.244361
-0.241434
-0.238218
-0.235012
-0.232152
-0.229983
-0.228808
-0.187864
-0.207896
-0.215899
-0.228954
-0.237145
-0.245113
-0.250928
-0.255462
-0.258562
-0.260376
-0.260981
-0.260505
-0.259097
-0.256939
-0.254245
-0.251263
-0.248278
-0.245609
-0.243583
-0.242485
-0.200132
-0.219603
-0.226729
-0.23934
-0.24661
-0.254276
-0.259606
-0.264008
-0.266993
-0.268828
-0.269507
-0.269155
-0.267896
-0.265908
-0.26339
-0.260586
-0.257767
-0.255243
-0.253324
-0.252286
-0.208286
-0.227494
-0.233686
-0.246108
-0.252412
-0.259976
-0.264763
-0.269148
-0.271969
-0.27385
-0.274565
-0.274314
-0.273163
-0.271303
-0.268913
-0.266237
-0.263538
-0.261121
-0.259279
-0.258287
-0.211881
-0.231593
-0.236678
-0.249428
-0.254586
-0.262349
-0.266439
-0.270957
-0.273512
-0.275493
-0.276179
-0.276023
-0.274937
-0.273175
-0.270875
-0.268294
-0.265684
-0.263346
-0.26157
-0.26061
-0.211124
-0.232445
-0.235992
-0.249588
-0.253369
-0.261463
-0.26488
-0.269426
-0.271796
-0.273755
-0.27446
-0.274322
-0.273309
-0.271607
-0.269385
-0.266879
-0.264343
-0.26207
-0.260346
-0.259414
-0.209265
-0.2302
-0.233393
-0.246229
-0.24979
-0.25716
-0.260518
-0.264616
-0.266991
-0.268777
-0.269505
-0.269366
-0.268399
-0.266754
-0.264604
-0.262172
-0.259713
-0.25751
-0.255842
-0.25494
-0.205736
-0.225241
-0.228553
-0.240008
-0.243642
-0.250012
-0.253344
-0.256909
-0.25922
-0.260821
-0.261519
-0.261371
-0.260442
-0.25886
-0.256791
-0.254451
-0.252087
-0.249972
-0.248373
-0.247509
-0.200289
-0.218146
-0.221535
-0.231525
-0.235115
-0.240487
-0.243636
-0.246676
-0.248802
-0.250213
-0.250832
-0.250669
-0.249778
-0.248272
-0.246309
-0.24409
-0.241853
-0.239854
-0.238345
-0.237532
-0.192772
-0.209087
-0.212408
-0.221112
-0.224476
-0.228964
-0.23177
-0.234315
-0.236161
-0.237365
-0.237878
-0.237694
-0.23685
-0.235445
-0.23362
-0.231562
-0.229491
-0.227645
-0.226253
-0.225505
-0.183447
-0.198486
-0.201622
-0.209241
-0.212238
-0.215936
-0.218288
-0.22034
-0.221845
-0.222815
-0.223204
-0.222995
-0.222211
-0.220933
-0.219283
-0.217428
-0.215566
-0.21391
-0.212664
-0.211995
-0.172688
-0.186685
-0.189587
-0.196312
-0.198889
-0.201885
-0.203739
-0.205302
-0.20644
-0.207159
-0.207415
-0.207185
-0.206478
-0.205355
-0.203918
-0.202308
-0.200695
-0.199264
-0.198189
-0.197613
-0.161096
-0.174228
-0.176898
-0.182867
-0.185025
-0.187389
-0.188742
-0.189827
-0.190592
-0.191053
-0.191176
-0.19093
-0.190315
-0.18937
-0.188175
-0.186842
-0.185511
-0.184332
-0.183448
-0.182974
-0.149224
-0.161566
-0.164042
-0.169363
-0.17115
-0.172964
-0.173854
-0.174501
-0.174912
-0.175127
-0.175124
-0.174873
-0.174364
-0.173616
-0.172683
-0.171648
-0.170617
-0.169706
-0.169023
-0.168658
-0.137657
-0.149217
-0.151546
-0.156294
-0.15778
-0.159125
-0.159615
-0.159879
-0.159973
-0.159967
-0.159855
-0.15961
-0.159214
-0.15867
-0.158005
-0.157273
-0.156546
-0.155903
-0.155422
-0.155164
-0.126852
-0.137574
-0.139802
-0.144032
-0.145299
-0.146267
-0.146447
-0.146399
-0.146234
-0.146049
-0.145852
-0.145626
-0.145347
-0.145002
-0.144597
-0.144157
-0.143719
-0.143332
-0.143042
-0.142886
-0.117199
-0.127002
-0.12916
-0.132913
-0.134032
-0.134716
-0.134676
-0.134399
-0.134044
-0.133726
-0.133473
-0.133276
-0.13311
-0.13295
-0.132782
-0.132605
-0.132429
-0.132272
-0.132152
-0.132087
-0.108939
-0.117735
-0.119838
-0.123144
-0.124176
-0.124668
-0.124497
-0.124081
-0.123607
-0.123209
-0.12293
-0.12277
-0.122708
-0.122709
-0.122744
-0.12279
-0.122835
-0.12287
-0.122894
-0.122905
-0.102213
-0.109936
-0.111976
-0.114859
-0.115837
-0.11622
-0.115996
-0.115521
-0.114997
-0.114565
-0.114287
-0.114169
-0.114195
-0.114326
-0.114522
-0.114745
-0.114964
-0.115151
-0.115286
-0.115357
-0.0970281
-0.103646
-0.105601
-0.108083
-0.109029
-0.109367
-0.109155
-0.108692
-0.10818
-0.10776
-0.107506
-0.107433
-0.107528
-0.107755
-0.108067
-0.108416
-0.108757
-0.109051
-0.109266
-0.109379
-0.0933157
-0.0988367
-0.100675
-0.10278
-0.103699
-0.10403
-0.103876
-0.103479
-0.103027
-0.102655
-0.10244
-0.102407
-0.10255
-0.102836
-0.103217
-0.103641
-0.104056
-0.104414
-0.104677
-0.104815
-0.0909125
-0.0953903
-0.0970749
-0.0988377
-0.0997227
-0.100069
-0.100002
-0.0997095
-0.0993555
-0.0990607
-0.0989011
-0.0989083
-0.0990804
-0.0993928
-0.0998017
-0.100255
-0.100699
-0.101083
-0.101365
-0.101514
-0.0896122
-0.0931371
-0.0946377
-0.0960974
-0.0969321
-0.0973043
-0.097333
-0.097163
-0.0969266
-0.0967249
-0.0966262
-0.0966651
-0.0968472
-0.097158
-0.0975587
-0.0980022
-0.0984373
-0.0988144
-0.0990916
-0.0992382
-0.0891645
-0.0918549
-0.0931556
-0.0943575
-0.0951313
-0.0955349
-0.0956618
-0.0956226
-0.0955195
-0.0954291
-0.0954079
-0.0954886
-0.0956785
-0.0959702
-0.0963395
-0.0967467
-0.0971467
-0.0974942
-0.09775
-0.0978856
-0.0893142
-0.0913044
-0.092406
-0.0933973
-0.0941085
-0.0945445
-0.0947643
-0.0948485
-0.0948731
-0.0948887
-0.0949362
-0.0950429
-0.0952242
-0.0954868
-0.0958071
-0.0961574
-0.0965013
-0.0968008
-0.0970218
-0.0971391
-0.0898031
-0.0912332
-0.0921547
-0.0929865
-0.0936527
-0.0941309
-0.0944496
-0.0946607
-0.0948223
-0.0949645
-0.0951127
-0.0952876
-0.0954999
-0.0957356
-0.096007
-0.0962973
-0.09658
-0.096826
-0.0970078
-0.0971043
-0.0903919
-0.0913953
-0.0921681
-0.0928929
-0.0935439
-0.0940795
-0.0945025
-0.0948327
-0.0951099
-0.0953473
-0.0955514
-0.0957357
-0.0959109
-0.0961167
-0.0963361
-0.0965599
-0.0967745
-0.0969601
-0.0970972
-0.0971701
-0.0908526
-0.0915475
-0.0922129
-0.0928894
-0.0935736
-0.0942078
-0.0947747
-0.0952659
-0.0957076
-0.09611
-0.0964681
-0.0967837
-0.0970624
-0.0972895
-0.0974803
-0.0976583
-0.0978197
-0.0979556
-0.0980548
-0.0981073
-0.0909626
-0.0914446
-0.0920492
-0.0927348
-0.0935059
-0.0942836
-0.0950287
-0.0956892
-0.0962581
-0.0967315
-0.0971002
-0.0973678
-0.0975566
-0.0977079
-0.0978569
-0.0979761
-0.0980745
-0.0981531
-0.098209
-0.0982382
-0.0904901
-0.090838
-0.091442
-0.092199
-0.0931303
-0.0941375
-0.0951707
-0.09614
-0.0970193
-0.0978027
-0.0984801
-0.099031
-0.0994625
-0.0997867
-0.0999397
-0.100051
-0.10012
-0.100164
-0.100191
-0.100204
-0.0891978
-0.0894707
-0.0901173
-0.0909897
-0.092136
-0.0934278
-0.0947997
-0.0960884
-0.0971856
-0.098037
-0.0986479
-0.0990314
-0.099249
-0.0993287
-0.0994381
-0.0994773
-0.0994798
-0.0994643
-0.0994455
-0.0994335
-0.0868431
-0.0870364
-0.0877689
-0.088814
-0.0902723
-0.0919919
-0.093917
-0.0958524
-0.0976548
-0.0992191
-0.100528
-0.101558
-0.10231
-0.102838
-0.103079
-0.103149
-0.103145
-0.103097
-0.103047
-0.103015
-0.0830494
-0.0831294
-0.08397
-0.0852075
-0.0870111
-0.0891872
-0.0916798
-0.0941933
-0.0964473
-0.0981685
-0.0993186
-0.0999762
-0.100266
-0.100328
-0.100327
-0.100307
-0.100201
-0.100068
-0.0999483
-0.0998773
-0.0773637
-0.077314
-0.0783169
-0.0798152
-0.0820924
-0.0849375
-0.0883523
-0.0920721
-0.0958108
-0.0991769
-0.101949
-0.104085
-0.105579
-0.106518
-0.107035
-0.107037
-0.106911
-0.106665
-0.106442
-0.106295
-0.0692903
-0.0689891
-0.0701252
-0.071822
-0.0745241
-0.07795
-0.0821063
-0.086632
-0.0911002
-0.0948388
-0.0974107
-0.0988198
-0.0994436
-0.0996094
-0.0994963
-0.099518
-0.0992902
-0.098966
-0.0986437
-0.0984235
-0.0584206
-0.0576869
-0.0589025
-0.0607501
-0.0640022
-0.0683818
-0.0740117
-0.080633
-0.0879006
-0.0951036
-0.101403
-0.106238
-0.109619
-0.111572
-0.112566
-0.112477
-0.111912
-0.110919
-0.110025
-0.109302
-0.0442081
-0.042757
-0.0438558
-0.0455148
-0.0488141
-0.0533535
-0.0593099
-0.0664157
-0.0742674
-0.0818411
-0.0878008
-0.0914071
-0.0930434
-0.0939635
-0.0944939
-0.0950364
-0.0952042
-0.0946763
-0.093962
-0.0931387
-0.0259858
-0.0235779
-0.0247203
-0.0265294
-0.0305792
-0.0364654
-0.0445882
-0.0549124
-0.0673738
-0.0813661
-0.0956978
-0.108222
-0.117037
-0.121869
-0.123662
-0.123033
-0.120824
-0.116217
-0.112387
-0.107713
-0.00298479
0.0017291
0.00157242
0.00104627
-0.00208856
-0.00734077
-0.0151753
-0.0253544
-0.0374976
-0.0500476
-0.059507
-0.0633564
-0.063214
-0.0654662
-0.0727061
-0.0793102
-0.0845335
-0.0867517
-0.0876074
-0.0851027
0.4101
0.41024
0.410322
0.410453
0.410576
0.410712
0.41085
0.41099
0.41113
0.411268
0.411401
0.411527
0.411644
0.41175
0.411845
0.411926
0.411992
0.412043
0.412077
0.412094
0.409911
0.41006
0.410133
0.41027
0.410386
0.410524
0.41066
0.410801
0.410941
0.41108
0.411215
0.411343
0.411463
0.411572
0.411669
0.411753
0.411822
0.411874
0.411909
0.411927
0.409722
0.409947
0.410064
0.410254
0.410425
0.410611
0.410798
0.410986
0.411172
0.411353
0.411528
0.411692
0.411845
0.411984
0.412107
0.412212
0.412298
0.412363
0.412408
0.41243
0.409357
0.409614
0.409746
0.409968
0.410166
0.410386
0.410607
0.410831
0.411054
0.411272
0.411483
0.411683
0.411869
0.412039
0.41219
0.412319
0.412425
0.412506
0.412561
0.412589
0.408917
0.409305
0.409508
0.409831
0.410123
0.410438
0.410755
0.411072
0.411386
0.411691
0.411984
0.412261
0.412517
0.41275
0.412956
0.413132
0.413277
0.413386
0.413461
0.413498
0.408204
0.408665
0.408909
0.409304
0.409663
0.410056
0.410453
0.410854
0.411253
0.411644
0.412021
0.412379
0.412713
0.413017
0.413287
0.413518
0.413708
0.413853
0.413951
0.414
0.407344
0.408044
0.408416
0.409
0.409531
0.410105
0.410681
0.41126
0.411831
0.412389
0.412925
0.413431
0.413901
0.414328
0.414705
0.415029
0.415294
0.415496
0.415632
0.415701
0.406016
0.406872
0.407333
0.408065
0.408738
0.40947
0.410211
0.41096
0.411705
0.412437
0.413144
0.413817
0.414444
0.415017
0.415526
0.415963
0.416322
0.416596
0.416782
0.416875
0.404364
0.405649
0.406338
0.407415
0.4084
0.409463
0.410535
0.411613
0.412682
0.413726
0.414731
0.415684
0.41657
0.417377
0.418093
0.418706
0.419209
0.419594
0.419853
0.419984
0.40188
0.40348
0.404351
0.405717
0.406981
0.408353
0.409747
0.411158
0.412568
0.413954
0.415299
0.416582
0.417783
0.418883
0.419864
0.42071
0.421405
0.421938
0.422298
0.42248
0.398723
0.401086
0.402356
0.404345
0.406171
0.408149
0.41015
0.41217
0.414181
0.416155
0.418064
0.419882
0.42158
0.423133
0.424517
0.425709
0.426688
0.427438
0.427946
0.428203
0.394071
0.397042
0.398661
0.401193
0.403541
0.406096
0.408701
0.411351
0.414011
0.416646
0.419217
0.421688
0.424019
0.42617
0.428101
0.429776
0.431161
0.432228
0.432952
0.433319
0.388067
0.392342
0.394652
0.398271
0.401613
0.405252
0.408958
0.412728
0.41651
0.420256
0.423912
0.427424
0.430738
0.433798
0.43655
0.43894
0.44092
0.442448
0.443487
0.444013
0.3794
0.384797
0.38772
0.392296
0.396547
0.401195
0.405969
0.410867
0.415838
0.420821
0.425753
0.430561
0.435166
0.439482
0.443419
0.446883
0.449789
0.45205
0.453604
0.454396
0.368077
0.375516
0.379562
0.385908
0.391824
0.398323
0.405026
0.411935
0.418975
0.426063
0.433106
0.440003
0.446639
0.452893
0.458632
0.463724
0.468019
0.471399
0.473726
0.474922
0.352276
0.361584
0.366579
0.374409
0.381689
0.389717
0.398071
0.406781
0.415794
0.42504
0.43443
0.443847
0.45315
0.462154
0.470653
0.47838
0.485102
0.490478
0.494306
0.496309
0.331364
0.343287
0.349797
0.360057
0.369758
0.380573
0.391967
0.403997
0.416599
0.429681
0.443125
0.45678
0.470437
0.483854
0.496705
0.508667
0.519217
0.528038
0.534306
0.537896
0.304041
0.318386
0.325935
0.33783
0.348961
0.361383
0.374523
0.388564
0.403553
0.419535
0.436514
0.454427
0.473156
0.492448
0.511949
0.530966
0.549024
0.564627
0.576879
0.584479
0.267707
0.284022
0.292647
0.306491
0.319574
0.334597
0.35091
0.368876
0.388576
0.410184
0.433767
0.459348
0.486796
0.515869
0.546117
0.576961
0.606826
0.636583
0.658383
0.679986
0.224529
0.242774
0.251378
0.265968
0.278631
0.293456
0.308872
0.32601
0.344961
0.366261
0.390362
0.417971
0.449754
0.486407
0.527961
0.574685
0.624655
0.679134
0.729289
0.778195
-0.00298484
0.00172905
0.00157237
0.00104622
-0.0020886
-0.00734082
-0.0151754
-0.0253544
-0.0374976
-0.0500477
-0.0595071
-0.0633564
-0.063214
-0.0654662
-0.0727061
-0.0793103
-0.0845335
-0.0867517
-0.0876075
-0.0851027
-0.0259859
-0.0235779
-0.0247203
-0.0265294
-0.0305792
-0.0364655
-0.0445882
-0.0549124
-0.0673738
-0.0813661
-0.0956979
-0.108222
-0.117037
-0.121869
-0.123662
-0.123033
-0.120824
-0.116217
-0.112387
-0.107713
-0.0442081
-0.042757
-0.0438558
-0.0455148
-0.0488142
-0.0533535
-0.0593099
-0.0664158
-0.0742674
-0.0818411
-0.0878008
-0.0914071
-0.0930434
-0.0939635
-0.0944939
-0.0950364
-0.0952042
-0.0946763
-0.093962
-0.0931387
-0.0584206
-0.057687
-0.0589026
-0.0607501
-0.0640022
-0.0683818
-0.0740117
-0.080633
-0.0879006
-0.0951036
-0.101403
-0.106238
-0.109619
-0.111572
-0.112566
-0.112477
-0.111912
-0.110919
-0.110025
-0.109302
-0.0692904
-0.0689891
-0.0701252
-0.071822
-0.0745241
-0.07795
-0.0821063
-0.086632
-0.0911002
-0.0948388
-0.0974107
-0.0988198
-0.0994437
-0.0996094
-0.0994963
-0.0995181
-0.0992902
-0.098966
-0.0986438
-0.0984235
-0.0773637
-0.077314
-0.0783169
-0.0798153
-0.0820925
-0.0849375
-0.0883523
-0.0920721
-0.0958108
-0.0991769
-0.101949
-0.104085
-0.105579
-0.106518
-0.107035
-0.107037
-0.106911
-0.106665
-0.106442
-0.106295
-0.0830494
-0.0831294
-0.08397
-0.0852075
-0.0870111
-0.0891872
-0.0916798
-0.0941933
-0.0964473
-0.0981685
-0.0993186
-0.0999762
-0.100266
-0.100328
-0.100327
-0.100307
-0.100201
-0.100068
-0.0999483
-0.0998773
-0.0868431
-0.0870364
-0.0877689
-0.088814
-0.0902723
-0.0919919
-0.093917
-0.0958524
-0.0976548
-0.0992191
-0.100528
-0.101558
-0.10231
-0.102838
-0.103079
-0.103149
-0.103145
-0.103097
-0.103047
-0.103015
-0.0891977
-0.0894706
-0.0901173
-0.0909897
-0.092136
-0.0934278
-0.0947997
-0.0960884
-0.0971855
-0.0980369
-0.0986479
-0.0990314
-0.099249
-0.0993287
-0.0994381
-0.0994773
-0.0994798
-0.0994643
-0.0994455
-0.0994335
-0.09049
-0.0908379
-0.0914419
-0.092199
-0.0931303
-0.0941374
-0.0951706
-0.09614
-0.0970193
-0.0978026
-0.0984801
-0.099031
-0.0994625
-0.0997867
-0.0999397
-0.100051
-0.10012
-0.100164
-0.100191
-0.100204
-0.0909626
-0.0914445
-0.0920492
-0.0927348
-0.0935058
-0.0942835
-0.0950287
-0.0956892
-0.0962581
-0.0967315
-0.0971002
-0.0973677
-0.0975566
-0.0977079
-0.0978569
-0.0979761
-0.0980745
-0.0981531
-0.098209