/*--------------------------------*- C++ -*----------------------------------*\
  =========                 |
  \\      /  F ield         | OpenFOAM: The Open Source CFD Toolbox
   \\    /   O peration     | Website:  https://openfoam.org
    \\  /    A nd           | Version:  7
     \\/     M anipulation  |
\*---------------------------------------------------------------------------*/
FoamFile
{
    version     2.0;
    format      ascii;
    class       surfaceScalarField;
    location    "15";
    object      phi;
}
// * * * * * * * * * * * * * * * * * * * * * * * * * * * * * * * * * * * * * //

dimensions      [0 3 -1 0 0 0 0];

internalField   nonuniform List<scalar> 
132
(
0.00343919
-0.000666673
0.00336749
-0.000401936
-0.00300349
0.00353559
8.11526e-06
0.00353156
-4.92815e-05
0.00353114
1.77148e-05
0.00352133
-0.000110129
0.00350057
-9.13922e-05
0.00343892
-0.000605021
0.00336641
-0.000329422
-0.00273017
0.00353575
7.89809e-06
0.00353125
-4.47828e-05
0.00353135
1.76211e-05
0.00352069
-9.9475e-05
0.00350174
-7.2443e-05
0.00343689
-0.000540169
0.00337007
-0.000262604
-0.00243612
0.00353597
7.46182e-06
0.00353095
-3.97612e-05
0.00353166
1.69094e-05
0.00352003
-8.78496e-05
0.00350324
-5.56521e-05
0.00343484
-0.000471761
0.00337518
-0.000202945
-0.00212254
0.00353622
6.77401e-06
0.00353066
-3.42002e-05
0.00353205
1.55244e-05
0.0035194
-7.51999e-05
0.00350496
-4.12125e-05
0.00343292
-0.000399727
0.0033811
-0.000151124
-0.00179206
0.00353648
5.82597e-06
0.0035304
-2.8117e-05
0.00353246
1.34621e-05
0.00351881
-6.15525e-05
0.00350675
-2.91487e-05
0.0034313
-0.00032428
0.00338742
-0.000107238
-0.0014478
0.00353673
4.63181e-06
0.00353017
-2.15627e-05
0.00353287
1.07694e-05
0.00351833
-4.70126e-05
0.0035085
-1.93243e-05
0.00343009
-0.000245873
0.00339383
-7.09711e-05
-0.0010931
0.00353694
3.22581e-06
0.00352999
-1.46177e-05
0.00353323
7.53579e-06
0.00351797
-3.17495e-05
0.00351011
-1.14736e-05
0.00342939
-0.000165149
0.00340013
-4.17143e-05
-0.000731279
0.0035371
1.6614e-06
0.00352987
-7.39138e-06
0.00353351
3.89711e-06
0.00351775
-1.59928e-05
0.00351147
-5.18961e-06
0.00342921
-8.28929e-05
0.003406
-1.84985e-05
-0.000365764
0.0035372
0.0035298
0.0035337
0.00351771
0.00351252
0.00342963
0.00341113
)
;

boundaryField
{
    inlet
    {
        type            calculated;
        value           nonuniform List<scalar> 9(-0.00353553 -0.00353553 -0.00353553 -0.00353553 -0.00353553 -0.00353553 -0.00353553 -0.00353553 -0.00353553);
    }
    outlet
    {
        type            calculated;
        value           nonuniform 0();
    }
    polygon
    {
        type            calculated;
        value           nonuniform 0();
    }
    top
    {
        type            symmetryPlane;
        value           uniform 0;
    }
    bottom
    {
        type            symmetryPlane;
        value           uniform 0;
    }
    outside
    {
        type            calculated;
        value           nonuniform 0();
    }
    procBoundary4to0
    {
        type            processor;
        value           nonuniform List<scalar> 8(-8.17044e-06 5.33094e-05 -1.72968e-05 0.000119941 -0.00350152 0.000112149 0.000729003 0.00047364);
    }
    procBoundary4to5
    {
        type            processor;
        value           nonuniform List<scalar> 
11
(
0.00310957
0.00326141
0.00309309
0.00307602
0.0030616
0.00305062
0.00304316
0.00303913
0.00303832
0.00304048
0.00304536
)
;
    }
    procBoundary4to8
    {
        type            processor;
        value           nonuniform List<scalar> 8(-7.6412e-13 3.83563e-12 -4.35066e-12 1.44638e-12 -4.679e-12 4.7079e-12 -2.88177e-12 5.24082e-12);
    }
}


// ************************************************************************* //
