/*--------------------------------*- C++ -*----------------------------------*\
  =========                 |
  \\      /  F ield         | OpenFOAM: The Open Source CFD Toolbox
   \\    /   O peration     | Website:  https://openfoam.org
    \\  /    A nd           | Version:  7
     \\/     M anipulation  |
\*---------------------------------------------------------------------------*/
FoamFile
{
    version     2.0;
    format      ascii;
    class       volVectorField;
    location    "15";
    object      U;
}
// * * * * * * * * * * * * * * * * * * * * * * * * * * * * * * * * * * * * * //

dimensions      [0 1 -1 0 0 0 0];

internalField   nonuniform List<vector> 
75
(
(0.946464 -0.0126037 1.26082e-19)
(1.00971 -0.00796577 -1.96045e-18)
(0.903832 -0.0567188 -5.24738e-19)
(1.03223 0.000147183 -3.93399e-19)
(0.966893 -0.000923063 -7.84726e-20)
(1.0325 0.000315765 1.87934e-21)
(0.963022 -0.00207701 -3.77297e-21)
(1.03231 -0.00182534 3.605e-20)
(0.94665 -0.0114719 6.28094e-21)
(1.00799 -0.0066049 -3.60908e-18)
(0.904349 -0.051858 -2.97634e-18)
(1.03257 0.000146893 -2.02904e-19)
(0.966638 -0.000852779 -1.23101e-19)
(1.03259 0.000324499 -8.08319e-21)
(0.963002 -0.00190692 5.60241e-21)
(1.03192 -0.00146327 8.83533e-21)
(0.947331 -0.0103838 -4.39302e-19)
(1.00571 -0.00535431 3.60116e-18)
(0.906713 -0.0469512 -1.20909e-18)
(1.03283 0.000141295 -7.47053e-20)
(0.966499 -0.000769368 -2.58953e-19)
(1.03256 0.000317657 -2.13116e-20)
(0.963157 -0.00171116 1.57748e-20)
(1.03135 -0.00114532 -9.52703e-21)
(0.948382 -0.00921581 -6.27243e-19)
(1.00307 -0.00422556 1.27058e-18)
(0.910217 -0.0416126 4.9763e-18)
(1.03301 0.000131649 5.74817e-21)
(0.966449 -0.00067599 1.7307e-21)
(1.03246 0.000299845 -1.11899e-20)
(0.963433 -0.00149653 2.91329e-20)
(1.03068 -0.00086676 -1.08533e-19)
(0.949656 -0.00797276 -2.64272e-19)
(1.0003 -0.00322297 3.57237e-19)
(0.914272 -0.0358962 4.00405e-18)
(1.03313 0.000117174 7.94667e-20)
(0.966462 -0.000572386 2.5848e-19)
(1.03231 0.000269413 -1.26264e-20)
(0.963773 -0.00126212 6.24617e-20)
(1.02998 -0.000629386 -2.18289e-19)
(0.951004 -0.00665805 2.01365e-20)
(0.997634 -0.00236071 -1.60274e-19)
(0.918411 -0.029868 1.50296e-18)
(1.03321 9.77773e-05 1.60797e-19)
(0.966511 -0.000458782 9.82585e-20)
(1.03214 0.000226427 -5.68318e-20)
(0.964124 -0.00100746 1.06762e-19)
(1.02932 -0.000433277 -4.75239e-19)
(0.952281 -0.00527177 2.70398e-19)
(0.995284 -0.00163104 -6.0997e-19)
(0.922274 -0.0235487 3.84289e-18)
(1.03326 7.4426e-05 -1.81278e-19)
(0.966571 -0.000337232 1.59789e-20)
(1.03199 0.000173154 -9.73019e-20)
(0.964435 -0.000739962 1.719e-19)
(1.02877 -0.000274264 -8.53319e-19)
(0.953364 -0.00384156 4.07409e-20)
(0.993428 -0.00104243 -6.86721e-19)
(0.925573 -0.0171141 4.31217e-18)
(1.03329 4.59848e-05 -1.09765e-19)
(0.966623 -0.000205167 2.1611e-20)
(1.03187 0.000107631 -1.95077e-19)
(0.964666 -0.000445743 2.51887e-19)
(1.02839 -0.000148465 -1.72008e-18)
(0.954149 -0.00231192 -2.13405e-19)
(0.992177 -0.000540343 -1.00431e-18)
(0.928035 -0.0102337 4.56397e-18)
(1.0333 1.81856e-05 -6.04025e-20)
(0.966653 -7.664e-05 3.57041e-20)
(1.03181 4.23358e-05 -3.80046e-19)
(0.964789 -0.000172431 2.00731e-19)
(1.0282 -4.47308e-05 -3.51063e-18)
(0.954567 -0.000874126 -4.73492e-19)
(0.991601 -0.000197472 -1.1615e-18)
(0.929452 -0.00392014 4.95395e-18)
)
;

boundaryField
{
    inlet
    {
        type            uniformFixedValue;
        uniformValue    constant (1 0 0);
        value           uniform (1 0 0);
    }
    outlet
    {
        type            pressureInletOutletVelocity;
        value           nonuniform 0();
    }
    polygon
    {
        type            fixedValue;
        value           nonuniform 0();
    }
    top
    {
        type            symmetryPlane;
    }
    bottom
    {
        type            symmetryPlane;
    }
    outside
    {
        type            zeroGradient;
    }
    procBoundary4to0
    {
        type            processor;
        value           nonuniform List<vector> 8((1.0318 0.000149778 -2.36018e-19) (0.96729 -0.000996614 -6.26316e-20) (1.03227 0.000309046 -1.97207e-20) (0.963265 -0.00226478 3.11913e-21) (1.03245 -0.00218716 -1.2811e-20) (1.03245 -0.00218716 -1.2811e-20) (0.947561 -0.0150086 4.19486e-20) (1.01265 -0.0105485 -2.74676e-19));
    }
    procBoundary4to5
    {
        type            processor;
        value           nonuniform List<vector> 
11
(
(0.906746 -0.066399 -2.89096e-17)
(0.909891 -0.0657341 -1.76325e-19)
(0.892112 -0.0571124 -1.62548e-17)
(0.876243 -0.0503876 -1.4387e-17)
(0.860687 -0.0434102 -2.13896e-17)
(0.846389 -0.0364024 -3.91169e-17)
(0.833917 -0.0294807 -3.32049e-17)
(0.823613 -0.0225801 -4.38577e-17)
(0.815687 -0.0160079 -2.75522e-17)
(0.810278 -0.00914048 -2.61233e-17)
(0.807456 -0.00357695 -3.55575e-17)
)
;
    }
    procBoundary4to8
    {
        type            processor;
        value           nonuniform List<vector> 8((1.0333 -1.81856e-05 -2.51446e-20) (0.966653 7.66401e-05 3.99416e-20) (1.03181 -4.2336e-05 -6.60495e-19) (0.964789 0.000172431 5.95733e-19) (1.0282 4.47307e-05 -3.0063e-18) (0.954567 0.000874126 -6.09781e-19) (0.991601 0.000197472 -1.87747e-18) (0.929452 0.00392014 4.68625e-18));
    }
}


// ************************************************************************* //
