/*--------------------------------*- C++ -*----------------------------------*\
  =========                 |
  \\      /  F ield         | OpenFOAM: The Open Source CFD Toolbox
   \\    /   O peration     | Website:  https://openfoam.org
    \\  /    A nd           | Version:  7
     \\/     M anipulation  |
\*---------------------------------------------------------------------------*/
FoamFile
{
    version     2.0;
    format      ascii;
    class       volScalarField;
    location    "112";
    object      p;
}
// * * * * * * * * * * * * * * * * * * * * * * * * * * * * * * * * * * * * * //

dimensions      [0 2 -2 0 0 0 0];

internalField   nonuniform List<scalar> 
115
(
-0.000766115
-0.00231587
-0.0038918
-0.00551336
-0.00715759
-0.0088015
-0.0104239
-0.0120044
-0.0135263
-0.0149762
-0.016345
-0.0176242
-0.018809
-0.0198979
-0.0208907
-0.0217884
-0.0225938
-0.000769193
-0.00232032
-0.00389673
-0.00551508
-0.00715488
-0.00879406
-0.0104118
-0.0119882
-0.0135065
-0.0149535
-0.0163192
-0.0175968
-0.0187805
-0.0198687
-0.020861
-0.0217588
-0.0225645
-0.000749549
-0.00229573
-0.00386987
-0.00550795
-0.00717324
-0.00883878
-0.0104814
-0.0120795
-0.0136158
-0.0150774
-0.0164543
-0.0177393
-0.0189279
-0.0200187
-0.0210117
-0.0219082
-0.0227111
-0.000759866
-0.00230777
-0.00388296
-0.00551113
-0.00716393
-0.0088167
-0.0104474
-0.0120352
-0.0135629
-0.0150172
-0.0163886
-0.017671
-0.0188578
-0.0199477
-0.0209408
-0.0218382
-0.0226426
-0.000712777
-0.00226285
-0.00383428
-0.00550269
-0.00720291
-0.00890285
-0.0105767
-0.0122012
-0.013759
-0.0152373
-0.0166267
-0.0179181
-0.0191111
-0.0202035
-0.0211957
-0.0220893
-0.0228875
-0.000734379
-0.002281
-0.00385385
-0.00550549
-0.00718673
-0.00886809
-0.0105251
-0.0121353
-0.0136812
-0.0151492
-0.0165289
-0.0178197
-0.0190113
-0.0201033
-0.0210961
-0.0219915
-0.0227924
-0.0138427
-0.0153275
-0.01672
-0.0180163
-0.0192139
-0.020308
-0.0213001
-0.0221923
-0.0229878
-0.000769352
-0.00232076
-0.00389732
-0.00551564
)
;

boundaryField
{
    inlet
    {
        type            zeroGradient;
    }
    outlet
    {
        type            fixedValue;
        value           uniform 0;
    }
    polygon
    {
        type            zeroGradient;
    }
    top
    {
        type            symmetryPlane;
    }
    bottom
    {
        type            symmetryPlane;
    }
    outside
    {
        type            slip;
    }
    procBoundary39to31
    {
        type            processor;
        value           nonuniform List<scalar> 
18
(
-0.00715524
-0.00879401
-0.0104112
-0.0119869
-0.0135043
-0.0149508
-0.0163162
-0.0175926
-0.0187754
-0.0198628
-0.0208545
-0.0217518
-0.0225572
-0.000766601
-0.00231725
-0.00389365
-0.00715524
-0.00551521
)
;
    }
    procBoundary39to38
    {
        type            processor;
        value           nonuniform List<scalar> 7(-0.0233103 -0.0232818 -0.0234239 -0.0233577 -0.0235942 -0.0235025 -0.0236909);
    }
    procBoundary39to47
    {
        type            processor;
        value           nonuniform List<scalar> 
18
(
-0.000683659
-0.00224577
-0.0038149
-0.00550401
-0.00722529
-0.00894494
-0.010636
-0.0122745
-0.0139398
-0.0154362
-0.0168385
-0.0181354
-0.019332
-0.0204252
-0.0214151
-0.0223041
-0.0230955
-0.0122745
)
;
    }
}


// ************************************************************************* //
