/*--------------------------------*- C++ -*----------------------------------*\
  =========                 |
  \\      /  F ield         | OpenFOAM: The Open Source CFD Toolbox
   \\    /   O peration     | Website:  https://openfoam.org
    \\  /    A nd           | Version:  7
     \\/     M anipulation  |
\*---------------------------------------------------------------------------*/
FoamFile
{
    version     2.0;
    format      ascii;
    class       volScalarField;
    location    "46";
    object      p;
}
// * * * * * * * * * * * * * * * * * * * * * * * * * * * * * * * * * * * * * //

dimensions      [0 2 -2 0 0 0 0];

internalField   nonuniform List<scalar> 
4000
(
0.10798
0.117928
0.121463
0.127614
0.130922
0.134728
0.136855
0.138852
0.13897
0.138779
0.135299
0.132108
0.121549
0.113228
0.0880866
0.0599935
-0.0029102
-0.116565
-0.280969
-0.800125
0.0980972
0.107675
0.110957
0.116464
0.119264
0.122302
0.12363
0.124447
0.123186
0.121013
0.115356
0.108476
0.0937111
0.0760009
0.0424626
0.00763217
-0.0476489
-0.0617354
-0.146432
0.0746433
0.0888451
0.0982805
0.101337
0.106422
0.1087
0.111027
0.111383
0.110857
0.107904
0.103271
0.0946754
0.0828023
0.0624032
0.0360532
-0.00408664
-0.0451338
-0.0996289
-0.151572
-0.200124
-0.340086
0.0799906
0.0891931
0.091952
0.0965849
0.0982628
0.0997766
0.0990485
0.0970877
0.092438
0.0853187
0.0733884
0.0566883
0.031456
-6.49619e-05
-0.0399916
-0.0731972
-0.109182
-0.105863
-0.163582
-0.04882
0.0713905
0.0802421
0.082632
0.0867546
0.0878011
0.0884914
0.0867392
0.0834339
0.0770743
0.0674923
0.0524739
0.0316615
0.00268232
-0.0312569
-0.0672328
-0.0915472
-0.114712
-0.140334
-0.144576
-0.165435
0.0630462
0.0714838
0.0734702
0.0770351
0.0774061
0.0771996
0.0743701
0.0695311
0.060999
0.0486007
0.0305376
0.00657287
-0.0239396
-0.0562841
-0.0836074
-0.0970988
-0.115975
-0.109241
-0.129356
-0.0796104
0.054994
0.0629816
0.0645578
0.0675475
0.0672608
0.0662018
0.062374
0.0562883
0.0463412
0.0323076
0.0125388
-0.0131418
-0.0438695
-0.0730068
-0.0928587
-0.102719
-0.11396
-0.118706
-0.115672
-0.107632
0.0472617
0.054766
0.0559313
0.0583123
0.0573659
0.0554443
0.0504593
0.0427659
0.0307268
0.0141727
-0.00796575
-0.0351596
-0.0645212
-0.0880792
-0.101203
-0.107479
-0.114007
-0.103481
-0.104953
-0.07833
0.0398531
0.0468294
0.047603
0.0493491
0.0478049
0.0450771
0.0392538
0.0307654
0.0182686
0.00183457
-0.0193654
-0.0450008
-0.072444
-0.0927754
-0.103849
-0.107822
-0.108852
-0.100745
-0.0964302
-0.0796407
0.0327955
0.0391959
0.0396186
0.0406843
0.0385739
0.0349643
0.0281798
0.0183554
0.00395081
-0.0150195
-0.0392005
-0.0681946
-0.0971244
-0.117828
-0.124678
-0.117791
-0.106662
-0.0903265
-0.0836046
-0.0613472
0.211121
0.228817
0.235349
0.250301
0.260371
0.2754
0.288742
0.305728
0.32371
0.345708
0.370742
0.401502
0.436518
0.480226
0.527787
0.588452
0.644623
0.730615
0.77637
0.918399
0.200878
0.218118
0.224078
0.238347
0.247398
0.261345
0.273171
0.288374
0.303907
0.322992
0.344085
0.370645
0.399839
0.437783
0.475072
0.530961
0.568822
0.655155
0.671038
0.807825
0.190703
0.207217
0.212728
0.225997
0.234128
0.246766
0.257126
0.270527
0.283838
0.300441
0.318399
0.341896
0.36716
0.402944
0.436656
0.492612
0.529265
0.615121
0.636241
0.756135
0.180577
0.196309
0.201442
0.213778
0.221093
0.232535
0.241552
0.253295
0.264501
0.278666
0.29328
0.313242
0.33307
0.36461
0.389453
0.442711
0.465332
0.555661
0.562214
0.694089
0.170361
0.185305
0.190067
0.201502
0.208022
0.218275
0.225942
0.235977
0.244982
0.256528
0.267555
0.283701
0.298019
0.324843
0.342588
0.389922
0.408416
0.485563
0.501404
0.60879
0.160018
0.17416
0.178563
0.189089
0.194843
0.20389
0.210239
0.218566
0.225403
0.234334
0.241866
0.254115
0.263175
0.28487
0.295561
0.337619
0.346258
0.428206
0.430583
0.583926
0.149604
0.162925
0.167011
0.176623
0.181672
0.189532
0.194658
0.201333
0.20613
0.212427
0.21662
0.224751
0.228543
0.243607
0.247428
0.277529
0.280217
0.326733
0.339468
0.41304
0.139162
0.151647
0.155478
0.164193
0.168635
0.17535
0.179395
0.18452
0.187498
0.191657
0.192952
0.197774
0.196281
0.206634
0.20237
0.231693
0.223085
0.302893
0.282219
0.524838
0.128754
0.140394
0.144055
0.151887
0.155818
0.16144
0.16458
0.168323
0.169963
0.172301
0.171245
0.172639
0.166715
0.169193
0.15633
0.165244
0.143243
0.130644
0.0935315
0.0423527
0.118347
0.129135
0.132716
0.139701
0.143269
0.147884
0.150353
0.153042
0.153685
0.15457
0.151762
0.15092
0.142134
0.141876
0.126879
0.14387
0.143257
0.236826
0.24357
0.576546
0.118347
0.129135
0.132716
0.139701
0.143269
0.147884
0.150353
0.153042
0.153685
0.15457
0.151762
0.15092
0.142134
0.141876
0.126879
0.14387
0.143257
0.236826
0.24357
0.576546
0.128754
0.140395
0.144055
0.151887
0.155818
0.16144
0.16458
0.168323
0.169963
0.172301
0.171245
0.172639
0.166715
0.169193
0.15633
0.165244
0.143243
0.130644
0.0935315
0.0423528
0.139162
0.151647
0.155478
0.164193
0.168635
0.175351
0.179395
0.18452
0.187498
0.191657
0.192952
0.197774
0.196281
0.206634
0.20237
0.231693
0.223086
0.302893
0.282219
0.524838
0.149604
0.162925
0.167011
0.176623
0.181672
0.189532
0.194658
0.201333
0.20613
0.212427
0.21662
0.224751
0.228543
0.243607
0.247428
0.277529
0.280217
0.326733
0.339468
0.41304
0.160018
0.17416
0.178564
0.189089
0.194843
0.20389
0.210239
0.218566
0.225403
0.234334
0.241866
0.254115
0.263175
0.28487
0.295561
0.337619
0.346258
0.428206
0.430583
0.583926
0.170361
0.185305
0.190067
0.201502
0.208022
0.218275
0.225942
0.235977
0.244982
0.256528
0.267555
0.283701
0.298019
0.324843
0.342588
0.389922
0.408416
0.485563
0.501404
0.60879
0.180577
0.196309
0.201442
0.213778
0.221093
0.232535
0.241552
0.253295
0.264501
0.278666
0.29328
0.313242
0.33307
0.36461
0.389453
0.442711
0.465332
0.555661
0.562214
0.694089
0.190703
0.207217
0.212728
0.225997
0.234128
0.246766
0.257126
0.270527
0.283838
0.300442
0.318399
0.341896
0.36716
0.402944
0.436656
0.492612
0.529265
0.615121
0.636241
0.756135
0.200878
0.218118
0.224078
0.238347
0.247398
0.261345
0.273171
0.288374
0.303907
0.322992
0.344085
0.370645
0.399839
0.437783
0.475072
0.530961
0.568822
0.655155
0.671038
0.807825
0.211121
0.228817
0.235349
0.250301
0.260371
0.2754
0.288742
0.305728
0.32371
0.345708
0.370742
0.401502
0.436518
0.480226
0.527787
0.588452
0.644623
0.730615
0.77637
0.918399
0.0327955
0.039196
0.0396187
0.0406843
0.038574
0.0349643
0.0281798
0.0183554
0.00395084
-0.0150195
-0.0392005
-0.0681946
-0.0971244
-0.117827
-0.124678
-0.117791
-0.106662
-0.0903265
-0.0836046
-0.0613472
0.0398531
0.0468295
0.047603
0.0493491
0.0478049
0.0450772
0.0392538
0.0307654
0.0182687
0.00183461
-0.0193653
-0.0450007
-0.072444
-0.0927754
-0.103849
-0.107822
-0.108852
-0.100745
-0.0964302
-0.0796407
0.0472617
0.054766
0.0559313
0.0583123
0.0573659
0.0554444
0.0504594
0.0427659
0.0307268
0.0141727
-0.00796572
-0.0351596
-0.0645212
-0.0880792
-0.101203
-0.107479
-0.114007
-0.103481
-0.104953
-0.07833
0.054994
0.0629817
0.0645578
0.0675475
0.0672608
0.0662018
0.0623741
0.0562883
0.0463412
0.0323076
0.0125389
-0.0131418
-0.0438695
-0.0730068
-0.0928587
-0.102719
-0.11396
-0.118706
-0.115672
-0.107632
0.0630462
0.0714838
0.0734702
0.0770351
0.0774061
0.0771997
0.0743701
0.0695312
0.060999
0.0486007
0.0305377
0.0065729
-0.0239396
-0.0562841
-0.0836074
-0.0970987
-0.115975
-0.109241
-0.129356
-0.0796104
0.0713905
0.0802421
0.0826321
0.0867546
0.0878011
0.0884914
0.0867393
0.0834339
0.0770744
0.0674923
0.0524739
0.0316616
0.00268235
-0.0312568
-0.0672328
-0.0915472
-0.114712
-0.140333
-0.144576
-0.165435
0.0799906
0.0891931
0.0919521
0.0965849
0.0982628
0.0997767
0.0990485
0.0970877
0.092438
0.0853187
0.0733884
0.0566883
0.031456
-6.49346e-05
-0.0399916
-0.0731971
-0.109182
-0.105863
-0.163582
-0.0488199
0.0888451
0.0982805
0.101337
0.106422
0.1087
0.111027
0.111383
0.110857
0.107904
0.103271
0.0946755
0.0828023
0.0624033
0.0360533
-0.00408661
-0.0451338
-0.0996288
-0.151572
-0.200124
-0.340086
0.0980972
0.107675
0.110957
0.116464
0.119264
0.122302
0.12363
0.124447
0.123186
0.121013
0.115356
0.108476
0.0937111
0.076001
0.0424626
0.0076322
-0.0476489
-0.0617354
-0.146431
0.0746433
0.10798
0.117928
0.121463
0.127614
0.130922
0.134728
0.136856
0.138852
0.13897
0.138779
0.1353
0.132108
0.121549
0.113228
0.0880867
0.0599936
-0.00291017
-0.116565
-0.280969
-0.800125
0.24404
0.262285
0.270889
0.285479
0.298142
0.312967
0.328383
0.345521
0.364472
0.385772
0.409873
0.437482
0.469265
0.505918
0.547471
0.594195
0.644165
0.698644
0.748799
0.797705
0.287218
0.303533
0.312158
0.326002
0.339085
0.354108
0.370421
0.388387
0.408087
0.429695
0.453278
0.478859
0.506307
0.53538
0.565628
0.596471
0.626336
0.656093
0.677893
0.699496
0.323553
0.337897
0.345446
0.357341
0.368472
0.380894
0.394034
0.408075
0.423064
0.439046
0.456025
0.473938
0.492667
0.511959
0.53146
0.550477
0.568535
0.584138
0.59639
0.60399
0.350875
0.362798
0.369308
0.379568
0.389269
0.400084
0.411478
0.423508
0.43611
0.449192
0.462636
0.476291
0.489948
0.503365
0.516216
0.528178
0.538728
0.547549
0.553817
0.557407
0.371788
0.381096
0.38609
0.39392
0.4012
0.409228
0.417582
0.426292
0.435305
0.444551
0.453941
0.463358
0.472661
0.481665
0.490164
0.497891
0.504613
0.509989
0.513817
0.51582
0.387589
0.395028
0.399073
0.405419
0.411336
0.417834
0.424537
0.431446
0.438486
0.445574
0.452617
0.459514
0.46615
0.472405
0.478143
0.483235
0.48753
0.49091
0.493237
0.494433
0.398911
0.404308
0.407231
0.411807
0.416058
0.420706
0.42548
0.430379
0.435349
0.440332
0.445264
0.450072
0.454677
0.458993
0.462931
0.466394
0.4693
0.471561
0.473115
0.473907
0.407578
0.411853
0.414163
0.417782
0.421124
0.424763
0.428469
0.432239
0.436022
0.439767
0.443423
0.446935
0.450249
0.453309
0.456061
0.458452
0.460432
0.461959
0.462998
0.463524
0.413582
0.416553
0.418172
0.420704
0.423053
0.425607
0.428212
0.430862
0.433522
0.436157
0.438729
0.4412
0.44353
0.445681
0.447612
0.449287
0.450672
0.451739
0.452464
0.45283
0.418235
0.420597
0.421868
0.423857
0.425683
0.42766
0.429661
0.431681
0.433692
0.435666
0.437576
0.439393
0.441091
0.442644
0.444028
0.44522
0.446199
0.44695
0.447457
0.447714
0.421392
0.422991
0.423862
0.425228
0.426492
0.427864
0.429258
0.43067
0.432079
0.433466
0.43481
0.436093
0.437294
0.438394
0.439376
0.440221
0.440916
0.441449
0.44181
0.441992
0.423876
0.425161
0.425849
0.426926
0.427911
0.428975
0.430046
0.431125
0.432193
0.433237
0.434243
0.435195
0.436081
0.436888
0.437604
0.438218
0.438721
0.439105
0.439364
0.439495
0.425527
0.426383
0.426845
0.427576
0.428249
0.428981
0.429722
0.430471
0.431217
0.431948
0.432656
0.433328
0.433955
0.434528
0.435037
0.435475
0.435833
0.436108
0.436293
0.436387
0.426855
0.427555
0.427927
0.428511
0.429042
0.429616
0.430192
0.430771
0.431343
0.4319
0.432436
0.432942
0.433412
0.433839
0.434217
0.43454
0.434805
0.435007
0.435143
0.435212
0.427715
0.428176
0.42842
0.428816
0.429174
0.429568
0.429964
0.430365
0.430764
0.431155
0.431532
0.43189
0.432224
0.432528
0.432798
0.43303
0.433219
0.433364
0.433462
0.433512
0.428428
0.428816
0.429019
0.429342
0.429634
0.42995
0.430266
0.430583
0.430897
0.431202
0.431495
0.431772
0.432029
0.432261
0.432467
0.432644
0.432788
0.432898
0.432972
0.433009
0.428868
0.429125
0.429257
0.42948
0.429677
0.429897
0.430118
0.430342
0.430565
0.430783
0.430994
0.431194
0.431381
0.431551
0.431701
0.431831
0.431937
0.432018
0.432072
0.4321
0.429233
0.429458
0.429575
0.429766
0.429936
0.430123
0.430309
0.430497
0.430683
0.430865
0.431039
0.431204
0.431356
0.431495
0.431618
0.431723
0.431809
0.431875
0.431919
0.431941
0.429422
0.429572
0.429644
0.429782
0.429897
0.430035
0.430171
0.430312
0.430453
0.430591
0.430726
0.430854
0.430974
0.431083
0.431181
0.431264
0.431333
0.431385
0.431421
0.431439
0.429612
0.429751
0.429834
0.429964
0.430088
0.430223
0.430361
0.430502
0.430642
0.430779
0.430912
0.431038
0.431155
0.431262
0.431356
0.431437
0.431504
0.431554
0.431588
0.431605
0.00147425
0.0029121
0.00391559
0.00486525
0.00587729
0.00695464
0.00811533
0.0093846
0.0107782
0.0123034
0.0139603
0.0157405
0.0176238
0.0195753
0.021542
0.0234512
0.0252088
0.0267003
0.0277983
0.0283844
0.0054684
0.00804419
0.00972532
0.011313
0.0129191
0.0145306
0.0161558
0.0178142
0.0195148
0.0212561
0.0230302
0.0248233
0.0266143
0.0283747
0.0300673
0.0316463
0.0330565
0.0342304
0.035087
0.0355434
0.0106792
0.0142373
0.016841
0.0194905
0.0223085
0.025285
0.0284342
0.0317818
0.0353372
0.0390905
0.0430124
0.0470529
0.0511386
0.0551706
0.0590264
0.0625653
0.0656375
0.068097
0.0698163
0.0707012
0.0159659
0.0197952
0.0226945
0.0256313
0.0287414
0.0320045
0.0354206
0.0390041
0.042757
0.0466633
0.0506899
0.054786
0.058881
0.0628829
0.0666799
0.0701446
0.0731412
0.0755363
0.0772107
0.078073
0.0215177
0.0255365
0.0287992
0.0322115
0.0359456
0.0399872
0.0443335
0.0489921
0.0539552
0.0591883
0.0646285
0.0701843
0.0757339
0.0811274
0.0861934
0.0907509
0.0946244
0.0976608
0.0997442
0.100802
0.0265056
0.0301582
0.0333629
0.0367134
0.0404223
0.0444834
0.0488835
0.0536192
0.0586756
0.0640134
0.0695658
0.0752378
0.0809051
0.0864154
0.0915953
0.0962599
0.100229
0.103342
0.10548
0.106565
0.0309522
0.034048
0.037127
0.0404508
0.044251
0.0485512
0.053343
0.0586135
0.0643342
0.070446
0.0768532
0.0834224
0.0899848
0.0963427
0.102281
0.107585
0.112056
0.115531
0.117896
0.119091
0.0341844
0.036308
0.0388626
0.0417897
0.0452279
0.0492357
0.0538143
0.0589435
0.064586
0.0706765
0.0771128
0.0837543
0.0904243
0.0969167
0.103007
0.108466
0.113082
0.116678
0.11913
0.120369
0.0360244
0.0370192
0.038836
0.0412427
0.0442714
0.0479938
0.0524263
0.0575505
0.0633189
0.0696492
0.0764157
0.0834484
0.0905386
0.0974494
0.10393
0.109734
0.114636
0.118454
0.121058
0.122375
0.0355154
0.0353452
0.0361706
0.0377395
0.0400189
0.0430695
0.0469145
0.0515398
0.0568993
0.0629086
0.0694396
0.0763197
0.0833364
0.0902459
0.0967859
0.102693
0.107719
0.11166
0.114356
0.115739
0.0327717
0.0311002
0.0308882
0.0314335
0.0327562
0.0349566
0.0380582
0.0420528
0.0469022
0.052523
0.0587811
0.0654946
0.0724395
0.0793592
0.0859774
0.0920138
0.0972032
0.10131
0.104157
0.1056
0.0275824
0.0239234
0.022529
0.0217336
0.021754
0.0227305
0.0246823
0.0276151
0.0315121
0.0363097
0.0418894
0.048081
0.054666
0.0613831
0.0679395
0.0740263
0.0793384
0.0835982
0.0865786
0.0881097
0.0198242
0.013755
0.011055
0.0085965
0.00702898
0.00648376
0.00698928
0.00858841
0.0112943
0.0150671
0.0198029
0.0253382
0.0314564
0.0378908
0.0443343
0.0504519
0.0558968
0.0603529
0.0635206
0.0651694
0.00920886
0.000385893
-0.00373566
-0.00819895
-0.0116461
-0.014026
-0.0152857
-0.0153112
-0.014047
-0.0115049
-0.00776946
-0.00299809
0.00258735
0.00870428
0.015023
0.0211581
0.0267529
0.0313947
0.0347375
0.0364931
-0.00439723
-0.016165
-0.0217673
-0.028482
-0.0339813
-0.0383437
-0.0414812
-0.0431928
-0.0433941
-0.0420886
-0.0393589
-0.035367
-0.0303447
-0.02458
-0.0184422
-0.0122897
-0.00659323
-0.00178327
0.00172352
0.00357979
-0.021023
-0.0357864
-0.0428675
-0.051961
-0.0595175
-0.0658436
-0.0707683
-0.0740205
-0.0755202
-0.0752854
-0.0734206
-0.0701089
-0.0655959
-0.0601925
-0.0542472
-0.048186
-0.0424731
-0.0375842
-0.0339843
-0.0320665
-0.0405019
-0.058065
-0.0665066
-0.0778651
-0.0872125
-0.0952125
-0.101567
-0.106001
-0.108479
-0.109056
-0.107873
-0.105135
-0.101098
-0.0960802
-0.090422
-0.0845624
-0.0789627
-0.07412
-0.0705261
-0.0686023
-0.0624292
-0.082373
-0.0919253
-0.105189
-0.115837
-0.125028
-0.132304
-0.137479
-0.14057
-0.141685
-0.140999
-0.138729
-0.135142
-0.130532
-0.125253
-0.119713
-0.114363
-0.109698
-0.106216
-0.104345
-0.0860422
-0.10776
-0.118044
-0.132652
-0.143982
-0.153813
-0.161512
-0.167031
-0.170445
-0.1719
-0.171582
-0.169713
-0.166551
-0.162376
-0.15753
-0.152389
-0.147386
-0.142996
-0.139705
-0.137932
-0.110327
-0.133132
-0.1437
-0.159026
-0.17044
-0.180428
-0.188166
-0.193744
-0.197291
-0.198956
-0.198922
-0.1974
-0.194633
-0.190891
-0.186487
-0.181775
-0.17716
-0.173092
-0.170032
-0.16838
-0.134081
-0.157317
-0.167732
-0.183226
-0.194248
-0.204071
-0.211588
-0.217084
-0.220664
-0.222471
-0.222669
-0.22145
-0.219042
-0.215695
-0.211704
-0.2074
-0.203162
-0.199413
-0.196585
-0.195057
-0.156106
-0.179256
-0.18916
-0.204433
-0.214752
-0.224249
-0.231406
-0.236764
-0.240335
-0.242248
-0.242641
-0.241687
-0.239584
-0.236579
-0.232944
-0.228995
-0.225088
-0.22162
-0.219001
-0.217584
-0.17535
-0.19809
-0.207226
-0.222083
-0.231529
-0.240672
-0.247412
-0.252629
-0.256173
-0.258176
-0.258734
-0.257997
-0.25615
-0.253422
-0.250074
-0.246409
-0.242767
-0.239528
-0.237078
-0.235752
-0.190987
-0.21319
-0.221402
-0.23582
-0.24431
-0.253171
-0.259455
-0.264585
-0.268075
-0.270159
-0.27085
-0.270291
-0.268644
-0.26613
-0.263001
-0.259551
-0.256109
-0.253041
-0.250719
-0.249463
-0.202239
-0.22409
-0.231278
-0.245463
-0.252919
-0.261673
-0.26743
-0.272568
-0.275949
-0.278117
-0.278898
-0.278481
-0.276984
-0.274632
-0.271662
-0.268367
-0.265069
-0.262126
-0.259897
-0.258691
-0.208408
-0.230662
-0.236614
-0.251081
-0.257291
-0.266233
-0.271283
-0.276572
-0.279718
-0.282009
-0.282809
-0.282511
-0.281118
-0.278888
-0.276034
-0.272852
-0.269658
-0.266808
-0.264649
-0.263482
-0.209577
-0.233381
-0.237627
-0.252896
-0.257551
-0.266948
-0.271111
-0.276578
-0.279431
-0.281802
-0.28259
-0.282368
-0.281053
-0.278916
-0.276155
-0.273067
-0.269962
-0.267188
-0.265088
-0.263954
-0.209253
-0.232421
-0.236165
-0.250534
-0.254851
-0.263411
-0.26751
-0.272452
-0.275341
-0.277509
-0.278354
-0.278136
-0.276894
-0.274832
-0.272162
-0.269164
-0.266148
-0.263454
-0.261417
-0.260317
-0.206833
-0.228108
-0.231915
-0.2446
-0.248946
-0.2563
-0.260369
-0.264666
-0.267495
-0.269444
-0.270268
-0.270047
-0.268863
-0.266882
-0.264314
-0.261427
-0.258522
-0.255929
-0.253971
-0.252915
-0.201964
-0.221062
-0.224898
-0.235769
-0.240013
-0.246148
-0.249981
-0.25364
-0.256249
-0.25797
-0.258709
-0.258476
-0.257345
-0.255462
-0.253024
-0.250282
-0.247525
-0.245068
-0.243214
-0.242216
-0.194446
-0.211486
-0.215185
-0.224439
-0.228355
-0.233401
-0.236789
-0.239846
-0.242105
-0.243579
-0.244192
-0.243939
-0.24287
-0.241111
-0.238841
-0.23629
-0.23373
-0.23145
-0.229734
-0.228811
-0.184553
-0.199867
-0.203283
-0.211167
-0.214581
-0.218648
-0.221451
-0.2239
-0.225733
-0.226921
-0.227385
-0.227104
-0.22611
-0.224505
-0.222445
-0.220137
-0.217823
-0.215768
-0.214223
-0.213393
-0.172725
-0.186625
-0.1897
-0.196446
-0.199291
-0.202482
-0.204644
-0.206483
-0.207859
-0.208736
-0.209036
-0.20873
-0.207829
-0.206411
-0.204605
-0.202588
-0.200571
-0.198783
-0.197442
-0.196722
-0.159671
-0.172417
-0.17515
-0.180944
-0.183217
-0.185621
-0.187139
-0.188379
-0.189287
-0.189842
-0.189975
-0.189647
-0.188856
-0.187652
-0.186136
-0.184451
-0.182771
-0.181284
-0.18017
-0.179573
-0.146058
-0.157807
-0.160243
-0.165236
-0.166999
-0.168717
-0.169637
-0.170325
-0.170788
-0.171031
-0.171007
-0.170668
-0.170002
-0.169034
-0.167833
-0.166507
-0.165188
-0.164023
-0.163152
-0.162685
-0.132594
-0.143429
-0.145628
-0.149936
-0.151276
-0.152415
-0.15282
-0.153023
-0.153087
-0.15305
-0.152885
-0.152549
-0.152017
-0.151293
-0.150416
-0.149455
-0.148504
-0.147664
-0.147037
-0.146701
-0.119839
-0.12977
-0.131797
-0.135518
-0.136539
-0.13722
-0.13722
-0.137031
-0.136768
-0.136502
-0.136227
-0.135909
-0.135514
-0.135031
-0.134469
-0.133862
-0.133263
-0.132734
-0.132339
-0.132128
-0.108277
-0.11728
-0.119184
-0.122396
-0.123196
-0.12354
-0.123251
-0.122775
-0.122271
-0.121837
-0.121487
-0.121199
-0.120942
-0.120682
-0.120408
-0.120122
-0.119842
-0.119594
-0.119408
-0.119308
-0.0982162
-0.106249
-0.108065
-0.11083
-0.111497
-0.111623
-0.111162
-0.110511
-0.109856
-0.109321
-0.108937
-0.108694
-0.108562
-0.108498
-0.108471
-0.108459
-0.108449
-0.108438
-0.108427
-0.10842
-0.0898485
-0.0968767
-0.0986167
-0.100984
-0.101577
-0.101592
-0.101059
-0.100333
-0.0996152
-0.0990391
-0.0986556
-0.0984654
-0.0984417
-0.0985384
-0.0987101
-0.0989152
-0.0991191
-0.0992946
-0.0994222
-0.0994891
-0.0832111
-0.0892223
-0.0908816
-0.092891
-0.093459
-0.093439
-0.0929214
-0.0922106
-0.0915064
-0.0909463
-0.0905951
-0.0904628
-0.0905273
-0.090744
-0.0910598
-0.0914212
-0.091778
-0.0920869
-0.092313
-0.0924324
-0.0782482
-0.0832613
-0.0848201
-0.0865096
-0.0870748
-0.0870711
-0.086631
-0.0860016
-0.0853706
-0.0848695
-0.0845701
-0.084491
-0.0846191
-0.0849133
-0.0853186
-0.0857754
-0.0862253
-0.0866151
-0.0869012
-0.0870524
-0.0747972
-0.0788653
-0.0802983
-0.0817076
-0.0822738
-0.0823206
-0.0819959
-0.0814953
-0.0809827
-0.080576
-0.0803466
-0.0803199
-0.0804889
-0.0808214
-0.0812661
-0.0817637
-0.0822532
-0.0826776
-0.0829895
-0.0831544
-0.072642
-0.0758479
-0.0771309
-0.0782992
-0.0788577
-0.0789707
-0.0787754
-0.0784254
-0.0780541
-0.0777593
-0.077605
-0.0776204
-0.0778069
-0.0781437
-0.0785849
-0.0790766
-0.0795604
-0.0799805
-0.0802896
-0.0804532
-0.0715137
-0.0739641
-0.0750838
-0.0760523
-0.076596
-0.0767824
-0.0767208
-0.0765315
-0.0763182
-0.0761543
-0.0760915
-0.0761577
-0.0763564
-0.0766749
-0.0770836
-0.0775369
-0.0779831
-0.0783713
-0.0786573
-0.0788088
-0.0711351
-0.0729506
-0.0739066
-0.0747162
-0.0752429
-0.0755019
-0.0755674
-0.0755294
-0.0754664
-0.0754257
-0.0754432
-0.0755419
-0.0757328
-0.0760202
-0.0763757
-0.0767665
-0.0771509
-0.077486
-0.0777334
-0.0778647
-0.0712236
-0.0725306
-0.0733392
-0.0740339
-0.0745565
-0.0748954
-0.0750913
-0.075206
-0.0753005
-0.0754019
-0.0755305
-0.0757027
-0.0759258
-0.0761824
-0.0764824
-0.0768053
-0.0771206
-0.0773953
-0.0775983
-0.0777062
-0.0715164
-0.0724356
-0.0731239
-0.0737479
-0.0742902
-0.0747195
-0.0750478
-0.0753034
-0.0755299
-0.0757385
-0.0759313
-0.0761165
-0.076302
-0.0765248
-0.076766
-0.0770143
-0.0772534
-0.0774606
-0.0776138
-0.0776953
-0.0717635
-0.0724026
-0.0730071
-0.0736113
-0.074216
-0.0747714
-0.0752676
-0.0757027
-0.0761072
-0.0764904
-0.076843
-0.0771623
-0.0774507
-0.0776912
-0.077898
-0.0780934
-0.0782719
-0.0784229
-0.0785333
-0.0785918
-0.0717233
-0.0721697
-0.0727322
-0.0733673
-0.0740818
-0.0748025
-0.0754958
-0.0761153
-0.0766575
-0.0771184
-0.0774851
-0.0777579
-0.0779555
-0.0781174
-0.0782778
-0.0784087
-0.0785181
-0.0786064
-0.0786696
-0.0787027
-0.0711485
-0.0714752
-0.0720509
-0.0727732
-0.0736654
-0.0746325
-0.0756286
-0.0765687
-0.0774292
-0.0782045
-0.0788827
-0.0794391
-0.0798786
-0.0802111
-0.0803723
-0.080491
-0.0805669
-0.0806172
-0.0806486
-0.0806639
-0.0697905
-0.07005
-0.070678
-0.071527
-0.0726468
-0.0739111
-0.0752573
-0.0765254
-0.0776096
-0.078456
-0.0790684
-0.0794575
-0.0796816
-0.0797679
-0.079883
-0.079927
-0.0799334
-0.079921
-0.0799044
-0.0798935
-0.0673939
-0.0675782
-0.0682988
-0.0693286
-0.0707693
-0.0724707
-0.0743784
-0.0762999
-0.0780935
-0.0796549
-0.0809661
-0.0820005
-0.0827581
-0.0832911
-0.0835359
-0.0836089
-0.0836069
-0.0835607
-0.0835117
-0.0834801
-0.063573
-0.0636476
-0.0644807
-0.0657086
-0.0675009
-0.0696652
-0.0721466
-0.0746507
-0.0768988
-0.0786182
-0.0797701
-0.0804316
-0.0807255
-0.0807915
-0.080793
-0.0807752
-0.0806696
-0.0805372
-0.0804181
-0.0803472
-0.057871
-0.0578182
-0.0588166
-0.0603089
-0.0625791
-0.0654168
-0.0688244
-0.0725382
-0.0762731
-0.0796383
-0.0824125
-0.0845509
-0.0860485
-0.08699
-0.0875087
-0.0875114
-0.087386
-0.08714
-0.0869174
-0.0867702
-0.049789
-0.0494856
-0.050619
-0.052312
-0.0550098
-0.0584312
-0.0625831
-0.067105
-0.0715708
-0.0753089
-0.0778819
-0.0792934
-0.0799195
-0.080087
-0.0799749
-0.0799971
-0.0797694
-0.0794452
-0.0791228
-0.0789025
-0.0389146
-0.0381794
-0.0393933
-0.0412385
-0.0444881
-0.048865
-0.0544922
-0.0611114
-0.0683776
-0.0755804
-0.0818813
-0.0867182
-0.0901004
-0.0920547
-0.0930495
-0.09296
-0.0923951
-0.091402
-0.0905077
-0.0897846
-0.0246996
-0.0232474
-0.0243451
-0.0260028
-0.0293006
-0.0338385
-0.0397934
-0.046898
-0.0547489
-0.0623225
-0.0682829
-0.0718905
-0.0735282
-0.0744491
-0.0749797
-0.0755219
-0.0756896
-0.0751614
-0.074447
-0.0736236
-0.00647598
-0.00406727
-0.00520908
-0.00701737
-0.0110663
-0.0169518
-0.0250737
-0.0353973
-0.0478584
-0.0618508
-0.0761831
-0.0887079
-0.0975242
-0.102357
-0.10415
-0.103521
-0.101311
-0.0967045
-0.0928743
-0.0882005
0.0165257
0.0212401
0.0210837
0.020558
0.0174237
0.0121719
0.00433765
-0.00584111
-0.0179842
-0.0305344
-0.0399942
-0.0438443
-0.0437029
-0.0459557
-0.0531957
-0.0597995
-0.0650223
-0.0672401
-0.0680956
-0.0655907
0.429612
0.429751
0.429834
0.429964
0.430088
0.430223
0.430361
0.430502
0.430642
0.430779
0.430912
0.431038
0.431155
0.431262
0.431356
0.431437
0.431504
0.431554
0.431588
0.431605
0.429422
0.429572
0.429644
0.429782
0.429897
0.430035
0.430171
0.430312
0.430452
0.430591
0.430726
0.430854
0.430974
0.431083
0.431181
0.431264
0.431333
0.431385
0.431421
0.431439
0.429233
0.429458
0.429575
0.429766
0.429936
0.430123
0.430309
0.430497
0.430683
0.430865
0.431039
0.431204
0.431356
0.431495
0.431618
0.431723
0.431809
0.431875
0.431919
0.431941
0.428868
0.429125
0.429257
0.42948
0.429677
0.429897
0.430118
0.430342
0.430565
0.430783
0.430994
0.431194
0.431381
0.431551
0.431701
0.431831
0.431937
0.432018
0.432072
0.4321
0.428428
0.428816
0.429019
0.429342
0.429634
0.42995
0.430266
0.430583
0.430897
0.431202
0.431495
0.431772
0.432029
0.432261
0.432467
0.432644
0.432788
0.432898
0.432972
0.433009
0.427715
0.428176
0.42842
0.428816
0.429174
0.429568
0.429964
0.430365
0.430764
0.431155
0.431532
0.43189
0.432224
0.432528
0.432798
0.43303
0.433219
0.433364
0.433462
0.433512
0.426855
0.427555
0.427927
0.428511
0.429042
0.429616
0.430192
0.430771
0.431343
0.4319
0.432436
0.432942
0.433412
0.433839
0.434217
0.43454
0.434805
0.435007
0.435143
0.435212
0.425527
0.426383
0.426845
0.427576
0.428249
0.428981
0.429722
0.430471
0.431217
0.431948
0.432656
0.433328
0.433955
0.434528
0.435037
0.435475
0.435833
0.436108
0.436293
0.436387
0.423876
0.425161
0.425849
0.426926
0.427911
0.428975
0.430046
0.431125
0.432193
0.433237
0.434243
0.435195
0.436081
0.436888
0.437604
0.438218
0.438721
0.439105
0.439364
0.439495
0.421392
0.422991
0.423862
0.425228
0.426492
0.427864
0.429258
0.43067
0.432079
0.433466
0.43481
0.436093
0.437294
0.438394
0.439376
0.440221
0.440916
0.441449
0.44181
0.441992
0.418235
0.420597
0.421868
0.423857
0.425683
0.42766
0.429661
0.431681
0.433692
0.435666
0.437576
0.439393
0.441091
0.442644
0.444028
0.44522
0.446199
0.44695
0.447457
0.447714
0.413582
0.416553
0.418172
0.420704
0.423053
0.425607
0.428212
0.430862
0.433522
0.436157
0.438729
0.441199
0.44353
0.445681
0.447612
0.449287
0.450672
0.451739
0.452464
0.45283
0.407578
0.411853
0.414163
0.417782
0.421124
0.424763
0.428469
0.432239
0.436022
0.439767
0.443423
0.446935
0.450249
0.453309
0.456061
0.458452
0.460432
0.461959
0.462998
0.463524
0.398911
0.404308
0.407231
0.411807
0.416058
0.420706
0.42548
0.430379
0.435349
0.440332
0.445264
0.450072
0.454677
0.458993
0.462931
0.466394
0.4693
0.471561
0.473115
0.473907
0.387589
0.395027
0.399073
0.405419
0.411336
0.417834
0.424537
0.431446
0.438486
0.445574
0.452617
0.459514
0.46615
0.472405
0.478143
0.483235
0.48753
0.49091
0.493237
0.494433
0.371788
0.381096
0.38609
0.39392
0.4012
0.409228
0.417582
0.426292
0.435305
0.444551
0.453941
0.463358
0.472661
0.481665
0.490164
0.497891
0.504613
0.509989
0.513817
0.51582
0.350875
0.362798
0.369308
0.379568
0.389269
0.400084
0.411478
0.423508
0.43611
0.449192
0.462636
0.476291
0.489948
0.503365
0.516216
0.528178
0.538728
0.547549
0.553817
0.557407
0.323553
0.337897
0.345446
0.357341
0.368472
0.380894
0.394034
0.408075
0.423064
0.439046
0.456025
0.473938
0.492667
0.511959
0.53146
0.550477
0.568535
0.584138
0.59639
0.60399
0.287218
0.303533
0.312158
0.326002
0.339085
0.354108
0.370421
0.388387
0.408087
0.429695
0.453278
0.478859
0.506307
0.53538
0.565628
0.596471
0.626336
0.656093
0.677893
0.699496
0.24404
0.262285
0.270889
0.285479
0.298142
0.312967
0.328383
0.345521
0.364472
0.385772
0.409873
0.437481
0.469265
0.505918
0.547471
0.594195
0.644165
0.698644
0.748799
0.797705
0.0165257
0.0212401
0.0210837
0.020558
0.0174236
0.0121718
0.00433761
-0.00584115
-0.0179842
-0.0305344
-0.0399942
-0.0438444
-0.0437029
-0.0459557
-0.0531957
-0.0597995
-0.0650223
-0.0672401
-0.0680956
-0.0655907
-0.00647601
-0.0040673
-0.00520911
-0.0070174
-0.0110664
-0.0169518
-0.0250738
-0.0353974
-0.0478584
-0.0618508
-0.0761831
-0.088708
-0.0975242
-0.102357
-0.10415
-0.103521
-0.101311
-0.0967045
-0.0928744
-0.0882005
-0.0246996
-0.0232474
-0.0243452
-0.0260028
-0.0293007
-0.0338385
-0.0397934
-0.0468981
-0.054749
-0.0623225
-0.068283
-0.0718906
-0.0735282
-0.0744491
-0.0749797
-0.0755219
-0.0756896
-0.0751614
-0.074447
-0.0736236
-0.0389147
-0.0381794
-0.0393933
-0.0412386
-0.0444881
-0.048865
-0.0544923
-0.0611114
-0.0683776
-0.0755804
-0.0818814
-0.0867182
-0.0901004
-0.0920547
-0.0930495
-0.09296
-0.0923951
-0.091402
-0.0905077
-0.0897846
-0.049789
-0.0494856
-0.050619
-0.052312
-0.0550098
-0.0584312
-0.0625831
-0.0671051
-0.0715708
-0.0753089
-0.0778819
-0.0792934
-0.0799195
-0.080087
-0.0799749
-0.0799971
-0.0797695
-0.0794452
-0.0791228
-0.0789025
-0.057871
-0.0578182
-0.0588166
-0.0603089
-0.0625791
-0.0654168
-0.0688244
-0.0725382
-0.0762731
-0.0796383
-0.0824125
-0.0845509
-0.0860485
-0.08699
-0.0875087
-0.0875114
-0.087386
-0.08714
-0.0869174
-0.0867702
-0.063573
-0.0636476
-0.0644807
-0.0657086
-0.067501
-0.0696653
-0.0721466
-0.0746507
-0.0768988
-0.0786182
-0.0797701
-0.0804316
-0.0807255
-0.0807915
-0.080793
-0.0807752
-0.0806696
-0.0805372
-0.0804181
-0.0803472
-0.0673939
-0.0675782
-0.0682988
-0.0693286
-0.0707693
-0.0724707
-0.0743785
-0.0762999
-0.0780935
-0.0796549
-0.0809661
-0.0820005
-0.0827581
-0.0832911
-0.0835359
-0.0836089
-0.0836069
-0.0835607
-0.0835117
-0.0834801
-0.0697905
-0.07005
-0.070678
-0.071527
-0.0726468
-0.0739112
-0.0752573
-0.0765254
-0.0776096
-0.078456
-0.0790684
-0.0794575
-0.0796816
-0.0797679
-0.079883
-0.079927
-0.0799334
-0.079921
-0.0799044
-0.0798935
-0.0711485
-0.0714752
-0.0720509
-0.0727733
-0.0736654
-0.0746325
-0.0756286
-0.0765687
-0.0774292
-0.0782046
-0.0788827
-0.0794391
-0.0798786
-0.0802111
-0.0803723
-0.080491
-0.0805669
-0.0806172
-0.0806486
-0.0806639
-0.0717233
-0.0721697
-0.0727322
-0.0733673
-0.0740818
-0.0748025
-0.0754958
-0.0761153
-0.0766575
-0.0771184
-0.0774851
-0.0777579
-0.0779555
-0.0781174