/*--------------------------------*- C++ -*----------------------------------*\
  =========                 |
  \\      /  F ield         | OpenFOAM: The Open Source CFD Toolbox
   \\    /   O peration     | Website:  https://openfoam.org
    \\  /    A nd           | Version:  7
     \\/     M anipulation  |
\*---------------------------------------------------------------------------*/
FoamFile
{
    version     2.0;
    format      ascii;
    class       surfaceScalarField;
    location    "15";
    object      phi;
}
// * * * * * * * * * * * * * * * * * * * * * * * * * * * * * * * * * * * * * //

dimensions      [0 3 -1 0 0 0 0];

internalField   nonuniform List<scalar> 
226
(
0.00161555
8.26931e-05
0.00160267
0.000133981
0.00157532
0.000536418
0.00153516
0.000386786
0.00255865
0.00162106
2.56728e-06
0.00162076
3.14048e-05
0.00161857
7.76129e-06
0.00161569
8.55774e-05
0.00160221
0.000147462
0.0015756
0.000563027
0.0015336
0.000428782
0.00269402
0.00162094
3.74136e-06
0.00162085
3.14987e-05
0.00161844
1.01714e-05
0.00161583
8.81896e-05
0.00160176
0.000161526
0.0015759
0.000588888
0.0015322
0.000472479
0.00282557
0.00162083
5.02952e-06
0.00162094
3.13841e-05
0.00161832
1.27978e-05
0.00161598
9.0531e-05
0.00160135
0.000176151
0.00157623
0.000614005
0.001531
0.000517711
0.00295321
0.00162072
6.42556e-06
0.00162104
3.10623e-05
0.00161821
1.56339e-05
0.00161613
9.26024e-05
0.00160098
0.00019131
0.0015766
0.000638378
0.00153005
0.000564269
0.00307681
0.00162074
7.80529e-06
0.00162095
3.08528e-05
0.00161841
1.81679e-05
0.00161594
9.50728e-05
0.00160127
0.000205979
0.00157642
0.000663229
0.00153105
0.000609639
0.00319809
0.0164662
6.09342e-06
0.0164303
6.66819e-05
0.016462
-1.34377e-05
0.016386
0.000171068
0.0163376
0.000254384
0.0160624
0.000938356
0.015895
0.00077711
0.00397649
0.0164714
-8.50073e-07
0.0164315
0.000106604
0.0164741
-5.60367e-05
0.0163929
0.000252269
0.0163745
0.000272755
0.0161113
0.00120159
0.0160779
0.000810483
0.00461784
0.0164841
-2.05115e-05
0.0164337
0.000156999
0.0164929
-0.000115192
0.0163975
0.000347669
0.0164186
0.000251659
0.0161766
0.00144358
0.0162292
0.000757833
0.00499316
0.016502
-5.80258e-05
0.0164332
0.000225746
0.0165153
-0.000197234
0.0164019
0.000461069
0.0164686
0.000184958
0.0162456
0.00166656
0.0163778
0.000625627
0.00517345
0.0165147
-0.000108286
0.0164359
0.000304543
0.0165308
-0.00029209
0.0164145
0.000577393
0.0165097
8.97128e-05
0.0163346
0.00184168
0.0164992
0.000461007
0.00515005
0.0165212
-0.000165044
0.0164405
0.000385226
0.0165393
-0.000390825
0.0164358
0.00068084
0.0165437
-1.81523e-05
0.0164367
0.00194872
0.0166042
0.000293505
0.00492293
0.0165213
-0.000221832
0.0164469
0.000459543
0.0165418
-0.000485656
0.0164608
0.000761855
0.0165718
-0.000129176
0.0165324
0.00198814
0.0166898
0.000136058
0.0045545
0.016517
-0.000274356
0.0164533
0.000523228
0.0165417
-0.000574012
0.0164879
0.000815619
0.0165961
-0.000237407
0.0166241
0.00196017
0.0167639
-3.78364e-06
0.00409952
0.0165118
-0.000321687
0.0164581
0.000576969
0.0165397
-0.000655654
0.0165074
0.00084796
0.0166144
-0.000344487
0.0166856
0.00188904
0.0168358
-0.000153982
0.00360252
0.016505
0.0164628
0.0165382
0.0165304
0.0166315
0.016759
0.0169045
)
;

boundaryField
{
    inlet
    {
        type            calculated;
        value           nonuniform List<scalar> 
15
(
-0.00162212
-0.00162212
-0.00162212
-0.00162212
-0.00162212
-0.0164645
-0.0164645
-0.0164645
-0.0164645
-0.0164645
-0.0164645
-0.0164645
-0.0164645
-0.0164645
-0.0164645
)
;
    }
    outlet
    {
        type            calculated;
        value           nonuniform 0();
    }
    polygon
    {
        type            calculated;
        value           nonuniform 0();
    }
    top
    {
        type            symmetryPlane;
        value           uniform 0;
    }
    bottom
    {
        type            symmetryPlane;
        value           uniform 0;
    }
    outside
    {
        type            calculated;
        value           nonuniform List<scalar> 8(-0.000362228 0.000619166 -0.000731 0.000855721 -0.000445545 0.00176146 -0.000299507 0.00308643);
    }
    procBoundary12to8
    {
        type            processor;
        value           nonuniform List<scalar> 9(-7.95378e-05 -0.000121101 -0.000509061 -0.000346626 -0.00241963 -1.51177e-06 -3.11029e-05 -0.00161871 -5.57189e-06);
    }
    procBoundary12to9
    {
        type            processor;
        value           nonuniform List<scalar> 
11
(
0.00139614
0.00139823
0.00140066
0.00140336
0.00140645
0.00140977
0.0151166
0.0154366
0.0158539
0.0161975
0.0165226
)
;
    }
    procBoundary12to13
    {
        type            processor;
        value           nonuniform List<scalar> 5(0.0168313 0.0170582 0.0172189 0.0173328 0.0174206);
    }
}


// ************************************************************************* //
