/*--------------------------------*- C++ -*----------------------------------*\
  =========                 |
  \\      /  F ield         | OpenFOAM: The Open Source CFD Toolbox
   \\    /   O peration     | Website:  https://openfoam.org
    \\  /    A nd           | Version:  7
     \\/     M anipulation  |
\*---------------------------------------------------------------------------*/
FoamFile
{
    version     2.0;
    format      ascii;
    class       volScalarField;
    location    "48";
    object      p;
}
// * * * * * * * * * * * * * * * * * * * * * * * * * * * * * * * * * * * * * //

dimensions      [0 2 -2 0 0 0 0];

internalField   nonuniform List<scalar> 
175
(
-0.00641134
0.00835304
-0.0318447
-0.0445732
-0.0765296
-0.0974558
-0.122724
-0.143656
-0.164227
-0.182378
-0.198973
-0.213597
-0.226435
-0.237434
-0.246661
-0.254146
-0.259945
0.032807
-0.00668063
0.0080703
-0.0320858
-0.0447962
-0.0767221
-0.0976308
-0.12288
-0.143801
-0.164361
-0.182504
-0.199091
-0.213707
-0.226538
-0.23753
-0.24675
-0.254226
-0.260018
0.0321865
-0.0072081
0.00751358
-0.0325597
-0.0452323
-0.0770922
-0.0979633
-0.123171
-0.144066
-0.164601
-0.182724
-0.199293
-0.213894
-0.226711
-0.237689
-0.246895
-0.254359
-0.260137
0.0312808
-0.0079717
0.0067036
-0.0332476
-0.0458622
-0.0776187
-0.098433
-0.123575
-0.144431
-0.164926
-0.183021
-0.199565
-0.214144
-0.22694
-0.237901
-0.24709
-0.254538
-0.2603
0.0301137
-0.0089422
0.00566208
-0.034137
-0.0466759
-0.0782942
-0.0990339
-0.124087
-0.144893
-0.165335
-0.183394
-0.199903
-0.214454
-0.227226
-0.238164
-0.247333
-0.254762
-0.260507
0.028718
-0.0100857
0.00441426
-0.0352147
-0.0476631
-0.079112
-0.0997616
-0.124706
-0.145449
-0.165826
-0.18384
-0.200308
-0.214826
-0.227567
-0.23848
-0.247625
-0.255032
-0.260757
0.0271248
-0.0113664
0.00298856
-0.0364643
-0.0488115
-0.0800627
-0.100609
-0.125425
-0.146095
-0.166396
-0.184357
-0.200777
-0.215255
-0.227962
-0.238844
-0.247963
-0.255345
-0.261047
0.0253026
-0.0127516
0.0014145
-0.0378659
-0.0501077
-0.0811344
-0.101568
-0.126236
-0.146826
-0.167039
-0.184941
-0.201305
-0.21574
-0.228407
-0.239256
-0.248344
-0.2557
-0.261376
0.0231295
-0.0142209
-0.000273941
-0.0394032
-0.0515377
-0.0823189
-0.102632
-0.127137
-0.147638
-0.167753
-0.185589
-0.201891
-0.216277
-0.228901
-0.239713
-0.248768
-0.256094
-0.261744
0.0208725
-0.0157752
-0.00202357
-0.0410772
-0.0530778
-0.0836238
-0.1038
-0.128137
-0.148541
-0.168551
-0.186314
-0.202549
-0.21688
-0.229455
)
;

boundaryField
{
    inlet
    {
        type            zeroGradient;
    }
    outlet
    {
        type            fixedValue;
        value           uniform 0;
    }
    polygon
    {
        type            zeroGradient;
    }
    top
    {
        type            symmetryPlane;
    }
    bottom
    {
        type            symmetryPlane;
    }
    outside
    {
        type            slip;
    }
    procBoundary31to23
    {
        type            processor;
        value           nonuniform List<scalar> 
19
(
0.0204829
-0.0172848
-0.00363838
-0.0427392
-0.0545623
-0.0849298
-0.104953
-0.129145
-0.149448
-0.169361
-0.187051
-0.203218
-0.217492
-0.230017
-0.240225
-0.249242
-0.256533
-0.262152
-0.240225
)
;
    }
    procBoundary31to30
    {
        type            processor;
        value           nonuniform List<scalar> 9(-0.264117 -0.264183 -0.264289 -0.264437 -0.264626 -0.264856 -0.265125 -0.265431 -0.265773);
    }
    procBoundary31to39
    {
        type            processor;
        value           nonuniform List<scalar> 
19
(
-0.0064114
0.00835306
-0.0318447
-0.0445732
-0.0765296
-0.0974558
-0.122724
-0.143656
-0.164227
-0.182378
-0.198973
-0.213597
-0.226434
-0.237434
-0.246661
-0.254145
-0.259945
0.0331226
0.0331226
)
;
    }
}


// ************************************************************************* //
