/*--------------------------------*- C++ -*----------------------------------*\
  =========                 |
  \\      /  F ield         | OpenFOAM: The Open Source CFD Toolbox
   \\    /   O peration     | Website:  https://openfoam.org
    \\  /    A nd           | Version:  7
     \\/     M anipulation  |
\*---------------------------------------------------------------------------*/
FoamFile
{
    version     2.0;
    format      ascii;
    class       surfaceScalarField;
    location    "114";
    object      phi;
}
// * * * * * * * * * * * * * * * * * * * * * * * * * * * * * * * * * * * * * //

dimensions      [0 3 -1 0 0 0 0];

internalField   nonuniform List<scalar> 
318
(
-0.00106027
-0.0106495
0.0107362
-0.00114704
-0.010687
0.0107737
-0.00123121
-0.0107303
0.0108145
-0.00130529
-0.0107603
0.0108344
-0.00135151
-0.010719
0.0107652
-0.00133552
-0.0104703
0.0104543
-0.00975261
0.00962403
-0.00105986
-0.0105626
-0.00114721
-0.0105996
-0.00123285
-0.0106446
-0.0013105
-0.0106826
-0.00136437
-0.0106652
-0.00136205
-0.0104726
-0.00986252
-0.00105941
-0.0104755
-0.00114724
-0.0105118
-0.00123408
-0.0105578
-0.00131464
-0.0106021
-0.00137505
-0.0106047
-0.00138542
-0.0104622
-0.00995263
-0.00105886
-0.0103882
-0.00114713
-0.0104235
-0.00123502
-0.0104699
-0.00131818
-0.0105189
-0.00138463
-0.0105383
-0.00140702
-0.0104398
-0.0100232
-0.00105822
-0.0103007
-0.00114686
-0.0103349
-0.00123566
-0.0103811
-0.00132112
-0.0104334
-0.00139299
-0.0104664
-0.00142669
-0.0104061
-0.0100745
-0.00105748
-0.010213
-0.00114644
-0.0102459
-0.00123603
-0.0102915
-0.00132346
-0.010346
-0.00140018
-0.0103897
-0.00144438
-0.0103619
-0.00141198
-0.0101069
-0.00931662
-0.00105663
-0.0101252
-0.00114587
-0.0101567
-0.0012361
-0.0102013
-0.00132522
-0.0102569
-0.0014062
-0.0103087
-0.00146002
-0.0103081
-0.00144587
-0.010121
-0.00946632
-0.00105567
-0.0100372
-0.00114513
-0.0100672
-0.00123591
-0.0101105
-0.00132644
-0.0101664
-0.00141109
-0.0102241
-0.00147363
-0.0102456
-0.00147695
-0.0101177
-0.00958917
-0.00105463
-0.00994921
-0.00114429
-0.00997752
-0.00123553
-0.0100193
-0.00132726
-0.0100746
-0.00141511
-0.0101362
-0.00148548
-0.0101752
-0.00150529
-0.0100979
-0.00968491
-0.00105347
-0.00114334
-0.00123503
-0.00132785
-0.00141849
-0.00149584
-0.00153085
-0.00422431
0.00104912
-0.00450756
0.00109989
-0.00481712
0.00116166
-0.00515603
0.00123644
-0.00552747
0.00132633
-0.00593455
0.00143312
-0.00637945
0.00155853
-0.00686341
0.00170413
-0.007384
0.00187242
-0.00793727
0.00206443
-0.00849345
0.00227501
-0.00909485
0.00249693
0.00283673
-0.00584467
0.00137323
-0.00619116
0.00144638
-0.00655971
0.00153021
-0.00694913
0.00162587
-0.00735701
0.00173421
-0.00777946
0.00185557
-0.00821088
0.00198995
-0.00864409
0.00213735
-0.00906931
0.00229764
-0.00947327
0.0024684
-0.00984607
0.00264781
-0.0101986
0.0028495
0.00309236
-0.0074448
0.00171598
-0.00779706
0.00179864
-0.00815511
0.00188825
-0.00851432
0.00198508
-0.00886918
0.00208907
-0.00921348
0.00219987
-0.00954059
0.00231706
-0.00984356
0.00244031
-0.0101147
0.00256874
-0.010347
0.00270075
-0.0105393
0.00284009
-0.010689
0.00299917
0.00316865
-0.0088071
0.00202029
-0.00910542
0.00209696
-0.00939342
0.00217625
-0.00966657
0.00225823
-0.0099203
0.00234279
-0.0101503
0.00242983
-0.0103526
0.00251936
-0.0105236
0.00261138
-0.0106603
0.00270545
-0.0107616
0.00280198
-0.0108278
0.00290629
-0.0108533
0.00302473
0.00314969
-0.00981288
0.00225036
-0.0100274
0.00231146
-0.0102235
0.00237235
-0.0103986
0.00243332
-0.0105505
0.00249467
-0.0106774
0.0025568
-0.0107783
0.00262022
-0.0108522
0.00268531
-0.0108991
0.0027523
-0.0109198
0.0028227
-0.0109143
0.00290079
-0.0108788
0.00298926
0.00308533
-0.0104665
0.00240034
-0.0105988
0.00244374
-0.0107123
0.00248588
-0.0108063
0.00252737
-0.0108805
0.00256885
-0.0109348
0.00261105
-0.0109693
0.00265472
-0.0109844
0.00270042
-0.0109808
0.00274872
-0.0109593
0.00280117
-0.0109188
0.00286036
-0.010857
0.00292744
0.00300202
-0.0108448
0.00248415
-0.0109136
0.00251249
-0.0109673
0.00253965
-0.0110064
0.00256643
-0.0110311
0.00259359
-0.011042
0.00262192
-0.0110394
0.00265212
-0.0110237
0.00268473
-0.0109953
0.00272032
-0.0109541
-0.0108985
-0.0108265
-0.011041
-0.0110683
-0.0110851
-0.011092
-0.0110895
-0.0110777
-0.0110568
-0.0110268
)
;

boundaryField
{
    inlet
    {
        type            calculated;
        value           nonuniform 0();
    }
    outlet
    {
        type            calculated;
        value           nonuniform 0();
    }
    polygon
    {
        type            calculated;
        value           nonuniform 0();
    }
    top
    {
        type            symmetryPlane;
        value           uniform 0;
    }
    bottom
    {
        type            symmetryPlane;
        value           uniform 0;
    }
    outside
    {
        type            calculated;
        value           nonuniform 0();
    }
    procBoundary10to2
    {
        type            processor;
        value           nonuniform List<scalar> 
24
(
0.000973616
0.000972953
0.000972274
0.000971523
0.000970699
0.000969798
0.000968815
0.000967745
0.000966597
0.000965331
0.00275992
0.00280478
0.00285542
0.00291176
0.00252225
0.00253971
0.00255649
0.00257336
0.00259102
0.00261014
0.00263125
0.00265472
-0.0109874
0.00268092
)
;
    }
    procBoundary10to3
    {
        type            processor;
        value           nonuniform List<scalar> 4(0.00958281 0.0103165 0.010761 0.0110029);
    }
    procBoundary10to9
    {
        type            processor;
        value           nonuniform List<scalar> 3(-0.00986108 -0.00988765 -0.00992759);
    }
    procBoundary10to11
    {
        type            processor;
        value           nonuniform List<scalar> 4(0.00396462 0.00552056 0.00710206 0.00850278);
    }
    procBoundary10to17
    {
        type            processor;
        value           nonuniform List<scalar> 5(-0.00998181 -0.0100456 -0.0100979 -0.0100629 -0.00975444);
    }
    procBoundary10to18
    {
        type            processor;
        value           nonuniform List<scalar> 
24
(
-0.00120693
-0.00125214
-0.00129531
-0.00133644
-0.00137541
0.00914085
-0.0012362
-0.00129617
-0.00135409
-0.00140955
-0.00146131
-0.000789431
-0.000816643
-0.000852097
-0.000897524
-0.000954888
-0.00102604
-0.00111363
-0.00122017
-0.00135184
-0.00151115
-0.00171883
-0.00189553
-0.00230755
)
;
    }
}


// ************************************************************************* //
