/*--------------------------------*- C++ -*----------------------------------*\
  =========                 |
  \\      /  F ield         | OpenFOAM: The Open Source CFD Toolbox
   \\    /   O peration     | Website:  https://openfoam.org
    \\  /    A nd           | Version:  7
     \\/     M anipulation  |
\*---------------------------------------------------------------------------*/
FoamFile
{
    version     2.0;
    format      ascii;
    class       volScalarField;
    location    "32";
    object      p;
}
// * * * * * * * * * * * * * * * * * * * * * * * * * * * * * * * * * * * * * //

dimensions      [0 2 -2 0 0 0 0];

internalField   nonuniform List<scalar> 
7360
(
0.0258375
0.0330906
0.057911
0.0649874
0.0770595
0.0809642
0.0845497
0.0834945
0.0800508
0.0729024
0.0624898
0.0483977
0.0306095
0.00904706
-0.0162458
-0.0450477
-0.0769595
-0.111387
-0.147546
-0.184504
-0.221251
-0.25677
-0.290113
-0.320453
-0.347121
-0.369623
-0.387643
-0.401035
-0.409811
-0.414123
-0.414221
-0.41051
-0.403439
-0.393508
-0.381258
-0.367238
-0.351985
-0.336003
-0.319751
-0.303631
-0.287982
-0.273077
-0.259123
-0.24627
-0.23461
-0.22419
-0.215015
-0.20706
-0.200275
-0.194592
-0.18993
-0.186204
-0.183319
-0.181186
-0.179711
-0.178807
-0.178388
-0.178375
-0.17869
-0.17927
-0.180054
-0.180985
-0.182016
-0.183104
-0.184217
-0.185327
-0.186415
-0.187469
-0.188481
-0.189451
-0.190382
-0.19128
-0.192153
-0.193011
-0.193865
-0.194723
-0.195596
-0.19649
-0.19741
-0.19836
-0.19934
-0.200347
-0.201375
-0.202417
-0.203461
-0.204491
-0.205488
-0.206429
-0.207287
-0.208022
-0.208613
-0.208966
-0.209141
-0.208824
-0.208557
-0.207006
-0.206729
-0.203457
-0.203858
-0.199895
0.026003
0.0332475
0.0582116
0.0652969
0.0774382
0.0813653
0.0849915
0.083965
0.0805557
0.0734421
0.0630706
0.0490242
0.0312869
0.00978598
-0.015433
-0.0441533
-0.0759774
-0.110316
-0.146392
-0.18328
-0.219976
-0.255469
-0.288811
-0.319173
-0.345886
-0.368451
-0.386548
-0.400029
-0.4089
-0.413323
-0.413539
-0.409931
-0.402963
-0.393136
-0.380985
-0.367057
-0.351889
-0.335982
-0.319797
-0.303733
-0.28813
-0.273262
-0.259336
-0.246502
-0.234853
-0.224437
-0.215261
-0.207299
-0.200503
-0.194806
-0.190127
-0.186381
-0.183476
-0.181321
-0.179824
-0.178898
-0.178458
-0.178425
-0.178725
-0.179291
-0.180062
-0.180982
-0.182002
-0.183083
-0.184189
-0.185294
-0.18638
-0.187432
-0.188444
-0.189416
-0.190348
-0.191248
-0.192122
-0.192982
-0.193837
-0.194697
-0.19557
-0.196463
-0.197383
-0.198331
-0.199308
-0.200313
-0.201338
-0.202376
-0.203416
-0.204441
-0.205434
-0.206369
-0.207222
-0.207951
-0.208534
-0.208879
-0.209041
-0.208705
-0.208387
-0.206832
-0.206398
-0.203196
-0.203374
-0.199242
0.0250612
0.0323515
0.0564963
0.0635189
0.0752659
0.0790549
0.0824469
0.0812488
0.0776388
0.0703172
0.0597071
0.0453891
0.0273515
0.00548926
-0.0201612
-0.049356
-0.0816881
-0.116538
-0.153087
-0.190369
-0.227341
-0.262969
-0.296298
-0.326506
-0.352938
-0.375117
-0.392746
-0.405695
-0.413989
-0.417781
-0.417364
-0.41314
-0.405558
-0.395133
-0.382415
-0.36796
-0.352312
-0.33598
-0.319426
-0.303052
-0.287198
-0.272133
-0.258064
-0.245135
-0.233435
-0.223006
-0.213849
-0.205935
-0.19921
-0.193602
-0.189027
-0.185395
-0.182611
-0.180581
-0.179209
-0.178407
-0.178086
-0.178158
-0.178554
-0.179207
-0.180053
-0.181038
-0.182112
-0.183233
-0.18437
-0.185495
-0.186591
-0.187647
-0.188656
-0.18962
-0.190542
-0.191431
-0.192295
-0.193146
-0.193993
-0.194848
-0.19572
-0.196616
-0.197541
-0.198498
-0.199488
-0.200506
-0.201548
-0.202605
-0.203665
-0.204712
-0.205727
-0.206688
-0.207567
-0.208328
-0.208947
-0.209337
-0.209572
-0.209314
-0.209243
-0.207671
-0.208138
-0.204481
-0.206535
-0.203828
0.0255193
0.0327834
0.0573311
0.0643824
0.0763242
0.0801801
0.083688
0.0825739
0.0790631
0.0718441
0.0613518
0.0471681
0.0292788
0.00759611
-0.0178407
-0.0468005
-0.0788808
-0.113478
-0.149792
-0.186879
-0.223714
-0.259275
-0.292609
-0.322892
-0.349461
-0.371828
-0.389685
-0.402891
-0.411463
-0.415581
-0.415488
-0.411561
-0.404279
-0.394149
-0.381711
-0.367518
-0.352109
-0.335989
-0.319619
-0.303401
-0.287672
-0.272706
-0.25871
-0.245829
-0.234155
-0.223733
-0.214566
-0.206628
-0.199867
-0.194214
-0.189587
-0.185896
-0.183051
-0.180956
-0.17952
-0.178653
-0.178269
-0.17829
-0.178642
-0.179254
-0.180064
-0.181017
-0.182063
-0.183163
-0.184282
-0.185396
-0.186485
-0.187538
-0.188548
-0.189516
-0.190443
-0.191337
-0.192207
-0.193063
-0.193914
-0.194771
-0.195644
-0.196538
-0.19746
-0.198412
-0.199395
-0.200405
-0.201438
-0.202484
-0.203532
-0.204567
-0.20557
-0.206516
-0.207382
-0.208126
-0.20873
-0.2091
-0.209303
-0.208997
-0.20879
-0.207217
-0.207232
-0.203853
-0.204984
-0.202238
0.0238423
0.0311853
0.0542901
0.0611836
0.072428
0.0759998
0.0790822
0.077629
0.0737432
0.0661262
0.0551858
0.0404953
0.0220203
-0.000342707
-0.0265861
-0.0564335
-0.0894608
-0.125003
-0.162184
-0.199975
-0.237287
-0.273055
-0.306318
-0.336268
-0.362273
-0.383887
-0.400839
-0.41303
-0.420503
-0.423432
-0.422169
-0.417079
-0.408648
-0.397407
-0.383922
-0.368762
-0.352481
-0.335594
-0.318569
-0.301808
-0.285648
-0.270355
-0.256131
-0.243111
-0.231378
-0.220965
-0.211867
-0.204046
-0.197442
-0.191977
-0.187562
-0.1841
-0.181493
-0.179641
-0.178446
-0.177816
-0.177649
-0.177863
-0.178394
-0.179166
-0.180114
-0.181183
-0.182322
-0.183492
-0.18466
-0.185803
-0.186904
-0.187956
-0.188956
-0.189905
-0.190812
-0.191684
-0.192533
-0.193372
-0.194211
-0.195062
-0.195934
-0.196835
-0.197769
-0.198739
-0.199745
-0.200782
-0.201845
-0.202924
-0.204007
-0.205078
-0.206118
-0.207104
-0.208011
-0.208804
-0.20946
-0.209901
-0.210194
-0.21002
-0.210175
-0.208595
-0.210202
-0.205765
-0.211653
-0.209446
0.0244968
0.0318051
0.0554665
0.0624315
0.0739461
0.0776371
0.080888
0.0795753
0.0758411
0.0683848
0.0576258
0.0431354
0.0249021
0.00281059
-0.0231113
-0.0526035
-0.0852518
-0.120416
-0.15725
-0.194761
-0.231884
-0.267571
-0.300864
-0.330947
-0.357178
-0.379092
-0.396404
-0.408999
-0.41691
-0.420354
-0.41955
-0.414923
-0.406954
-0.396162
-0.3831
-0.368331
-0.352401
-0.335824
-0.319062
-0.302518
-0.28653
-0.271366
-0.25723
-0.244262
-0.232548
-0.222127
-0.212996
-0.205123
-0.198451
-0.192905
-0.188399
-0.18484
-0.182132
-0.180176
-0.178878
-0.178144
-0.177886
-0.178031
-0.178494
-0.179203
-0.180095
-0.181114
-0.182213
-0.183352
-0.184499
-0.185629
-0.186726
-0.187779
-0.188784
-0.189742
-0.190658
-0.19154
-0.192398
-0.193244
-0.194088
-0.194942
-0.195814
-0.196711
-0.19764
-0.198602
-0.199597
-0.200622
-0.201671
-0.202735
-0.203802
-0.204856
-0.205879
-0.206847
-0.207735
-0.208507
-0.209144
-0.209562
-0.209833
-0.209592
-0.209593
-0.208006
-0.20899
-0.205062
-0.208893
-0.207845
0.0222916
0.0299209
0.0516443
0.0584583
0.0690139
0.0723581
0.075008
0.0732536
0.0689936
0.0609893
0.049606
0.034424
0.0152753
-0.00777241
-0.0348157
-0.0655499
-0.0995054
-0.13595
-0.173927
-0.212325
-0.249994
-0.285841
-0.318904
-0.348401
-0.373739
-0.39451
-0.410483
-0.42159
-0.42791
-0.429764
-0.427305
-0.421036
-0.411478
-0.399172
-0.384707
-0.368666
-0.351614
-0.334074
-0.316515
-0.299339
-0.282879
-0.267391
-0.253065
-0.240026
-0.228344
-0.218042
-0.209102
-0.201477
-0.195097
-0.189876
-0.185716
-0.182513
-0.180164
-0.178561
-0.177602
-0.177182
-0.177222
-0.177646
-0.178359
-0.17928
-0.180348
-0.181507
-0.182711
-0.183922
-0.185111
-0.186258
-0.187353
-0.188388
-0.189366
-0.190291
-0.191172
-0.192022
-0.192853
-0.193678
-0.194509
-0.195359
-0.196236
-0.197147
-0.198096
-0.199084
-0.200109
-0.201167
-0.20225
-0.203346
-0.204443
-0.205524
-0.206568
-0.207552
-0.20845
-0.209232
-0.209874
-0.210327
-0.210628
-0.210511
-0.210733
-0.20938
-0.212032
-0.207488
-0.220382
-0.214585
0.0231245
0.0305207
0.0530467
0.0598291
0.0707934
0.0742102
0.0771053
0.0754789
0.0714161
0.0635978
0.0524398
0.0375084
0.0187111
-0.00397099
-0.0305876
-0.0608409
-0.0942878
-0.130233
-0.167764
-0.205817
-0.243275
-0.279062
-0.312219
-0.34195
-0.367643
-0.388871
-0.405381
-0.417091
-0.424059
-0.426501
-0.424704
-0.419102
-0.410179
-0.398472
-0.384554
-0.369002
-0.352373
-0.335187
-0.317912
-0.300952
-0.284639
-0.269238
-0.254945
-0.241894
-0.230162
-0.219776
-0.210728
-0.202976
-0.196455
-0.191084
-0.186769
-0.183413
-0.180912
-0.179164
-0.178071
-0.177534
-0.177464
-0.17777
-0.178374
-0.179204
-0.180199
-0.181302
-0.182467
-0.183655
-0.184834
-0.185984
-0.187087
-0.188137
-0.189132
-0.190074
-0.190973
-0.191838
-0.192681
-0.193514
-0.194351
-0.195202
-0.196076
-0.196981
-0.197922
-0.1989
-0.199916
-0.200964
-0.202038
-0.203128
-0.204221
-0.205301
-0.206348
-0.207338
-0.208245
-0.209034
-0.20968
-0.210116
-0.210411
-0.210251
-0.210425
-0.20889
-0.211039
-0.206275
-0.215741
-0.213612
-0.104014
-0.100482
-0.0998801
-0.0996073
-0.100732
-0.102929
-0.106468
-0.111432
-0.118023
-0.126442
-0.136918
-0.149764
-0.165476
-0.183829
-0.204724
-0.231005
-0.261364
-0.276263
-0.295948
-0.274462
-0.108584
-0.105283
-0.10486
-0.104811
-0.106161
-0.108613
-0.112431
-0.117697
-0.124607
-0.133374
-0.144263
-0.157666
-0.174278
-0.194016
-0.215836
-0.241281
-0.268747
-0.279549
-0.281245
-0.242702
-0.0929574
-0.0890976
-0.0880621
-0.0873603
-0.0880139
-0.0897239
-0.0927409
-0.0971682
-0.103215
-0.111111
-0.121174
-0.133843
-0.149664
-0.168894
-0.192991
-0.223605
-0.258875
-0.288438
-0.31471
-0.327363
-0.0988097
-0.0951128
-0.0942941
-0.0938131
-0.0947092
-0.0966697
-0.0999566
-0.104665
-0.111006
-0.119211
-0.129585
-0.142569
-0.158679
-0.177665
-0.199862
-0.227039
-0.256347
-0.272532
-0.296274
-0.293822
-0.0795454
-0.0752938
-0.0738341
-0.072679
-0.0728139
-0.0739958
-0.0764465
-0.0802888
-0.0857344
-0.0930368
-0.102573
-0.114793
-0.130393
-0.15007
-0.17555
-0.20766
-0.250158
-0.297149
-0.332708
-0.375476
-0.0865408
-0.0825043
-0.0812524
-0.0803314
-0.0807332
-0.0821906
-0.0849377
-0.0890912
-0.0948649
-0.102508
-0.112382
-0.124929
-0.140696
-0.160073
-0.184455
-0.214379
-0.250852
-0.287826
-0.311759
-0.336534
-0.064141
-0.0593296
-0.0574392
-0.0558014
-0.0553587
-0.0559456
-0.0577644
-0.0609461
-0.0657074
-0.0723146
-0.0811737
-0.0927482
-0.107891
-0.127274
-0.153011
-0.186161
-0.232622
-0.286301
-0.348219
-0.402471
-0.0720815
-0.067573
-0.0658971
-0.0645207
-0.0643708
-0.0652685
-0.0674157
-0.0709438
-0.0760677
-0.0830521
-0.0922883
-0.104225
-0.119606
-0.139092
-0.164384
-0.196485
-0.24018
-0.288961
-0.332117
-0.372169
-0.0472719
-0.0417024
-0.0393424
-0.037055
-0.0359727
-0.03584
-0.0369166
-0.0393439
-0.0433023
-0.0490339
-0.0569937
-0.0675776
-0.0818246
-0.0999876
-0.125486
-0.156917
-0.20486
-0.258949
-0.342007
-0.397893
-0.0558605
-0.0506914
-0.0485708
-0.0466304
-0.0458855
-0.0461388
-0.0476134
-0.0504417
-0.0548348
-0.0610539
-0.0695215
-0.0806753
-0.0954555
-0.114342
-0.140029
-0.17244
-0.219037
-0.271806
-0.339674
-0.379111
-0.0300307
-0.0235045
-0.0207233
-0.01771
-0.0160166
-0.0150293
-0.0151856
-0.0165565
-0.0193364
-0.0236798
-0.0301421
-0.0389732
-0.0514916
-0.0669328
-0.0906461
-0.115539
-0.16344
-0.204865
-0.302064
-0.341058
-0.0386149
-0.0325852
-0.0300037
-0.0273359
-0.0259234
-0.0253572
-0.0259809
-0.0279393
-0.0313795
-0.0365026
-0.0438433
-0.0537007
-0.0673019
-0.0842477
-0.109186
-0.137125
-0.184899
-0.230038
-0.315884
-0.344067
-0.0133916
-0.0056843
-0.00278728
0.000880959
0.00291242
0.00439885
0.00475042
0.00419149
0.00231457
-0.00113658
-0.00634926
-0.013433
-0.0235671
-0.0355556
-0.054922
-0.0716219
-0.114419
-0.126878
-0.228736
-0.190061
-0.0217203
-0.0146203
-0.0117558
-0.00843146
-0.00659554
-0.0053126
-0.00516321
-0.00596963
-0.00813688
-0.0118258
-0.017456
-0.0252051
-0.0364556
-0.0500571
-0.0720286
-0.092426
-0.13863
-0.161023
-0.258186
-0.232361
0.00448645
0.013153
0.0166976
0.0216729
0.0253234
0.0282986
0.0304239
0.0317031
0.0318457
0.0306732
0.0280207
0.0238073
0.0174963
0.00991724
-0.000864067
-0.00866698
-0.0236389
-0.0115245
-0.0369084
0.0942893
-0.00460982
0.00369974
0.00668175
0.0109399
0.0135881
0.0155264
0.016376
0.0161852
0.0145538
0.0113071
0.00629267
-0.000582099
-0.0100736
-0.0211976
-0.0372641
-0.0502868
-0.0786342
-0.0741919
-0.135245
-0.020277
0.266111
0.265277
0.266577
0.265673
0.26756
0.266528
0.269607
0.268519
0.273659
0.272809
0.2817
0.281805
0.297843
0.300495
0.330965
0.339142
0.400727
0.41332
0.538535
0.41686
0.266098
0.265259
0.266548
0.265667
0.267518
0.266529
0.26955
0.268543
0.273602
0.272899
0.28168
0.282068
0.29795
0.301147
0.331278
0.34032
0.400095
0.41165
0.522392
0.36368
0.266133
0.265304
0.266618
0.26569
0.267623
0.266549
0.269703
0.268537
0.273804
0.272802
0.281919
0.281731
0.298214
0.300328
0.331913
0.33944
0.405015
0.421247
0.565722
0.525475
0.266121
0.265294
0.266596
0.265685
0.267588
0.266543
0.269648
0.268532
0.273719
0.27281
0.281789
0.281771
0.297998
0.300419
0.331387
0.33932
0.402682
0.417148
0.551773
0.474522
0.26615
0.265323
0.26665
0.265704
0.267671
0.266566
0.269776
0.268552
0.273914
0.272801
0.282085
0.281678
0.298491
0.300181
0.332576
0.339493
0.407725
0.426703
0.581264
0.610957
0.266142
0.265317
0.266635
0.2657
0.267647
0.266561
0.269738
0.268547
0.273853
0.2728
0.281985
0.281688
0.298306
0.300198
0.332113
0.339302
0.405961
0.42349
0.572904
0.574431
0.266158
0.265331
0.266665
0.265711
0.267692
0.266575
0.269809
0.26856
0.273965
0.272803
0.282162
0.281657
0.298619
0.300112
0.332871
0.339492
0.408832
0.4292
0.587164
0.651372
0.266155
0.265329
0.26666
0.265709
0.267684
0.266573
0.269796
0.268558
0.273943
0.272802
0.282125
0.281659
0.298549
0.300115
0.332697
0.339419
0.408202
0.428002
0.584409
0.638252
0.266155
0.265329
0.26666
0.265709
0.267684
0.266573
0.269796
0.268558
0.273943
0.272802
0.282125
0.281659
0.298549
0.300115
0.332697
0.339419
0.408202
0.428002
0.584409
0.638252
0.266158
0.265331
0.266665
0.265711
0.267692
0.266575
0.269809
0.26856
0.273965
0.272803
0.282162
0.281657
0.298619
0.300112
0.332871
0.339492
0.408832
0.4292
0.587164
0.651372
0.266142
0.265317
0.266635
0.2657
0.267647
0.266561
0.269738
0.268547
0.273853
0.2728
0.281985
0.281688
0.298306
0.300198
0.332113
0.339302
0.405961
0.42349
0.572904
0.574431
0.26615
0.265323
0.26665
0.265704
0.267671
0.266566
0.269776
0.268552
0.273914
0.272801
0.282085
0.281678
0.298491
0.300181
0.332576
0.339493
0.407725
0.426703
0.581264
0.610957
0.266121
0.265294
0.266596
0.265685
0.267588
0.266543
0.269648
0.268532
0.273719
0.27281
0.281789
0.281771
0.297998
0.300419
0.331387
0.33932
0.402682
0.417148
0.551773
0.474522
0.266133
0.265304
0.266618
0.26569
0.267623
0.266549
0.269703
0.268537
0.273804
0.272802
0.281919
0.281731
0.298214
0.300328
0.331913
0.33944
0.405015
0.421247
0.565722
0.525475
0.266098
0.265259
0.266548
0.265667
0.267518
0.266529
0.26955
0.268543
0.273602
0.272899
0.28168
0.282068
0.29795
0.301147
0.331278
0.34032
0.400095
0.41165
0.522392
0.36368
0.266111
0.265277
0.266577
0.265673
0.26756
0.266528
0.269607
0.268519
0.273659
0.272809
0.2817
0.281805
0.297843
0.300495
0.330965
0.339142
0.400727
0.41332
0.538535
0.41686
-0.00460981
0.00369974
0.00668176
0.0109399
0.0135881
0.0155264
0.016376
0.0161852
0.0145538
0.0113071
0.00629267
-0.000582098
-0.0100736
-0.0211976
-0.0372641
-0.0502868
-0.0786342
-0.0741919
-0.135245
-0.020277
0.00448645
0.013153
0.0166976
0.0216729
0.0253234
0.0282986
0.0304239
0.0317031
0.0318457
0.0306732
0.0280207
0.0238073
0.0174963
0.00991724
-0.000864066
-0.00866698
-0.0236389
-0.0115245
-0.0369084
0.0942893
-0.0217203
-0.0146203
-0.0117558
-0.00843146
-0.00659553
-0.00531259
-0.00516321
-0.00596963
-0.00813688
-0.0118258
-0.017456
-0.0252051
-0.0364556
-0.0500571
-0.0720286
-0.092426
-0.13863
-0.161023
-0.258186
-0.232361
-0.0133916
-0.0056843
-0.00278728
0.00088096
0.00291242
0.00439885
0.00475042
0.00419149
0.00231457
-0.00113657
-0.00634926
-0.013433
-0.0235671
-0.0355556
-0.054922
-0.0716219
-0.114419
-0.126878
-0.228736
-0.190061
-0.0386149
-0.0325852
-0.0300037
-0.0273359
-0.0259234
-0.0253572
-0.0259809
-0.0279393
-0.0313795
-0.0365026
-0.0438433
-0.0537007
-0.0673019
-0.0842477
-0.109186
-0.137125
-0.184899
-0.230038
-0.315884
-0.344067
-0.0300307
-0.0235045
-0.0207233
-0.01771
-0.0160166
-0.0150293
-0.0151856
-0.0165565
-0.0193364
-0.0236798
-0.0301421
-0.0389732
-0.0514916
-0.0669328
-0.0906461
-0.115539
-0.16344
-0.204865
-0.302064
-0.341058
-0.0558605
-0.0506914
-0.0485708
-0.0466304
-0.0458855
-0.0461388
-0.0476134
-0.0504417
-0.0548348
-0.0610539
-0.0695215
-0.0806753
-0.0954555
-0.114342
-0.140029
-0.17244
-0.219037
-0.271806
-0.339674
-0.379111
-0.0472719
-0.0417024
-0.0393424
-0.037055
-0.0359727
-0.03584
-0.0369166
-0.0393439
-0.0433022
-0.0490339
-0.0569937
-0.0675776
-0.0818246
-0.0999876
-0.125486
-0.156917
-0.20486
-0.258949
-0.342007
-0.397893
-0.0720815
-0.067573
-0.0658971
-0.0645207
-0.0643708
-0.0652685
-0.0674157
-0.0709438
-0.0760677
-0.0830521
-0.0922883
-0.104225
-0.119606
-0.139092
-0.164384
-0.196485
-0.24018
-0.288961
-0.332117
-0.372169
-0.064141
-0.0593296
-0.0574392
-0.0558014
-0.0553587
-0.0559456
-0.0577644
-0.0609461
-0.0657074
-0.0723146
-0.0811737
-0.0927482
-0.107891
-0.127274
-0.153011
-0.186161
-0.232622
-0.286301
-0.348219
-0.402471
-0.0865408
-0.0825043
-0.0812524
-0.0803314
-0.0807332
-0.0821906
-0.0849377
-0.0890912
-0.0948649
-0.102508
-0.112382
-0.124929
-0.140696
-0.160073
-0.184455
-0.214379
-0.250852
-0.287826
-0.311759
-0.336534
-0.0795454
-0.0752938
-0.0738341
-0.072679
-0.0728139
-0.0739958
-0.0764465
-0.0802888
-0.0857344
-0.0930368
-0.102573
-0.114793
-0.130393
-0.15007
-0.17555
-0.20766
-0.250158
-0.297149
-0.332708
-0.375476
-0.0988097
-0.0951128
-0.0942941
-0.0938131
-0.0947092
-0.0966697
-0.0999566
-0.104665
-0.111006
-0.119211
-0.129585
-0.142569
-0.158679
-0.177665
-0.199862
-0.227039
-0.256347
-0.272532
-0.296274
-0.293822
-0.0929574
-0.0890976
-0.0880621
-0.0873603
-0.0880139
-0.0897239
-0.0927409
-0.0971682
-0.103215
-0.111111
-0.121174
-0.133843
-0.149664
-0.168894
-0.192991
-0.223605
-0.258875
-0.288438
-0.31471
-0.327363
-0.108584
-0.105283
-0.10486
-0.104811
-0.106161
-0.108613
-0.112431
-0.117697
-0.124607
-0.133374
-0.144263
-0.157666
-0.174278
-0.194016
-0.215836
-0.241281
-0.268747
-0.279549
-0.281245
-0.242702
-0.104014
-0.100482
-0.0998801
-0.0996073
-0.100732
-0.102929
-0.106468
-0.111432
-0.118023
-0.126442
-0.136918
-0.149764
-0.165476
-0.183829
-0.204724
-0.231005
-0.261364
-0.276263
-0.295948
-0.274462
0.0231245
0.0305207
0.0530467
0.0598291
0.0707934
0.0742102
0.0771053
0.0754789
0.0714161
0.0635978
0.0524398
0.0375084
0.0187112
-0.00397099
-0.0305876
-0.0608409
-0.0942878
-0.130233
-0.167764
-0.205817
-0.243275
-0.279062
-0.312219
-0.34195
-0.367643
-0.388871
-0.405381
-0.417091
-0.424059
-0.426501
-0.424704
-0.419102
-0.410179
-0.398472
-0.384554
-0.369002
-0.352373
-0.335187
-0.317912
-0.300952
-0.284639
-0.269238
-0.254945
-0.241894
-0.230162
-0.219776
-0.210728
-0.202976
-0.196455
-0.191084
-0.186769
-0.183413
-0.180912
-0.179164
-0.178071
-0.177534
-0.177464
-0.17777
-0.178374
-0.179204
-0.180199
-0.181302
-0.182467
-0.183655
-0.184834
-0.185984
-0.187087
-0.188137
-0.189132
-0.190074
-0.190973
-0.191838
-0.192681
-0.193514
-0.194351
-0.195202
-0.196076
-0.196981
-0.197922
-0.1989
-0.199916
-0.200964
-0.202038
-0.203128
-0.204221
-0.205301
-0.206348
-0.207338
-0.208245
-0.209034
-0.20968
-0.210116
-0.210411
-0.210251
-0.210425
-0.20889
-0.211039
-0.206275
-0.215741
-0.213612
0.0222916
0.0299209
0.0516443
0.0584583
0.0690139
0.0723581
0.075008
0.0732536
0.0689936
0.0609893
0.049606
0.034424
0.0152753
-0.00777241
-0.0348157
-0.0655499
-0.0995054
-0.13595
-0.173927
-0.212325
-0.249994
-0.285841
-0.318904
-0.348401
-0.373739
-0.39451
-0.410483
-0.42159
-0.42791
-0.429764
-0.427305
-0.421036
-0.411478
-0.399172
-0.384707
-0.368666
-0.351614
-0.334074
-0.316515
-0.299339
-0.282879
-0.267391
-0.253065
-0.240026
-0.228344
-0.218042
-0.209102
-0.201477
-0.195097
-0.189876
-0.185716
-0.182513
-0.180164
-0.178561
-0.177602
-0.177182
-0.177222
-0.177646
-0.178359
-0.17928
-0.180348
-0.181507
-0.182711
-0.183922
-0.185111
-0.186258
-0.187353
-0.188388
-0.189366
-0.190291
-0.191172
-0.192022
-0.192853
-0.193678
-0.194509
-0.195359
-0.196236
-0.197147
-0.198096
-0.199084
-0.200109
-0.201167
-0.20225
-0.203346
-0.204443
-0.205524
-0.206568
-0.207552
-0.20845
-0.209232
-0.209874
-0.210327
-0.210628
-0.210511
-0.210733
-0.20938
-0.212032
-0.207488
-0.220382
-0.214585
0.0244968
0.0318051
0.0554665
0.0624315
0.0739461
0.0776371
0.080888
0.0795753
0.0758411
0.0683848
0.0576258
0.0431354
0.0249021
0.00281059
-0.0231113
-0.0526035
-0.0852518
-0.120416
-0.15725
-0.194761
-0.231884
-0.267571
-0.300864
-0.330947
-0.357178
-0.379092
-0.396404
-0.408999
-0.41691
-0.420354
-0.41955
-0.414923
-0.406954
-0.396162
-0.3831
-0.368331
-0.352401
-0.335824
-0.319062
-0.302518
-0.28653
-0.271366
-0.25723
-0.244262
-0.232548
-0.222127
-0.212996
-0.205123
-0.198451
-0.192905
-0.188399
-0.18484
-0.182132
-0.180176
-0.178878
-0.178144
-0.177886
-0.178031
-0.178494
-0.179203
-0.180095
-0.181114
-0.182213
-0.183352
-0.184499
-0.185629
-0.186726
-0.187779
-0.188784
-0.189742
-0.190658
-0.19154
-0.192398
-0.193244
-0.194088
-0.194942
-0.195814
-0.196711
-0.19764
-0.198602
-0.199597
-0.200622
-0.201671
-0.202735
-0.203802
-0.204856
-0.205879
-0.206847
-0.207735
-0.208507
-0.209144
-0.209562
-0.209833
-0.209592
-0.209593
-0.208006
-0.20899
-0.205062
-0.208893
-0.207845
0.0238423
0.0311853
0.0542901
0.0611836
0.072428
0.0759998
0.0790822
0.077629
0.0737432
0.0661262
0.0551858
0.0404953
0.0220203
-0.000342707
-0.0265861
-0.0564335
-0.0894608
-0.125003
-0.162184
-0.199975
-0.237287
-0.273055
-0.306318
-0.336268
-0.362273
-0.383887
-0.400839
-0.41303
-0.420503
-0.423432
-0.422169
-0.417079
-0.408648
-0.397407
-0.383922
-0.368762
-0.352481
-0.335594
-0.318569
-0.301808
-0.285648
-0.270355
-0.256131
-0.243111
-0.231378
-0.220965
-0.211867
-0.204046
-0.197442
-0.191977
-0.187562
-0.1841
-0.181493
-0.179641
-0.178446
-0.177816
-0.177649
-0.177863
-0.178394
-0.179166
-0.180114
-0.181183
-0.182322
-0.183492
-0.18466
-0.185803
-0.186904
-0.187956
-0.188956
-0.189905
-0.190812
-0.191684
-0.192533
-0.193372
-0.194211
-0.195062
-0.195934
-0.196835
-0.197769
-0.198739
-0.199745
-0.200782
-0.201845
-0.202924
-0.204007
-0.205078
-0.206118
-0.207104
-0.208011
-0.208804
-0.20946
-0.209901
-0.210194
-0.21002
-0.210175
-0.208595
-0.210202
-0.205765
-0.211653
-0.209446
0.0255193
0.0327834
0.0573311
0.0643824
0.0763242
0.0801801
0.083688
0.0825739
0.0790631
0.0718441
0.0613518
0.0471681
0.0292788
0.00759611
-0.0178407
-0.0468005
-0.0788808
-0.113478
-0.149792
-0.186879
-0.223714
-0.259275
-0.292609
-0.322892
-0.349461
-0.371828
-0.389685
-0.402891
-0.411463
-0.415581
-0.415488
-0.411561
-0.404279
-0.394149
-0.381711
-0.367518
-0.352109
-0.335989
-0.319619
-0.303401
-0.287672
-0.272706
-0.25871
-0.245829
-0.234155
-0.223733
-0.214566
-0.206628
-0.199867
-0.194214
-0.189587
-0.185896
-0.183051
-0.180956
-0.17952
-0.178653
-0.178269
-0.17829
-0.178642
-0.179254
-0.180064
-0.181017
-0.182063
-0.183163
-0.184282
-0.185396
-0.186485
-0.187538
-0.188548
-0.189516
-0.190443
-0.191337
-0.192207
-0.193063
-0.193914
-0.194771
-0.195644
-0.196538
-0.19746
-0.198412
-0.199395
-0.200405
-0.201438
-0.202484
-0.203532
-0.204567
-0.20557
-0.206516
-0.207382
-0.208126
-0.20873
-0.2091
-0.209303
-0.208997
-0.20879
-0.207217
-0.207232
-0.203853
-0.204984
-0.202238
0.0250612
0.0323515
0.0564963
0.0635189
0.0752659
0.0790549
0.0824469
0.0812488
0.0776388
0.0703172
0.0597071
0.0453891
0.0273515
0.00548926
-0.0201612
-0.049356
-0.0816881
-0.116538
-0.153087
-0.190369
-0.227341
-0.262969
-0.296298
-0.326506
-0.352938
-0.375117
-0.392746
-0.405695
-0.413989
-0.417781
-0.417364
-0.41314
-0.405558
-0.395133
-0.382415
-0.36796
-0.352312
-0.33598
-0.319426
-0.303052
-0.287198
-0.272133
-0.258064
-0.245135
-0.233435
-0.223006
-0.213849
-0.205935
-0.19921
-0.193602
-0.189027
-0.185395
-0.182611
-0.180581
-0.179209
-0.178407
-0.178086
-0.178158
-0.178554
-0.179207
-0.180053
-0.181038
-0.182112
-0.183233
-0.18437
-0.185495
-0.186591
-0.187647
-0.188656
-0.18962
-0.190542
-0.191431
-0.192295
-0.193146
-0.193993
-0.194848
-0.19572
-0.196616
-0.197541
-0.198498
-0.199488
-0.200506
-0.201548
-0.202605
-0.203665
-0.204712
-0.205727
-0.206688
-0.207567
-0.208328
-0.208947
-0.209337
-0.209572
-0.209314
-0.209243
-0.207671
-0.208138
-0.204481
-0.206535
-0.203828
0.026003
0.0332475
0.0582116
0.0652969
0.0774382
0.0813653
0.0849915
0.083965
0.0805557
0.0734421
0.0630706
0.0490242
0.0312869
0.00978598
-0.015433
-0.0441533
-0.0759774
-0.110316
-0.146392
-0.18328
-0.219976
-0.255469
-0.288811
-0.319173
-0.345886
-0.368451
-0.386548
-0.400029
-0.4089
-0.413323
-0.413539
-0.409931
-0.402963
-0.393136
-0.380985
-0.367057
-0.351889
-0.335982
-0.319797
-0.303733
-0.28813
-0.273262
-0.259336
-0.246502
-0.234853
-0.224437
-0.215261
-0.207299
-0.200503
-0.194806
-0.190127
-0.186381
-0.183476
-0.181321
-0.179824
-0.178898
-0.178458
-0.178425
-0.178725
-0.179291
-0.180062
-0.180982
-0.182002
-0.183083
-0.184189
-0.185294
-0.18638
-0.187432
-0.188444
-0.189416
-0.190348
-0.191248
-0.192122
-0.192982
-0.193837
-0.194697
-0.19557
-0.196463
-0.197383
-0.198331
-0.199308
-0.200313
-0.201338
-0.202376
-0.203416
-0.204441
-0.205434
-0.206369
-0.207222
-0.207951
-0.208534
-0.208879
-0.209041
-0.208705
-0.208387
-0.206832
-0.206398
-0.203196
-0.203374
-0.199242
0.0258375
0.0330906
0.057911
0.0649874
0.0770595
0.0809642
0.0845497
0.0834945
0.0800508
0.0729024
0.0624898
0.0483977
0.0306095
0.00904706
-0.0162458
-0.0450477
-0.0769595
-0.111387
-0.147546
-0.184504
-0.221251
-0.25677
-0.290113
-0.320453
-0.347121
-0.369623
-0.387643
-0.401035
-0.409811
-0.414123
-0.414221
-0.41051
-0.403439
-0.393508
-0.381258
-0.367238
-0.351985
-0.336003
-0.319751
-0.303631
-0.287982
-0.273077
-0.259123
-0.24627
-0.23461
-0.22419
-0.215015
-0.20706
-0.200275
-0.194592
-0.18993
-0.186204
-0.183319
-0.181186
-0.179711
-0.178807
-0.178388
-0.178375
-0.17869
-0.17927
-0.180054
-0.180985
-0.182016
-0.183104
-0.184217
-0.185327
-0.186415
-0.187469
-0.188481
-0.189451
-0.190382
-0.19128
-0.192153
-0.193011
-0.193865
-0.194723
-0.195596
-0.19649
-0.19741
-0.19836
-0.19934
-0.200347
-0.201375
-0.202417
-0.203461
-0.204491
-0.205488
-0.206429
-0.207287
-0.208022
-0.208613
-0.208966
-0.209141
-0.208824
-0.208557
-0.207006
-0.206729
-0.203457
-0.203858
-0.199895
0.264647
0.264391
0.264279
0.263896
0.263465
0.262683
0.261723
0.260314
0.25837
0.25595
0.25219
0.247232
0.23951
0.229824
0.214461
0.196467
0.167239
0.136798
0.0868581
0.0421925
0.264704
0.2644
0.264386
0.263959
0.263676
0.262862
0.262164
0.26075
0.259251
0.256791
0.25362
0.248926
0.242003
0.233134
0.218664
0.202426
0.173519
0.145939
0.0942218
0.0521576
0.264759
0.264419
0.264477
0.264028
0.263841
0.263021
0.262465
0.261098
0.259802
0.257492
0.254683
0.250319
0.243972
0.235782
0.22209
0.20702
0.178671
0.152699
0.0997793
0.0590396
0.264825
0.264443
0.264582
0.264105
0.264037
0.2632
0.262864
0.261492
0.260563
0.258286
0.256015
0.251899
0.246367
0.238798
0.226194
0.212286
0.184774
0.160454
0.106131
0.0668312
0.264898
0.264474
0.264696
0.264192
0.264246
0.263397
0.263264
0.261916
0.261333
0.25914
0.257445
0.253595
0.248993
0.24203
0.230739
0.217902
0.191581
0.168648
0.112988
0.0748777
0.264978
0.26451
0.264817
0.264287
0.264467
0.263606
0.263695
0.262363
0.262153
0.260042
0.258979
0.255382
0.251843
0.245448
0.235709
0.223845
0.199102
0.17731
0.120452
0.0832107
0.265064
0.264552
0.264944
0.264389
0.264698
0.263825
0.264141
0.262828
0.263013
0.260983
0.260606
0.257246
0.254903
0.249037
0.241111
0.230113
0.207399
0.186483
0.128682
0.091941
0.265153
0.264598
0.265075
0.264496
0.264936
0.264053
0.264601
0.263309
0.263901
0.261957
0.262306
0.259178
0.258148
0.252764
0.246948
0.236699
0.216526
0.196196
0.137883
0.101116
0.265246
0.264647
0.265209
0.264607
0.265178
0.264287
0.265069
0.263799
0.264808
0.262955
0.264062
0.261165
0.261544
0.256609
0.253205
0.243612
0.226537
0.206481
0.148302
0.11074
0.26534
0.2647
0.265345
0.264721
0.265421
0.264524
0.265539
0.264296
0.265724
0.263968
0.265852
0.263193
0.265052
0.260558
0.25984
0.250864
0.237498
0.217374
0.160244
0.120788
0.265435
0.264755
0.265481
0.264835
0.265664
0.264762
0.266008
0.264794
0.26664
0.264986
0.267655
0.265247
0.268632
0.264602
0.266799
0.258409
0.24953
0.228929
0.174069
0.131211
0.265529
0.264812
0.265616
0.264949
0.265903
0.264998
0.266469
0.265288
0.267544
0.266001
0.269447
0.26731
0.272237
0.268723
0.273998
0.266234
0.262681
0.241267
0.190229
0.14189
0.265621
0.264869
0.265747
0.265061
0.266135
0.26523
0.266918
0.265772
0.268426
0.267002
0.271209
0.269365
0.275821
0.272895
0.281345
0.274343
0.276903
0.254652
0.209257
0.152645
0.265708
0.264927
0.265874
0.26517
0.26636
0.265455
0.26735
0.266242
0.269277
0.267979
0.272917
0.27139
0.279337
0.277084
0.288736
0.282747
0.292104
0.269343
0.231782
0.163302
0.265791
0.264983
0.265996
0.265273
0.266573
0.265669
0.267761
0.266693
0.270088
0.26892
0.274552
0.273364
0.282738
0.281253
0.296062
0.291434
0.308075
0.285426
0.258752
0.173898
0.265866
0.265039
0.266111
0.265371
0.266773
0.265872
0.268146
0.267118
0.270849
0.269813
0.276095
0.275259
0.285979
0.285349
0.303213
0.30035
0.324556
0.303109
0.290894
0.184907
0.265933
0.265093
0.266217
0.265461
0.266958
0.266059
0.268503
0.267512
0.271554
0.270647
0.277529
0.277048
0.289021
0.28931
0.31008
0.309393
0.341284
0.322592
0.328865
0.19767
0.265991
0.26515
0.266314
0.265542
0.267127
0.266227
0.268827
0.267867
0.272197
0.271404
0.278841
0.278696
0.291828
0.29305
0.316559
0.318398
0.357965
0.344011
0.373273
0.215017
0.266039
0.265188
0.266403
0.265607
0.267278
0.266373
0.269116
0.268181
0.272769
0.27208
0.280013
0.280185
0.294361
0.296509
0.322534
0.327193
0.374108
0.367461
0.423005
0.245443
0.266071
0.265268
0.266465
0.265688
0.267396
0.266526
0.269353
0.268483
0.273248
0.272707
0.281015
0.281544
0.296563
0.299687
0.327851
0.33557
0.389248
0.392378
0.476489
0.3065
0.266071
0.265268
0.266465
0.265688
0.267396
0.266526
0.269353
0.268483
0.273248
0.272707
0.281015
0.281544
0.296563
0.299687
0.327851
0.33557
0.389248
0.392378
0.476489
0.3065
0.266039
0.265188
0.266403
0.265607
0.267278
0.266373
0.269116
0.268181
0.272769
0.27208
0.280013
0.280185
0.294361