/*--------------------------------*- C++ -*----------------------------------*\
  =========                 |
  \\      /  F ield         | OpenFOAM: The Open Source CFD Toolbox
   \\    /   O peration     | Website:  https://openfoam.org
    \\  /    A nd           | Version:  7
     \\/     M anipulation  |
\*---------------------------------------------------------------------------*/
FoamFile
{
    version     2.0;
    format      ascii;
    class       volScalarField;
    location    "28";
    object      p;
}
// * * * * * * * * * * * * * * * * * * * * * * * * * * * * * * * * * * * * * //

dimensions      [0 2 -2 0 0 0 0];

internalField   nonuniform List<scalar> 
4000
(
0.250202
0.260161
0.2637
0.26986
0.273175
0.276988
0.279121
0.281124
0.281248
0.281062
0.277587
0.2744
0.263845
0.255528
0.230391
0.202304
0.139412
0.0257721
-0.138616
-0.657654
0.240314
0.249904
0.253191
0.258708
0.261516
0.264561
0.265896
0.266721
0.265466
0.263299
0.257648
0.250774
0.236014
0.21831
0.18478
0.149959
0.0946878
0.0806091
-0.00407318
0.216961
0.231057
0.240506
0.243569
0.248665
0.250951
0.253288
0.253652
0.253135
0.25019
0.245565
0.236976
0.22511
0.204719
0.178376
0.138246
0.0972067
0.042717
-0.00922276
-0.0577712
-0.197703
0.222197
0.231416
0.234182
0.238827
0.240515
0.24204
0.241322
0.239371
0.23473
0.227621
0.2157
0.199008
0.173784
0.142272
0.102353
0.06915
0.0331623
0.0364759
-0.0212288
0.0935195
0.213592
0.222461
0.22486
0.228996
0.230054
0.230757
0.229016
0.225723
0.219375
0.209805
0.194797
0.173994
0.145024
0.111094
0.0751207
0.0507978
0.027625
0.00200821
-0.00222744
-0.0230727
0.205241
0.213699
0.215695
0.219275
0.219659
0.219468
0.216652
0.211828
0.20331
0.190926
0.172875
0.148921
0.118417
0.0860785
0.0587486
0.0452423
0.0263598
0.0331011
0.0129981
0.0627496
0.197183
0.205192
0.206779
0.209787
0.209515
0.208473
0.204662
0.198594
0.188663
0.174646
0.15489
0.129222
0.098501
0.0693636
0.0494965
0.0396187
0.0283791
0.0236435
0.0266906
0.0347395
0.189443
0.196972
0.19815
0.200551
0.199622
0.19772
0.192755
0.185082
0.173062
0.156528
0.134404
0.107222
0.0778626
0.0542968
0.0411514
0.0348656
0.0283427
0.0388787
0.0374158
0.0640425
0.182027
0.18903
0.189818
0.191587
0.190062
0.187358
0.181559
0.173093
0.160619
0.144207
0.123022
0.0973965
0.0699522
0.0496051
0.0385103
0.0345329
0.0335101
0.0416261
0.0459468
0.0627346
0.174962
0.181391
0.18183
0.182922
0.180835
0.177252
0.170495
0.160697
0.146318
0.127373
0.103206
0.0742177
0.0452795
0.0245632
0.017703
0.0245859
0.0357169
0.0520494
0.0587701
0.0810169
0.35337
0.371072
0.377606
0.392561
0.402632
0.417664
0.431007
0.447994
0.465976
0.487973
0.513005
0.543763
0.578775
0.622478
0.670034
0.730693
0.786859
0.872843
0.918595
1.06061
0.343126
0.360371
0.366334
0.380608
0.389657
0.40361
0.415436
0.430641
0.446173
0.465259
0.48635
0.512908
0.542098
0.580039
0.617324
0.673207
0.711063
0.79739
0.81327
0.950048
0.332949
0.349469
0.354982
0.368257
0.376387
0.389032
0.399392
0.412795
0.426106
0.44271
0.460667
0.484162
0.509423
0.545203
0.578911
0.634862
0.67151
0.757359
0.778476
0.898361
0.322822
0.33856
0.343695
0.356037
0.363353
0.374801
0.383817
0.395564
0.406771
0.420936
0.43555
0.455511
0.475336
0.506873
0.531713
0.584966
0.607583
0.697904
0.704455
0.836318
0.312603
0.327554
0.332318
0.34376
0.350281
0.36054
0.368208
0.378247
0.387253
0.3988
0.409827
0.425973
0.440289
0.467111
0.484854
0.532183
0.550673
0.627814
0.643651
0.751028
0.302259
0.316408
0.320814
0.331347
0.337101
0.346155
0.352505
0.360837
0.367676
0.376609
0.384141
0.39639
0.40545
0.427143
0.437833
0.479887
0.488523
0.570463
0.572839
0.726163
0.291842
0.30517
0.30926
0.318879
0.323929
0.331796
0.336925
0.343605
0.348405
0.354705
0.358898
0.36703
0.370823
0.385887
0.389707
0.419805
0.422491
0.469005
0.481737
0.555299
0.281396
0.29389
0.297725
0.306448
0.310892
0.317615
0.321663
0.326793
0.329774
0.333936
0.335233
0.340057
0.338565
0.348919
0.344656
0.373976
0.365369
0.445166
0.424498
0.667079
0.270985
0.282635
0.286299
0.294139
0.298074
0.303704
0.306848
0.310596
0.31224
0.314581
0.313528
0.314925
0.309003
0.311483
0.298623
0.307538
0.28554
0.272947
0.235842
0.184671
0.260574
0.271372
0.274957
0.281951
0.285525
0.290147
0.292621
0.295316
0.295964
0.296853
0.29405
0.293211
0.284429
0.284173
0.269179
0.286171
0.285558
0.379113
0.385861
0.718787
0.260574
0.271372
0.274957
0.281951
0.285525
0.290147
0.292621
0.295316
0.295964
0.296853
0.29405
0.293211
0.284429
0.284173
0.269179
0.286171
0.285558
0.379113
0.385861
0.718787
0.270985
0.282635
0.286299
0.294139
0.298074
0.303704
0.306848
0.310596
0.31224
0.314581
0.313528
0.314925
0.309003
0.311483
0.298623
0.307538
0.28554
0.272947
0.235842
0.184671
0.281396
0.29389
0.297725
0.306448
0.310892
0.317615
0.321663
0.326793
0.329774
0.333936
0.335233
0.340057
0.338565
0.348919
0.344656
0.373976
0.365369
0.445166
0.424498
0.667079
0.291842
0.30517
0.30926
0.318879
0.323929
0.331796
0.336925
0.343605
0.348405
0.354705
0.358898
0.36703
0.370823
0.385887
0.389707
0.419805
0.422491
0.469005
0.481737
0.555299
0.302259
0.316408
0.320814
0.331347
0.337101
0.346155
0.352505
0.360837
0.367676
0.376609
0.384141
0.39639
0.40545
0.427143
0.437833
0.479887
0.488523
0.570463
0.572839
0.726163
0.312603
0.327554
0.332318
0.34376
0.350281
0.36054
0.368208
0.378247
0.387253
0.3988
0.409827
0.425973
0.440289
0.467111
0.484854
0.532183
0.550673
0.627814
0.643651
0.751028
0.322822
0.33856
0.343695
0.356037
0.363353
0.374801
0.383817
0.395564
0.406771
0.420936
0.43555
0.455511
0.475336
0.506873
0.531713
0.584966
0.607583
0.697904
0.704455
0.836318
0.332949
0.349469
0.354982
0.368257
0.376387
0.389032
0.399392
0.412795
0.426106
0.44271
0.460667
0.484162
0.509423
0.545203
0.578911
0.634862
0.67151
0.757359
0.778476
0.898361
0.343126
0.360371
0.366334
0.380608
0.389657
0.40361
0.415436
0.430641
0.446173
0.465259
0.48635
0.512908
0.542098
0.580039
0.617324
0.673207
0.711063
0.79739
0.81327
0.950048
0.35337
0.371072
0.377606
0.392561
0.402632
0.417664
0.431007
0.447994
0.465976
0.487973
0.513005
0.543763
0.578775
0.622478
0.670034
0.730693
0.786859
0.872843
0.918595
1.06061
0.174962
0.181391
0.18183
0.182922
0.180835
0.177252
0.170495
0.160697
0.146318
0.127373
0.103206
0.0742177
0.0452795
0.0245632
0.017703
0.0245859
0.0357169
0.0520494
0.0587701
0.0810169
0.182027
0.18903
0.189818
0.191587
0.190062
0.187358
0.181559
0.173093
0.160619
0.144207
0.123022
0.0973965
0.0699522
0.0496051
0.0385103
0.0345329
0.0335101
0.0416261
0.0459468
0.0627346
0.189443
0.196972
0.19815
0.200551
0.199622
0.19772
0.192755
0.185082
0.173062
0.156528
0.134404
0.107222
0.0778626
0.0542968
0.0411514
0.0348656
0.0283427
0.0388787
0.0374158
0.0640425
0.197183
0.205192
0.206779
0.209787
0.209515
0.208473
0.204662
0.198594
0.188663
0.174646
0.15489
0.129222
0.098501
0.0693636
0.0494965
0.0396187
0.0283791
0.0236435
0.0266906
0.0347395
0.205241
0.213699
0.215695
0.219275
0.219659
0.219468
0.216652
0.211828
0.20331
0.190926
0.172875
0.148921
0.118417
0.0860785
0.0587486
0.0452423
0.0263598
0.0331011
0.0129981
0.0627496
0.213592
0.222461
0.22486
0.228996
0.230054
0.230757
0.229016
0.225723
0.219375
0.209805
0.194797
0.173994
0.145024
0.111094
0.0751207
0.0507978
0.027625
0.00200821
-0.00222744
-0.0230727
0.222197
0.231416
0.234182
0.238827
0.240515
0.24204
0.241322
0.239371
0.23473
0.227621
0.2157
0.199008
0.173784
0.142272
0.102353
0.06915
0.0331623
0.0364759
-0.0212288
0.0935195
0.231057
0.240506
0.243569
0.248665
0.250951
0.253288
0.253652
0.253135
0.25019
0.245565
0.236976
0.22511
0.204719
0.178376
0.138246
0.0972067
0.042717
-0.00922276
-0.0577712
-0.197703
0.240314
0.249904
0.253191
0.258708
0.261516
0.264561
0.265896
0.266721
0.265466
0.263299
0.257648
0.250774
0.236014
0.21831
0.18478
0.149959
0.0946878
0.0806091
-0.00407318
0.216961
0.250202
0.260161
0.2637
0.26986
0.273175
0.276988
0.279121
0.281124
0.281248
0.281062
0.277587
0.2744
0.263845
0.255528
0.230391
0.202304
0.139412
0.0257721
-0.138616
-0.657654
0.386292
0.404541
0.413146
0.427738
0.440401
0.455228
0.470644
0.487782
0.506733
0.528033
0.552133
0.57974
0.611521
0.648171
0.689722
0.736442
0.786407
0.840881
0.891031
0.939933
0.429473
0.445791
0.454417
0.468262
0.481346
0.49637
0.512683
0.530649
0.550348
0.571954
0.595536
0.621116
0.648561
0.677632
0.707877
0.738718
0.768582
0.798336
0.820135
0.841737
0.465808
0.480154
0.487703
0.499599
0.510731
0.523153
0.536294
0.550335
0.565323
0.581305
0.598284
0.616196
0.634925
0.654215
0.673715
0.692731
0.710789
0.726391
0.738642
0.746241
0.493132
0.505056
0.511566
0.521827
0.531528
0.542344
0.553737
0.565767
0.578369
0.59145
0.604894
0.618548
0.632205
0.645621
0.658471
0.670432
0.680982
0.689802
0.69607
0.69966
0.514044
0.523352
0.528347
0.536177
0.543458
0.551486
0.559841
0.56855
0.577564
0.58681
0.5962
0.605617
0.614919
0.623923
0.632422
0.640149
0.64687
0.652246
0.656074
0.658077
0.529845
0.537285
0.541331
0.547677
0.553593
0.560092
0.566795
0.573704
0.580744
0.587831
0.594874
0.601771
0.608407
0.614661
0.620399
0.625491
0.629786
0.633167
0.635493
0.636689
0.541168
0.546564
0.549488
0.554064
0.558316
0.562964
0.567738
0.572636
0.577607
0.58259
0.587522
0.59233
0.596936
0.601251
0.605189
0.608653
0.611558
0.613819
0.615373
0.616165
0.549835
0.55411
0.55642
0.560039
0.563381
0.56702
0.570726
0.574496
0.578279
0.582024
0.58568
0.589192
0.592506
0.595566
0.598318
0.600709
0.602688
0.604216
0.605255
0.605781
0.555839
0.55881
0.560428
0.562961
0.56531
0.567865
0.57047
0.57312
0.57578
0.578414
0.580986
0.583457
0.585788
0.587939
0.58987
0.591545
0.59293
0.593997
0.594721
0.595088
0.560491
0.562854
0.564124
0.566113
0.567939
0.569917
0.571918
0.573938
0.575949
0.577923
0.579832
0.58165
0.583348
0.584901
0.586285
0.587477
0.588456
0.589207
0.589714
0.589971
0.563648
0.565248
0.566118
0.567485
0.568749
0.570121
0.571515
0.572927
0.574336
0.575723
0.577068
0.578351
0.579552
0.580652
0.581633
0.582478
0.583174
0.583706
0.584067
0.584249
0.566132
0.567417
0.568105
0.569183
0.570167
0.571231
0.572303
0.573381
0.57445
0.575494
0.576499
0.577452
0.578338
0.579145
0.579861
0.580475
0.580977
0.581362
0.581621
0.581752
0.567784
0.568639
0.569101
0.569833
0.570506
0.571238
0.571979
0.572728
0.573474
0.574206
0.574913
0.575585
0.576213
0.576785
0.577294
0.577732
0.578091
0.578365
0.57855
0.578644
0.569111
0.569811
0.570184
0.570768
0.571299
0.571873
0.572449
0.573028
0.573599
0.574157
0.574693
0.575199
0.575669
0.576096
0.576474
0.576797
0.577062
0.577264
0.5774
0.577469
0.569971
0.570433
0.570677
0.571072
0.571431
0.571824
0.572221
0.572622
0.573021
0.573412
0.573789
0.574147
0.574481
0.574785
0.575055
0.575287
0.575476
0.575621
0.575719
0.575769
0.570685
0.571073
0.571276
0.571599
0.571891
0.572206
0.572523
0.57284
0.573154
0.573459
0.573752
0.574029
0.574285
0.574518
0.574724
0.574901
0.575045
0.575155
0.575229
0.575266
0.571125
0.571382
0.571514
0.571736
0.571934
0.572154
0.572375
0.572599
0.572822
0.57304
0.573251
0.573451
0.573638
0.573808
0.573958
0.574088
0.574194
0.574275
0.574329
0.574357
0.57149
0.571715
0.571832
0.572022
0.572193
0.572379
0.572566
0.572754
0.57294
0.573122
0.573296
0.57346
0.573613
0.573752
0.573875
0.57398
0.574066
0.574132
0.574176
0.574198
0.571679
0.571828
0.571901
0.572038
0.572154
0.572292
0.572428
0.572569
0.572709
0.572848
0.572983
0.573111
0.573231
0.57334
0.573438
0.573521
0.57359
0.573642
0.573678
0.573696
0.571868
0.572008
0.57209
0.572221
0.572344
0.57248
0.572618
0.572759
0.572899
0.573036
0.573169
0.573295
0.573412
0.573519
0.573613
0.573694
0.57376
0.573811
0.573845
0.573862
0.00150054
0.00467877
0.006309
0.0079675
0.00950162
0.0109028
0.0122375
0.0135309
0.014789
0.0160164
0.0172145
0.0183789
0.0195002
0.0205648
0.021555
0.0224486
0.0232197
0.0238389
0.0242754
0.024502
0.0074791
0.0137438
0.016832
0.0201913
0.0233152
0.0261833
0.028895
0.0314885
0.0339703
0.0363409
0.038597
0.0407289
0.0427205
0.0445513
0.0461978
0.0476336
0.0488313
0.0497631
0.0504029
0.0507291
0.0161555
0.0248042
0.0295405
0.034756
0.039736
0.0444375
0.0489511
0.0533141
0.0575295
0.0615911
0.0654862
0.0691921
0.0726761
0.0758971
0.0788073
0.081354
0.083482
0.0851376
0.0862726
0.0868503
0.0260047
0.0362161
0.0419297
0.0482613
0.0543315
0.060086
0.0656155
0.0709527
0.0760938
0.0810251
0.0857268
0.0901696
0.0943151
0.0981173
0.101525
0.104484
0.106938
0.108836
0.11013
0.110787
0.0372631
0.0489048
0.0555803
0.0630696
0.0703451
0.07733
0.0841051
0.0906951
0.097085
0.103248
0.10915
0.114748
0.119986
0.124799
0.129118
0.132868
0.135976
0.138376
0.140009
0.140836
0.0489373
0.0615075
0.0688661
0.0770873
0.0851269
0.0928738
0.100401
0.107731
0.114841
0.121695
0.128251
0.134459
0.140256
0.145571
0.150329
0.154452
0.157862
0.160489
0.162275
0.163179
0.0612002
0.0746043
0.0825932
0.0915242
0.100354
0.108935
0.117329
0.125552
0.133573
0.141343
0.148806
0.155894
0.162529
0.168624
0.174085
0.178817
0.182729
0.185741
0.187785
0.188819
0.0733964
0.0872275
0.0956787
0.105034
0.114369
0.123483
0.132427
0.141216
0.149812
0.158156
0.166182
0.173815
0.180966
0.187537
0.193428
0.198533
0.202755
0.206005
0.208211
0.209326
0.0855766
0.099672
0.108493
0.118193
0.127987
0.13763
0.147156
0.156577
0.165845
0.17489
0.183631
0.191974
0.199815
0.207038
0.213521
0.219145
0.223796
0.227373
0.229801
0.231027
0.0972327
0.11121
0.120246
0.130058
0.140081
0.150027
0.159911
0.169738
0.179457
0.188985
0.19823
0.207084
0.215429
0.223135
0.230066
0.236087
0.241073
0.244911
0.247517
0.248833
0.108346
0.121932
0.13104
0.140825
0.150956
0.16113
0.171334
0.181563
0.191759
0.201826
0.211653
0.221115
0.230069
0.238364
0.245841
0.252346
0.257734
0.261883
0.264698
0.26612
0.118456
0.131216
0.140193
0.149722
0.159721
0.16991
0.180241
0.190693
0.2012
0.211655
0.22193
0.231878
0.241338
0.250134
0.258087
0.265021
0.270774
0.275209
0.278219
0.279739
0.127469
0.138998
0.147612
0.156694
0.16636
0.176414
0.186766
0.197375
0.208162
0.219005
0.229751
0.240228
0.250246
0.259599
0.268079
0.275486
0.281637
0.286379
0.289597
0.291221
0.134925
0.144681
0.152634
0.160974
0.170034
0.179696
0.189847
0.20042
0.211324
0.222418
0.233526
0.244443
0.254948
0.264804
0.273773
0.281627
0.288161
0.293203
0.296627
0.298355
0.140616
0.148029
0.154954
0.162272
0.170457
0.179483
0.18924
0.199634
0.210553
0.221833
0.233268
0.244617
0.255617
0.265993
0.275467
0.283782
0.290705
0.29605
0.299678
0.30151
0.144033
0.148488
0.153775
0.159755
0.166723
0.174762
0.183815
0.193766
0.204473
0.215751
0.227363
0.239028
0.25044
0.261278
0.271226
0.279986
0.287298
0.292951
0.296792
0.298732
0.144509
0.14575
0.148698
0.152857
0.158225
0.164918
0.172929
0.182149
0.192416
0.203516
0.215177
0.227076
0.238853
0.250133
0.260549
0.269757
0.277462
0.283426
0.287481
0.289528
0.140598
0.138313
0.138639
0.14045
0.143746
0.148664
0.15521
0.163302
0.172781
0.183416
0.194906
0.206881
0.218929
0.23061
0.241495
0.251182
0.259327
0.265672
0.269995
0.272183
0.132158
0.12527
0.12299
0.121892
0.122505
0.125089
0.129646
0.136123
0.144393
0.154228
0.165303
0.177204
0.189454
0.201539
0.212942
0.22319
0.231861
0.238613
0.243238
0.245586
0.118774
0.106098
0.101032
0.0961409
0.0934218
0.092999
0.0948846
0.0991147
0.105638
0.114252
0.124619
0.136286
0.148703
0.161259
0.173305
0.184263
0.193627
0.200992
0.20606
0.20864
0.0997852
0.0802568
0.0721735
0.0624847
0.0557153
0.051558
0.0500646
0.0514453
0.0557259
0.0627475
0.0721685
0.0834937
0.0960946
0.109206
0.122125
0.134071
0.144393
0.152574
0.158236
0.16113
0.0741337
0.0470907
0.0357831
0.020411
0.00911521
0.000589632
-0.00483393
-0.00673874
-0.00505674
9.99604e-05
0.00839995
0.0193191
0.0321329
0.0460456
0.0600631
0.0732451
0.0847707
0.0939807
0.100391
0.10368
0.041399
0.00670981
-0.00786716
-0.0293539
-0.045073
-0.058062
-0.0673047
-0.0723866
-0.0732429
-0.0699618
-0.062859
-0.0524669
-0.0395343
-0.0249471
-0.00986971
0.00458403
0.0173874
0.0277084
0.0349351
0.0386558
0.00184656
-0.0397577
-0.0570985
-0.0840785
-0.103152
-0.119829
-0.131999
-0.139604
-0.142598
-0.141043
-0.13522
-0.125647
-0.112978
-0.0982301
-0.0825454
-0.0671979
-0.053401
-0.0421639
-0.034242
-0.030147
-0.0425348
-0.0893157
-0.108247
-0.139094
-0.159805
-0.178913
-0.192893
-0.202266
-0.206935
-0.206914
-0.202443
-0.193979
-0.182149
-0.167862
-0.152256
-0.136662
-0.122419
-0.110684
-0.102348
-0.0980198
-0.0882488
-0.138024
-0.157073
-0.190007
-0.210851
-0.231478
-0.246404
-0.257146
-0.263144
-0.264431
-0.261205
-0.253894
-0.243071
-0.229584
-0.214519
-0.199197
-0.185004
-0.173187
-0.164733
-0.160325
-0.131422
-0.18215
-0.200108
-0.233864
-0.253931
-0.275646
-0.290997
-0.302909
-0.3099
-0.312217
-0.30995
-0.303519
-0.293507
-0.280756
-0.266311
-0.251458
-0.23757
-0.225925
-0.217551
-0.213173
-0.166564
-0.217765
-0.233538
-0.267916
-0.286443
-0.309093
-0.32431
-0.33716
-0.344744
-0.347829
-0.346282
-0.340503
-0.331144
-0.319028
-0.305185
-0.290871
-0.277421
-0.266098
-0.257931
-0.253654
-0.19048
-0.243391
-0.255636
-0.290737
-0.306788
-0.329997
-0.344274
-0.357682
-0.365301
-0.368944
-0.367848
-0.362663
-0.353896
-0.342431
-0.329247
-0.315582
-0.302708
-0.291852
-0.284009
-0.279899
-0.209384
-0.258362
-0.268715
-0.301158
-0.315348
-0.337286
-0.350456
-0.363501
-0.370791
-0.374627
-0.373773
-0.369103
-0.36093
-0.350183
-0.337775
-0.324907
-0.312772
-0.302536
-0.295136
-0.291258
-0.221076
-0.262172
-0.271835
-0.298828
-0.312101
-0.330644
-0.343096
-0.354426
-0.361448
-0.364822
-0.364205
-0.359888
-0.352392
-0.342453
-0.330996
-0.319108
-0.307909
-0.298462
-0.291635
-0.288058
-0.223536
-0.255785
-0.264701
-0.28543
-0.297297
-0.311838
-0.322813
-0.332141
-0.338243
-0.341061
-0.340418
-0.336494
-0.329721
-0.320757
-0.310444
-0.299755
-0.289701
-0.281224
-0.275103
-0.271896
-0.21608
-0.240005
-0.24768
-0.26263
-0.272322
-0.283016
-0.291798
-0.298987
-0.303794
-0.305883
-0.30511
-0.301579
-0.295621
-0.287796
-0.278827
-0.269555
-0.260848
-0.253513
-0.248219
-0.245447
-0.199618
-0.216656
-0.222665
-0.232762
-0.239783
-0.247014
-0.253183
-0.258195
-0.261506
-0.262761
-0.261796
-0.258658
-0.25358
-0.247008
-0.239526
-0.23182
-0.224599
-0.218524
-0.214143
-0.211849
-0.176044
-0.187806
-0.192026
-0.198278
-0.202612
-0.206788
-0.210395
-0.21329
-0.2151
-0.215504
-0.214332
-0.211588
-0.207417
-0.20214
-0.196198
-0.190112
-0.184426
-0.179649
-0.176207
-0.174406
-0.14802
-0.155973
-0.15853
-0.161855
-0.163784
-0.165419
-0.166744
-0.167732
-0.168157
-0.167773
-0.166413
-0.164051
-0.160756
-0.156732
-0.152278
-0.147756
-0.143552
-0.140029
-0.137493
-0.136167
-0.117987
-0.123316
-0.124507
-0.125708
-0.125721
-0.125386
-0.124878
-0.124297
-0.123568
-0.12253
-0.121039
-0.119041
-0.116552
-0.11367
-0.110568
-0.107467
-0.104607
-0.10222
-0.100507
-0.0996115
-0.0881533
-0.0917352
-0.0919191
-0.0916651
-0.0903099
-0.0885626
-0.0867071
-0.0849678
-0.083371
-0.0818503
-0.0802985
-0.078641
-0.0768547
-0.0749565
-0.0730129
-0.0711248
-0.0694122
-0.0679966
-0.0669854
-0.0664585
-0.0600709
-0.0625288
-0.0620578
-0.0609022
-0.0586938
-0.0560606
-0.0533492
-0.0508602
-0.0487071
-0.0468928
-0.0453546
-0.0440121
-0.0428156
-0.0417183
-0.0407095
-0.0397975
-0.0390073
-0.0383724
-0.0379261
-0.0376955
-0.0348217
-0.036551
-0.0357159
-0.0340728
-0.0314312
-0.0283457
-0.0251966
-0.0223183
-0.0198886
-0.0179572
-0.0165009
-0.0154502
-0.0147272
-0.0142537
-0.0139601
-0.0137898
-0.0136987
-0.0136547
-0.0136361
-0.0136298
-0.0129286
-0.0141747
-0.0131904
-0.0113614
-0.0086111
-0.00542172
-0.00217909
0.000779413
0.00324666
0.00513704
0.00644947
0.00723738
0.00759053
0.00760506
0.00738543
0.00703029
0.0066294
0.00625887
0.00597803
0.00582736
0.00545273
0.00455474
0.00554334
0.00735165
0.00998501
0.013032
0.016123
0.0189383
0.0212679
0.0230076
0.0241409
0.0247058
0.0247876
0.0244896
0.0239333
0.0232399
0.0225254
0.0218917
0.0214211
0.0211711
0.0204318
0.0197963
0.0207019
0.0223647
0.0247447
0.0274982
0.0302817
0.0328057
0.0348753
0.0363871
0.0373163
0.0376883
0.0375805
0.0370932
0.0363483
0.0354738
0.0345953
0.0338258
0.0332578
0.0329568
0.0323309
0.0319104
0.0326895
0.0341443
0.0361999
0.0385831
0.040982
0.0431396
0.0448863
0.0461343
0.0468592
0.0470782
0.0468535
0.0462727
0.0454526
0.0445162
0.0435872
0.0427784
0.0421832
0.0418684
0.0415538
0.0413041
0.0419474
0.0431703
0.0448794
0.0468653
0.048853
0.0506143
0.0520053
0.0529633
0.0534739
0.0535521
0.0532487
0.0526417
0.0518255
0.0509111
0.0500113
0.049231
0.0486579
0.0483549
0.0485976
0.0484757
0.0489857
0.0499712
0.0513374
0.0529319
0.0545226
0.0559067
0.0569603
0.0576466
0.0579669
0.0579418
0.0576123
0.0570223
0.0562637
0.0554265
0.0546084
0.0539012
0.0533825
0.0531085
0.0539159
0.0538764
0.0542606
0.0550118
0.0560474
0.0572636
0.0584729
0.0594985
0.0602253
0.0606358
0.060748
0.0605922
0.0601999
0.0596464
0.0589629
0.0582262
0.0575132
0.0568998
0.056451
0.0562141
0.0579716
0.0579738
0.0582345
0.0587556
0.0594737
0.0603298
0.061183
0.0618927
0.0623506
0.0625478
0.0625153
0.0622968
0.0619304
0.0614234
0.0608312
0.0602098
0.0596159
0.0591084
0.0587383
0.0585432
0.0611438
0.0611606
0.0612939
0.061587
0.0619905
0.0624839
0.0629716
0.0633541
0.0635248
0.0634647
0.0632136
0.0628283
0.0623499
0.061839
0.0613156
0.0607905
0.0603031
0.0598926
0.0595955
0.0594396
0.0638263
0.0638336
0.0638332
0.0638989
0.0639878
0.0641153
0.0642362
0.0643083
0.0642557
0.0640604
0.0637583
0.0633997
0.0630133
0.0626018
0.0621556
0.061737
0.0613593
0.0610476
0.0608247
0.0607084
0.0663689
0.0663629
0.0662167
0.0660419
0.0657855
0.0654985
0.0651713
0.0648103
0.0643706
0.0638232
0.0631894
0.0625434
0.0619266
0.0613591
0.0609465
0.0605788
0.060275
0.0600375
0.059873
0.0597888
0.0691726
0.069164
0.0688601
0.068433
0.0678083
0.067083
0.0662807
0.0654953
0.0647708
0.064123
0.0635515
0.0630774
0.0626941
0.062404
0.0620725
0.0618141
0.0616148
0.0614694
0.0613746
0.0613279
0.0726422
0.0726462
0.0721641
0.0714513
0.0703877
0.0691045
0.0676291
0.0661027
0.0646143
0.0632271
0.0619536
0.0608511
0.0599561
0.0592518
0.0588191
0.0585684
0.0584124
0.0583306
0.0582909
0.0582767
0.077241
0.0772959
0.0766334
0.0756407
0.074131
0.0722853
0.0701399
0.0679524
0.0659601
0.0643934
0.0632825
0.062567
0.0621623
0.0619562
0.0618108
0.0616853
0.061664
0.0616943
0.0617424
0.0617771
0.0834458
0.0836015
0.0827273
0.08141
0.0793486
0.0767475
0.0735942
0.0701262
0.0665965
0.0633599
0.0606221
0.0584441
0.0568585
0.055811
0.0551773
0.0550662
0.0550965
0.0552653
0.0554363
0.0555572
0.0918525
0.0922448
0.0912041
0.0896414
0.0870965
0.0838481
0.0798828
0.0755454
0.0712402
0.067611
0.0650772
0.0636375
0.0629447
0.062699
0.0627326
0.0626348
0.0627929
0.0630616
0.0633459
0.0635475
0.102939
0.103747
0.102601
0.100852
0.0977113
0.0934575
0.0879623
0.0814755
0.0743277
0.0672089
0.0609351
0.0560768
0.0526432
0.0506295
0.0495844
0.0496218
0.0501423
0.0510985
0.0519689
0.0526806
0.117294
0.118806
0.117757
0.116169
0.112946
0.108493
0.102627
0.0956133
0.0878461
0.0803359
0.0744035
0.0707858
0.0691076
0.0681455
0.0675818
0.0670151
0.0668217
0.0673277
0.0680266
0.0688428
0.135609
0.138063
0.136956
0.135196
0.131198
0.125369
0.117307
0.107043
0.0946374
0.080688
0.0663758
0.0538395
0.0449905
0.0401225
0.038312
0.0389322
0.0411311
0.0457243
0.0495442
0.0542122
0.15867
0.163419
0.163286
0.162793
0.159693
0.154478
0.146681
0.136539
0.124431
0.111911
0.102469
0.0986112
0.09872
0.0964312
0.0891758
0.0825757
0.0773595
0.0751488
0.0742936
0.0767975
0.571868
0.572008
0.57209
0.572221
0.572344
0.57248
0.572618
0.572759
0.572899
0.573036
0.573169
0.573295
0.573412
0.573519
0.573613
0.573694
0.57376
0.573811
0.573845
0.573862
0.571679
0.571828
0.571901
0.572038
0.572154
0.572292
0.572428
0.572569
0.572709
0.572848
0.572983
0.573111
0.573231
0.57334
0.573438
0.573521
0.57359
0.573642
0.573678
0.573696
0.57149
0.571715
0.571832
0.572022
0.572193
0.572379
0.572566
0.572754
0.57294
0.573122
0.573296
0.57346
0.573613
0.573752
0.573875
0.57398
0.574066
0.574132
0.574176
0.574198
0.571125
0.571382
0.571514
0.571736
0.571934
0.572154
0.572375
0.572599
0.572822
0.57304
0.573251
0.573451
0.573638
0.573808
0.573958
0.574088
0.574194
0.574275
0.574329
0.574357
0.570685
0.571073
0.571276
0.571599
0.571891
0.572206
0.572523
0.57284
0.573154
0.573459
0.573752
0.574029
0.574285
0.574518
0.574724
0.574901
0.575045
0.575155
0.575229
0.575266
0.569971
0.570433
0.570677
0.571072
0.571431
0.571824
0.572221
0.572622
0.573021
0.573412
0.573789
0.574147
0.574481
0.574785
0.575055
0.575287
0.575476
0.575621
0.575719
0.575769
0.569111
0.569811
0.570184
0.570768
0.571299
0.571873
0.572449
0.573028
0.573599
0.574157
0.574693
0.575199
0.575669
0.576096
0.576474
0.576797
0.577062
0.577264
0.5774
0.577469
0.567784
0.568639
0.569101
0.569833
0.570506
0.571238
0.571979
0.572728
0.573474
0.574205
0.574913
0.575585
0.576213
0.576785
0.577294
0.577732
0.578091
0.578365
0.57855
0.578644
0.566132
0.567417
0.568105
0.569183
0.570167
0.571231
0.572303
0.573381
0.57445
0.575494
0.576499
0.577452
0.578338
0.579145
0.579861
0.580475
0.580977
0.581362
0.581621
0.581752
0.563648
0.565248
0.566118
0.567485
0.568749
0.570121
0.571515
0.572927
0.574336
0.575723
0.577068
0.578351
0.579552
0.580652
0.581633
0.582478
0.583174
0.583706
0.584067
0.584249
0.560491
0.562854
0.564124
0.566113
0.567939
0.569917
0.571918
0.573938
0.575949
0.577923
0.579832
0.58165
0.583348
0.584901
0.586285
0.587477
0.588456
0.589207
0.589714
0.589971
0.555839
0.55881
0.560428
0.562961
0.56531
0.567865
0.57047
0.57312
0.57578
0.578414
0.580986
0.583457
0.585788
0.587939
0.58987
0.591545
0.59293
0.593997
0.594721
0.595088
0.549835
0.55411
0.55642
0.560039
0.563382
0.56702
0.570726
0.574496
0.578279
0.582024
0.58568
0.589192
0.592506
0.595566
0.598318
0.600709
0.602688
0.604216
0.605255
0.605781
0.541168
0.546564
0.549488
0.554064
0.558316
0.562964
0.567738
0.572636
0.577607
0.58259
0.587522
0.59233
0.596936
0.601251
0.605189
0.608653
0.611558
0.613819
0.615373
0.616165
0.529845
0.537285
0.541331
0.547677
0.553593
0.560092
0.566795
0.573704
0.580744
0.587831
0.594874
0.601771
0.608407
0.614661
0.620399
0.625491
0.629786
0.633167
0.635493
0.636689
0.514044
0.523352
0.528347
0.536177
0.543458
0.551486
0.559841
0.56855
0.577564
0.58681
0.5962
0.605617
0.614919
0.623923
0.632422
0.640149
0.64687
0.652246
0.656074
0.658077
0.493132
0.505056
0.511566
0.521827
0.531528
0.542344
0.553737
0.565767
0.578369
0.59145
0.604894
0.618548
0.632205
0.645621
0.658471
0.670432
0.680982
0.689802
0.69607
0.69966
0.465808
0.480154
0.487703
0.499599
0.510731
0.523153
0.536294
0.550335
0.565323
0.581305
0.598284
0.616196
0.634925
0.654215
0.673715
0.692731
0.710789
0.726391
0.738642
0.746241
0.429473
0.445791
0.454417
0.468262
0.481346
0.49637
0.512683
0.530649
0.550348
0.571954
0.595536
0.621116
0.648561
0.677632
0.707877
0.738718
0.768582
0.798336
0.820135
0.841737
0.386292
0.404541
0.413146
0.427738
0.440401
0.455228
0.470644
0.487782
0.506733
0.528033
0.552133
0.57974
0.611521
0.648171
0.689722
0.736442
0.786407
0.840881
0.891031
0.939933
0.15867
0.163419
0.163286
0.162793
0.159693
0.154478
0.146681
0.136539
0.124431
0.111911
0.102469
0.0986112
0.09872
0.0964312
0.0891758
0.0825757
0.0773595
0.0751488
0.0742936
0.0767975
0.135609
0.138063
0.136956
0.135196
0.131198
0.125369
0.117307
0.107043
0.0946374
0.080688
0.0663758
0.0538395
0.0449905
0.0401225
0.038312
0.0389322
0.0411311
0.0457243
0.0495442
0.0542122
0.117294
0.118806
0.117757
0.116169
0.112946
0.108493
0.102627
0.0956133
0.0878461
0.0803359
0.0744035
0.0707858
0.0691076
0.0681455
0.0675818
0.0670151
0.0668217
0.0673277
0.0680266
0.0688428
0.102939
0.103747
0.102601
0.100852
0.0977113
0.0934575
0.0879623
0.0814755
0.0743277
0.0672089
0.0609351
0.0560768
0.0526432
0.0506295
0.0495844
0.0496218
0.0501423
0.0510985
0.0519689
0.0526806
0.0918525
0.0922448
0.0912041
0.0896414
0.0870965
0.0838481
0.0798828
0.0755454
0.0712402
0.067611
0.0650772
0.0636375
0.0629447
0.062699
0.0627326
0.0626348
0.0627929
0.0630616
0.0633459
0.0635475
0.0834458
0.0836015
0.0827273
0.08141
0.0793486
0.0767475
0.0735942
0.0701262
0.0665965
0.0633599
0.0606221
0.0584441
0.0568585
0.055811
0.0551773
0.0550662
0.0550965
0.0552653
0.0554363
0.0555572
0.077241
0.0772959
0.0766334
0.0756407
0.074131
0.0722853
0.0701399
0.0679524
0.0659601
0.0643934
0.0632825
0.062567
0.0621623
0.0619562
0.0618108
0.0616853
0.061664
0.0616943
0.0617424
0.0617771
0.0726422
0.0726462
0.0721641
0.0714513
0.0703877
0.0691045
0.0676291
0.0661027
0.0646143
0.0632271
0.0619536
0.0608511
0.0599561
0.0592518
0.0588191
0.0585684
0.0584124
0.0583306
0.0582909
0.0582767
0.0691726
0.069164
0.0688601
0.068433
0.0678083
0.067083
0.0662807
0.0654953
0.0647708
0.064123
0.0635515
0.0630774
0.0626941
0.062404
0.0620725
0.0618141
0.0616148
0.0614694
0.0613746
0.0613279
0.0663689
0.0663629
0.0662167
0.0660419
0.0657855
0.0654985
0.0651713
0.0648103
0.0643706
0.0638232
0.0631894
0.0625434
0.0619266
0.0613591
0.0609465
0.0605788
0.060275
0.0600375
0.059873
0.0597888
0.0638263
0.0638336
0.0638332
0.0638989
0.0639878
0.0641153
0.0642362
0.0643083
0.0642557
0.0640604
0.0637583
0.0633997
0.0630133
0.0626018
0.0621556
0.061737
0.0613593
0.0610476
0.0608247
0.0607084
0.0611438
0.0611606
0.0612939
0.0615869
0.0619905
0.0624839
0.0629716
0.0633541
0.0635248
0.0634647
0.0632136
0.0628283
0.0623499
0.061839
0.0613156
0.0607905
0.0603031
0.0598926
0.0595955
0.0594396
0.0579716
0.0579738
0.0582345
0.0587556
0.0594737
0.0603298
0.061183
0.0618927
0.0623506
0.0625478
0.0625153
0.0622968
0.0619304
0.0614234
0.0608312
0.0602098
0.0596159
0.0591084
0.0587383
0.0585432
0.0539159
0.0538764
0.0542606
0.0550118
0.0560474
0.0572636
0.0584729
0.0594985
0.0602253
0.0606358
0.060748
0.0605922
0.0601999
0.0596464
0.0589629
0.0582262
0.0575132
0.0568998
0.056451
0.0562141
0.0485976
0.0484757
0.0489857
0.0499712
0.0513374
0.0529319
0.0545226
0.0559067
0.0569603
0.0576466
0.0579669
0.0579418
0.0576123
0.0570223
0.0562637
0.0554265
0.0546084
0.0539012
0.0533825
0.0531085
0.0415538
0.0413041
0.0419474
0.0431703
0.0448794
0.0468653
0.048853
0.0506143
0.0520053
0.0529633
0.0534739
0.0535521
0.0532487
0.0526417
0.0518255
0.0509111
0.0500113
0.049231
0.0486579
0.0483549
0.0323309
0.0319104
0.0326895
0.0341443
0.0361999
0.0385831
0.040982
0.0431396
0.0448863
0.0461343
0.0468592
0.0470782