/*--------------------------------*- C++ -*----------------------------------*\
  =========                 |
  \\      /  F ield         | OpenFOAM: The Open Source CFD Toolbox
   \\    /   O peration     | Website:  https://openfoam.org
    \\  /    A nd           | Version:  7
     \\/     M anipulation  |
\*---------------------------------------------------------------------------*/
FoamFile
{
    version     2.0;
    format      ascii;
    class       surfaceScalarField;
    location    "28";
    object      phi;
}
// * * * * * * * * * * * * * * * * * * * * * * * * * * * * * * * * * * * * * //

dimensions      [0 3 -1 0 0 0 0];

internalField   nonuniform List<scalar> 
7840
(
-0.00147525
0.00976933
-0.00940007
-0.00184012
0.00973299
-0.00936812
-0.00220479
0.00967634
-0.00931167
-0.00256897
0.00963195
-0.00926777
-0.00293432
0.00958256
-0.0092172
-0.0033008
0.00954096
-0.00917448
-0.00367033
0.00949704
-0.00912751
-0.00404385
0.0094582
-0.00908467
-0.00442328
0.00941908
-0.00903966
-0.00480976
0.00938643
-0.00899995
-0.00520883
0.00935239
-0.00895332
-0.00562106
0.00933371
-0.00892148
-0.00606283
0.00930766
-0.00886588
-0.00652467
0.00932275
-0.00886091
-0.00700805
0.00927196
-0.00878859
-0.00733698
0.00914793
-0.008819
-0.00719617
0.00843544
-0.00857626
-0.00579141
0.00698007
-0.00838483
-0.00317712
0.00401598
-0.00663027
0.00109032
-0.00426744
-0.00150153
0.0101396
-0.0018689
0.0101004
-0.00223654
0.010044
-0.00260432
0.00999973
-0.00297361
0.00995185
-0.00334498
0.00991233
-0.00372013
0.00987219
-0.00410071
0.00983877
-0.0044893
0.00980767
-0.00488843
0.00978556
-0.0053046
0.00976856
-0.00574253
0.00977164
-0.00621125
0.00977637
-0.0066675
0.00977899
-0.0069856
0.00959007
-0.00683317
0.0089955
-0.00585825
0.00746053
-0.00382321
0.00494503
-0.00144267
0.00163543
-0.000352348
-0.00152672
0.0105111
-0.00189611
0.0104697
-0.00226642
0.0104143
-0.00263742
0.0103707
-0.00301087
0.0103253
-0.00338752
0.010289
-0.00376933
0.010254
-0.00415791
0.0102273
-0.00455609
0.0102059
-0.00496716
0.0101966
-0.00539725
0.0101986
-0.00584488
0.0102193
-0.00627964
0.0102111
-0.00657267
0.010072
-0.00647455
0.00949195
-0.00563041
0.00815136
-0.00390607
0.00573618
-0.00162669
0.00266565
-9.16303e-05
0.000100374
-0.000443978
-0.00155074
0.0108837
-0.00192194
0.0108409
-0.00229446
0.0107868
-0.00266812
0.0107444
-0.0030446
0.0107018
-0.00342458
0.010669
-0.00381015
0.0106396
-0.00420364
0.0106208
-0.00460912
0.0106113
-0.00503074
0.0106183
-0.00546809
0.010636
-0.00589305
0.0106442
-0.00621313
0.0105312
-0.00622253
0.0100814
-0.00564298
0.0089124
-0.00427675
0.00678513
-0.00236068
0.00382012
-0.000731728
0.00103669
-5.8447e-05
-0.000572907
-0.000502425
-0.00157337
0.0112574
-0.00194623
0.0112138
-0.00232076
0.0111613
-0.00269718
0.0111208
-0.00307727
0.0110819
-0.00346239
0.0110541
-0.00385514
0.0110323
-0.00425767
0.0110234
-0.00467184
0.0110255
-0.00509588
0.0110423
-0.00551229
0.0110524
-0.00585515
0.0109871
-0.00597275
0.0106488
-0.00562221
0.00973087
-0.00458716
0.00787735
-0.00292143
0.00511939
-0.00122236
0.00212105
-0.000163237
-2.24271e-05
0.000113823
-0.000849967
-0.000388601
-0.00159469
0.011632
-0.00196911
0.0115882
-0.00234544
0.0115377
-0.00272409
0.0114995
-0.00310645
0.0114642
-0.00349354
0.0114412
-0.00388692
0.0114257
-0.00428845
0.0114249
-0.00469949
0.0114365
-0.00511162
0.0114544
-0.0054826
0.0114234
-0.00569869
0.0112032
-0.00556238
0.0105125
-0.00485112
0.00901961
-0.00350392
0.00653016
-0.00187301
0.00348847
-0.000627043
0.00087509
-6.66887e-05
-0.000582781
6.23351e-06
-0.000922889
-0.000382368
-0.0016145
0.0120073
-0.00199013
0.0119638
-0.00236795
0.0119155
-0.00274878
0.0118803
-0.00313414
0.0118496
-0.00352593
0.011833
-0.00392636
0.0118261
-0.00433688
0.0118354
-0.00475156
0.0118512
-0.00513994
0.0118428
-0.0054216
0.011705
-0.00544687
0.0112285
-0.00501956
0.0100852
-0.004
0.00800005
-0.00253014
0.0050603
-0.00115272
0.00211105
-0.000341787
6.41526e-05
-3.43021e-05
-0.000890266
6.98656e-06
-0.000964178
-0.000375381
-0.00163315
0.0123833
-0.00201003
0.0123407
-0.0023893
0.0122948
-0.00277199
0.012263
-0.00315883
0.0122364
-0.00355072
0.0122249
-0.00394723
0.0122226
-0.00434482
0.012233
-0.0047281
0.0122345
-0.00505079
0.0121655
-0.00521092
0.0118652
-0.0050412
0.0110587
-0.00436377
0.00940777
-0.00315639
0.00679268
-0.00176561
0.00366951
-0.00073172
0.00107717
-0.000212392
-0.000455175
-3.79917e-05
-0.00106467
-2.16228e-05
-0.000980547
-0.000397004
-0.0016501
0.0127595
-0.00202763
0.0127183
-0.00240756
0.0126747
-0.00279173
0.0126471
-0.00318031
0.012625
-0.00357524
0.0126198
-0.00397653
0.0126239
-0.00437895
0.0126354
-0.00475537
0.0126109
-0.00502918
0.0124393
-0.00505601
0.011892
-0.0046568
0.0106595
-0.00373286
0.00848383
-0.00243978
0.0054996
-0.00123103
0.00246076
-0.000461203
0.000307343
-0.000101137
-0.000815241
5.52318e-06
-0.00117133
5.51331e-06
-0.000980537
-0.000391491
-0.00166584
0.0131355
-0.00204538
0.0130978
-0.00242665
0.013056
-0.00281285
0.0130333
-0.00320226
0.0130144
-0.00359575
0.0130133
-0.00398722
0.0130154
-0.00435836
0.0130066
-0.00465806
0.0129106
-0.00478462
0.0125659
-0.00459714
0.0117045
-0.00397949
0.0100419
-0.00294803
0.00745237
-0.00175237
0.00430394
-0.00078594
0.00149433
-0.000222638
-0.000255959
2.64269e-05
-0.00106431
5.91318e-05
-0.00120403
1.4162e-05
-0.000935567
-0.000377329
-0.000618351
0.011552
-0.0117744
-0.000403975
0.0114583
-0.0116727
-0.00019456
0.0113587
-0.0115682
3.06347e-06
0.0112312
-0.0114288
0.000191639
0.0111128
-0.0113013
0.000365899
0.0109642
-0.0111384
0.000526188
0.0108154
-0.0109757
0.000668138
0.0106351
-0.0107771
0.00078883
0.0104363
-0.010557
0.000884037
0.0101963
-0.0102915
0.000948515
0.00991747
-0.00998195
0.000977392
0.00957415
-0.00960302
0.000962101
0.00917021
-0.00915492
0.000904909
0.00866878
-0.00861159
0.000796437
0.00811452
-0.00800604
0.000643999
0.00740896
-0.00725652
0.000441336
0.00670812
-0.00650546
0.000178042
0.00574849
-0.00548519
-6.73709e-06
0.00458887
-0.00440409
0.00218168
-0.00218841
-0.000643108
0.0113265
-0.000426423
0.0112417
-0.000214418
0.0111467
-1.40115e-05
0.0110308
0.000177543
0.0109212
0.000354869
0.0107869
0.00051823
0.010652
0.000663193
0.0104902
0.000787046
0.0103124
0.000885265
0.0100981
0.000952746
0.00984999
0.000984667
0.00954223
0.000974508
0.00918037
0.000920757
0.00872253
0.000820872
0.0082144
0.000667535
0.0075623
0.000484996
0.00689066
0.000229914
0.00600357
7.37208e-05
0.00474506
0.0022554
-0.000667803
0.0110982
-0.000447923
0.0110218
-0.000232982
0.0109318
-2.91886e-05
0.010827
0.000165954
0.0107261
0.000347148
0.0106057
0.000514542
0.0104846
0.000663619
0.0103411
0.000791508
0.0101845
0.000893168
0.00999642
0.000962899
0.00978026
0.00099481
0.00951031
0.000980713
0.00919447
0.000916371
0.00878687
0.000798504
0.00833227
0.000618761
0.00774204
0.00040368
0.00710574
0.000120043
0.00628721
-3.65727e-05
0.00490168
0.00221882
-0.000691963
0.0108669
-0.000468555
0.0107984
-0.000250253
0.0107135
-4.26203e-05
0.0106193
0.00015654
0.0105269
0.000342193
0.01042
0.000514363
0.0103124
0.00066858
0.0101869
0.00080202
0.0100511
0.000909485
0.00988895
0.000985492
0.00970425
0.00102328
0.00947252
0.00101609
0.00920166
0.000954328
0.00884863
0.00084158
0.00844502
0.00064995
0.00793367
0.000434085
0.00732161
0.000154796
0.0065665
-1.62929e-05
0.00507276
0.00220253
-0.000715771
0.0106322
-0.000488601
0.0105712
-0.00026667
0.0104916
-5.48481e-05
0.0104075
0.000148734
0.0103233
0.000339393
0.0102293
0.000517144
0.0101347
0.000677695
0.0100263
0.000818432
0.00991037
0.000933972
0.00977341
0.00101913
0.00961909
0.00106598
0.00942567
0.00106858
0.00919907
0.00101494
0.00890226
0.000909261
0.0085507
0.000732389
0.00811054
0.000506331
0.00754766
0.000230362
0.00684246
2.604e-05
0.00527709
0.00222857
-0.000738721
0.0103938
-0.000507313
0.0103398
-0.000281137
0.0102654
-6.43867e-05
0.0101908
0.000144512
0.0101144
0.000341317
0.0100325
0.000526149
0.00994986
0.000694924
0.00985753
0.000845499
0.00975979
0.000972296
0.00964661
0.00107107
0.00952032
0.00113142
0.00936532
0.00115026
0.00918023
0.0011056
0.00894692
0.00100764
0.00864866
0.000801013
0.00831717
0.000563913
0.00778476
0.000241627
0.00716475
2.5075e-05
0.00549364
0.00225365
-0.000761605
0.0101518
-0.00052601
0.0101042
-0.000295625
0.010035
-7.4015e-05
0.00996916
0.00014017
0.00990025
0.00034303
0.00982968
0.000534875
0.00975801
0.000712035
0.00968037
0.000872727
0.0095991
0.00101118
0.00950816
0.00112346
0.00940804
0.0011991
0.00928968
0.00123545
0.00914388
0.00121509
0.00896729
0.00114783
0.00871591
0.00102466
0.00844034
0.000822634
0.00798679
0.000568746
0.00741864
0.000226128
0.00583626
0.00247977
-0.000782794
0.00990542
-0.000542157
0.00986356
-0.000306344
0.00979918
-7.85019e-05
0.00974132
0.000142571
0.00967917
0.000353482
0.00961877
0.000554938
0.00955655
0.000743548
0.00949176
0.000917936
0.00942471
0.00107252
0.00935357
0.00120517
0.0092754
0.0013043
0.00919055
0.0013676
0.00908058
0.00136714
0.00896775
0.00130398
0.00877906
0.00110803
0.00863629
0.000846514
0.00824831
0.000434541
0.00783061
0.000160904
0.00610989
0.00264068
-0.000805275
0.00965525
-0.000560788
0.00961908
-0.000320957
0.00955935
-8.85666e-05
0.00950893
0.00013757
0.00945304
0.000354098
0.00940224
0.000562043
0.00934861
0.000757939
0.00929586
0.000940804
0.00924185
0.0011058
0.00918858
0.00125108
0.00913011
0.00136647
0.00907516
0.00145099
0.00899606
0.00148866
0.00893007
0.00149487
0.00877285
0.00148206
0.00864909
0.00142104
0.00830934
0.00126852
0.00798312
0.000772303
0.00660611
0.00341298
-0.000823463
-0.00057251
-0.000324823
-8.36663e-05
0.000152167
0.000379931
0.00060103
0.000812225
0.00101442
0.00120304
0.00137983
0.00153352
0.0016637
0.00173286
0.00171713
0.00154723
0.00128032
0.000878611
0.000854459
-0.000823463
-0.00965525
0.00940007
-0.00057251
-0.00961908
0.00936812
-0.000324823
-0.00955935
0.00931167
-8.36663e-05
-0.00950893
0.00926777
0.000152167
-0.00945304
0.0092172
0.000379931
-0.00940224
0.00917448
0.00060103
-0.00934861
0.00912751
0.000812225
-0.00929586
0.00908467
0.00101442
-0.00924185
0.00903966
0.00120304
-0.00918858
0.00899995
0.00137983
-0.00913011
0.00895332
0.00153352
-0.00907516
0.00892148
0.0016637
-0.00899606
0.00886588
0.00173286
-0.00893007
0.00886091
0.00171713
-0.00877285
0.00878859
0.00154723
-0.00864909
0.008819
0.00128032
-0.00830934
0.00857626
0.000878611
-0.00798312
0.00838483
0.000854459
-0.00660611
0.00663027
-0.00341298
0.00426744
-0.000805275
-0.00990542
-0.000560788
-0.00986356
-0.000320957
-0.00979918
-8.85666e-05
-0.00974132
0.00013757
-0.00967917
0.000354098
-0.00961877
0.000562043
-0.00955655
0.000757939
-0.00949176
0.000940804
-0.00942471
0.0011058
-0.00935357
0.00125108
-0.0092754
0.00136647
-0.00919055
0.00145099
-0.00908058
0.00148866
-0.00896775
0.00149487
-0.00877906
0.00148206
-0.00863629
0.00142104
-0.00824831
0.00126852
-0.00783061
0.000772303
-0.00610989
-0.00264068
-0.000782794
-0.0101518
-0.000542157
-0.0101042
-0.000306344
-0.010035
-7.85019e-05
-0.00996916
0.000142571
-0.00990025
0.000353482
-0.00982968
0.000554938
-0.00975801
0.000743548
-0.00968037
0.000917936
-0.0095991
0.00107252
-0.00950816
0.00120517
-0.00940804
0.0013043
-0.00928968
0.0013676
-0.00914388
0.00136714
-0.00896729
0.00130398
-0.00871591
0.00110803
-0.00844034
0.000846514
-0.00798679
0.000434541
-0.00741864
0.000160904
-0.00583626
-0.00247977
-0.000761605
-0.0103938
-0.00052601
-0.0103398
-0.000295625
-0.0102654
-7.4015e-05
-0.0101908
0.00014017
-0.0101144
0.00034303
-0.0100325
0.000534875
-0.00994986
0.000712035
-0.00985753
0.000872727
-0.00975979
0.00101118
-0.00964661
0.00112346
-0.00952032
0.0011991
-0.00936532
0.00123545
-0.00918023
0.00121509
-0.00894692
0.00114783
-0.00864866
0.00102466
-0.00831717
0.000822634
-0.00778476
0.000568746
-0.00716475
0.000226128
-0.00549364
-0.00225365
-0.000738721
-0.0106322
-0.000507313
-0.0105712
-0.000281137
-0.0104916
-6.43867e-05
-0.0104075
0.000144512
-0.0103233
0.000341317
-0.0102293
0.000526149
-0.0101347
0.000694924
-0.0100263
0.000845499
-0.00991037
0.000972296
-0.00977341
0.00107107
-0.00961909
0.00113142
-0.00942567
0.00115026
-0.00919907
0.0011056
-0.00890226
0.00100764
-0.0085507
0.000801013
-0.00811054
0.000563913
-0.00754766
0.000241627
-0.00684246
2.5075e-05
-0.00527709
-0.00222857
-0.000715771
-0.0108669
-0.000488601
-0.0107984
-0.00026667
-0.0107135
-5.48481e-05
-0.0106193
0.000148734
-0.0105269
0.000339393
-0.01042
0.000517144
-0.0103124
0.000677695
-0.0101869
0.000818432
-0.0100511
0.000933972
-0.00988895
0.00101913
-0.00970425
0.00106598
-0.00947252
0.00106858
-0.00920166
0.00101494
-0.00884863
0.000909261
-0.00844502
0.000732389
-0.00793367
0.000506331
-0.00732161
0.000230362
-0.0065665
2.604e-05
-0.00507276
-0.00220253
-0.000691963
-0.0110982
-0.000468555
-0.0110218
-0.000250253
-0.0109318
-4.26203e-05
-0.010827
0.00015654
-0.0107261
0.000342193
-0.0106057
0.000514363
-0.0104846
0.00066858
-0.0103411
0.00080202
-0.0101845
0.000909485
-0.00999642
0.000985492
-0.00978026
0.00102328
-0.00951031
0.00101609
-0.00919447
0.000954328
-0.00878687
0.00084158
-0.00833227
0.00064995
-0.00774204
0.000434085
-0.00710574
0.000154796
-0.00628721
-1.62929e-05
-0.00490168
-0.00221882
-0.000667803
-0.0113265
-0.000447923
-0.0112417
-0.000232982
-0.0111467
-2.91886e-05
-0.0110308
0.000165954
-0.0109212
0.000347148
-0.0107869
0.000514542
-0.010652
0.000663619
-0.0104902
0.000791508
-0.0103124
0.000893168
-0.0100981
0.000962899
-0.00984999
0.00099481
-0.00954223
0.000980713
-0.00918037
0.000916371
-0.00872253
0.000798504
-0.0082144
0.000618761
-0.0075623
0.00040368
-0.00689066
0.000120043
-0.00600357
-3.65727e-05
-0.00474506
-0.0022554
-0.000643108
-0.011552
-0.000426423
-0.0114583
-0.000214418
-0.0113587
-1.40115e-05
-0.0112312
0.000177543
-0.0111128
0.000354869
-0.0109642
0.00051823
-0.0108154
0.000663193
-0.0106351
0.000787046
-0.0104363
0.000885265
-0.0101963
0.000952746
-0.00991747
0.000984667
-0.00957415
0.000974508
-0.00917021
0.000920757
-0.00866878
0.000820872
-0.00811452
0.000667535
-0.00740896
0.000484996
-0.00670812
0.000229914
-0.00574849
7.37208e-05
-0.00458887
-0.00218168
-0.000618351
-0.0117744
-0.000403975
-0.0116727
-0.00019456
-0.0115682
3.06347e-06
-0.0114288
0.000191639
-0.0113013
0.000365899
-0.0111384
0.000526188
-0.0109757
0.000668138
-0.0107771
0.00078883
-0.010557
0.000884037
-0.0102915
0.000948515
-0.00998195
0.000977392
-0.00960302
0.000962101
-0.00915492
0.000904909
-0.00861159
0.000796437
-0.00800604
0.000643999
-0.00725652
0.000441336
-0.00650546
0.000178042
-0.00548519
-6.73709e-06
-0.00440409
-0.00218841
-0.00166584
-0.0127595
0.0131355
-0.00204538
-0.0127183
0.0130978
-0.00242665
-0.0126747
0.013056
-0.00281285
-0.0126471
0.0130333
-0.00320226
-0.012625
0.0130144
-0.00359575
-0.0126198
0.0130133
-0.00398722
-0.0126239
0.0130154
-0.00435836
-0.0126354
0.0130066
-0.00465806
-0.0126109
0.0129106
-0.00478462
-0.0124393
0.0125659
-0.00459714
-0.011892
0.0117045
-0.00397949
-0.0106595
0.0100419
-0.00294803
-0.00848383
0.00745237
-0.00175237
-0.0054996
0.00430394
-0.00078594
-0.00246076
0.00149433
-0.000222638
-0.000307343
-0.000255959
2.64269e-05
0.000815241
-0.00106431
5.91318e-05
0.00117133
-0.00120403
1.4162e-05
0.000980537
-0.000935567
0.000391491
-0.000377329
-0.0016501
-0.0123833
-0.00202763
-0.0123407
-0.00240756
-0.0122948
-0.00279173
-0.012263
-0.00318031
-0.0122364
-0.00357524
-0.0122249
-0.00397653
-0.0122226
-0.00437895
-0.012233
-0.00475537
-0.0122345
-0.00502918
-0.0121655
-0.00505601
-0.0118652
-0.0046568
-0.0110587
-0.00373286
-0.00940777
-0.00243978
-0.00679268
-0.00123103
-0.00366951
-0.000461203
-0.00107717
-0.000101137
0.000455175
5.52318e-06
0.00106467
5.51331e-06
0.000980547
0.000397004
-0.00163315
-0.0120073
-0.00201003
-0.0119638
-0.0023893
-0.0119155
-0.00277199
-0.0118803
-0.00315883
-0.0118496
-0.00355072
-0.011833
-0.00394723
-0.0118261
-0.00434482
-0.0118354
-0.0047281
-0.0118512
-0.00505079
-0.0118428
-0.00521092
-0.011705
-0.0050412
-0.0112285
-0.00436377
-0.0100852
-0.00315639
-0.00800005
-0.00176561
-0.0050603
-0.00073172
-0.00211105
-0.000212392
-6.41526e-05
-3.79917e-05
0.000890266
-2.16228e-05
0.000964178
0.000375381
-0.0016145
-0.011632
-0.00199013
-0.0115882
-0.00236795
-0.0115377
-0.00274878
-0.0114995
-0.00313414
-0.0114642
-0.00352593
-0.0114412
-0.00392636
-0.0114257
-0.00433688
-0.0114249
-0.00475156
-0.0114365
-0.00513994
-0.0114544
-0.0054216
-0.0114234
-0.00544687
-0.0112032
-0.00501956
-0.0105125
-0.004
-0.00901961
-0.00253014
-0.00653016
-0.00115272
-0.00348847
-0.000341787
-0.00087509
-3.43021e-05
0.000582781
6.98656e-06
0.000922889
0.000382368
-0.00159469
-0.0112574
-0.00196911
-0.0112138
-0.00234544
-0.0111613
-0.00272409
-0.0111208
-0.00310645
-0.0110819
-0.00349354
-0.0110541
-0.00388692
-0.0110323
-0.00428845
-0.0110234
-0.00469949
-0.0110255
-0.00511162
-0.0110423
-0.0054826
-0.0110524
-0.00569869
-0.0109871
-0.00556238
-0.0106488
-0.00485112
-0.00973087
-0.00350392
-0.00787735
-0.00187301
-0.00511939
-0.000627043
-0.00212105
-6.66887e-05
2.24271e-05
6.23351e-06
0.000849967
0.000388601
-0.00157337
-0.0108837
-0.00194623
-0.0108409
-0.00232076
-0.0107868
-0.00269718
-0.0107444
-0.00307727
-0.0107018
-0.00346239
-0.010669
-0.00385514
-0.0106396
-0.00425767
-0.0106208
-0.00467184
-0.0106113
-0.00509588
-0.0106183
-0.00551229
-0.010636
-0.00585515
-0.0106442
-0.00597275
-0.0105312
-0.00562221
-0.0100814
-0.00458716
-0.0089124
-0.00292143
-0.00678513
-0.00122236
-0.00382012
-0.000163237
-0.00103669
0.000113823
0.000572907
0.000502425
-0.00155074
-0.0105111
-0.00192194
-0.0104697
-0.00229446
-0.0104143
-0.00266812
-0.0103707
-0.0030446
-0.0103253
-0.00342458
-0.010289
-0.00381015
-0.010254
-0.00420364
-0.0102273
-0.00460912
-0.0102059
-0.00503074
-0.0101966
-0.00546809
-0.0101986
-0.00589305
-0.0102193
-0.00621313
-0.0102111
-0.00622253
-0.010072
-0.00564298
-0.00949195
-0.00427675
-0.00815136
-0.00236068
-0.00573618
-0.000731728
-0.00266565
-5.8447e-05
-0.000100374
0.000443978
-0.00152672
-0.0101396
-0.00189611
-0.0101004
-0.00226642
-0.010044
-0.00263742
-0.00999973
-0.00301087
-0.00995185
-0.00338752
-0.00991233
-0.00376933
-0.00987219
-0.00415791
-0.00983877
-0.00455609
-0.00980767
-0.00496716
-0.00978556
-0.00539725
-0.00976856
-0.00584488
-0.00977164
-0.00627964
-0.00977637
-0.00657267
-0.00977899
-0.00647455
-0.00959007
-0.00563041
-0.0089955
-0.00390607
-0.00746053
-0.00162669
-0.00494503
-9.16303e-05
-0.00163543
0.000352348
-0.00150153
-0.00976933
-0.0018689
-0.00973299
-0.00223654
-0.00967634
-0.00260432
-0.00963195
-0.00297361
-0.00958256
-0.00334498
-0.00954096
-0.00372013
-0.00949704
-0.00410071
-0.0094582
-0.0044893
-0.00941908
-0.00488843
-0.00938643
-0.0053046
-0.00935239
-0.00574253
-0.00933371
-0.00621125
-0.00930766
-0.0066675
-0.00932275
-0.0069856
-0.00927196
-0.00683317
-0.00914793
-0.00585825
-0.00843544
-0.00382321
-0.00698007
-0.00144267
-0.00401598
-0.00109032
-0.00147525
-0.00184012
-0.00220479
-0.00256897
-0.00293432
-0.0033008
-0.00367033
-0.00404385
-0.00442328
-0.00480976
-0.00520883
-0.00562106
-0.00606283
-0.00652467
-0.00700805
-0.00733698
-0.00719617
-0.00579141
-0.00317712
-0.00453604
-0.0113785
-0.00493377
-0.011275
-0.00533955
-0.0111624
-0.00573917
-0.0110292
-0.0061507
-0.0108898
-0.00655424
-0.0107349
-0.00696216
-0.0105677
-0.00735508
-0.0103841
-0.00772847
-0.0101836
-0.00806372
-0.00995625
-0.00834504
-0.00970062
-0.00853572
-0.00941234
-0.00860355
-0.00908709
-0.00849784
-0.0087173
-0.00820227
-0.00830161
-0.00761868
-0.00784011
-0.00678079
-0.00734335
-0.00545424
-0.00681174
-0.00352667
-0.00633166
-0.00571508
-2.28061e-14
-0.00350852
-0.0110699
-0.00380207
-0.0109814
-0.00408436
-0.0108801
-0.00435422
-0.0107593
-0.00461532
-0.0106287
-0.00486311
-0.0104871
-0.00509807
-0.0103328
-0.00531684
-0.0101654
-0.00551723
-0.0099832
-0.00568738
-0.0097861
-0.00581448
-0.00957352
-0.00588038
-0.00934644
-0.00586127
-0.00910621
-0.00572215
-0.00885641
-0.00542402
-0.00859975
-0.00492274
-0.00834139
-0.00417703
-0.00808906
-0.00313883
-0.00784994
-0.00181626
-0.00765423
-0.00753134
2.69812e-15
-0.00288357
-0.0108024
-0.00313848
-0.0107265
-0.00337591
-0.0106427
-0.00359212
-0.0105431
-0.00378189
-0.0104389
-0.00394309
-0.0103259
-0.00407114
-0.0102047
-0.00416149
-0.010075
-0.0042077
-0.00993699
-0.00420365
-0.00979015
-0.00414237
-0.0096348
-0.00401736
-0.00947145
-0.00382198
-0.00930158
-0.00355071
-0.00912769
-0.00319602
-0.00895444
-0.00274937
-0.00878803
-0.00220332
-0.00863512
-0.00154964
-0.00850362
-0.000799162
-0.00840471
-0.0083305
3.64139e-14
-0.00208113
-0.0106008
-0.00226866
-0.010539
-0.00244091
-0.0104704
-0.00259639
-0.0103876
-0.00273533
-0.0103
-0.00285532
-0.0102059
-0.00295347
-0.0101066
-0.00302595
-0.0100025
-0.00306846
-0.00989447
-0.00307521
-0.00978341
-0.00303958
-0.00967043
-0.00295409
-0.00955694
-0.00281119
-0.00944449
-0.00260394
-0.00933493
-0.00232807
-0.00923031
-0.0019828
-0.00913329
-0.00157058
-0.00904734
-0.00109709
-0.00897711
-0.000574588
-0.00892721
-0.00890509
5.30757e-14
-0.00167657
-0.0104445
-0.00181692
-0.0103987
-0.00194015
-0.0103472
-0.00204276
-0.010285
-0.00212327
-0.0102195
-0.00217983
-0.0101494
-0.00221075
-0.0100757
-0.00221456
-0.00999873
-0.00218997
-0.00991907
-0.00213617
-0.00983721
-0.00205259
-0.00975401
-0.00193896
-0.00967057
-0.00179504
-0.0095884
-0.00162058
-0.0095094
-0.0014151
-0.00943579
-0.00117857
-0.00936982
-0.000912361
-0.00931356
-0.000621014
-0.00926846
-0.000312015
-0.00923621
-0.0092171
5.65748e-14
-0.00116684
-0.0103245
-0.00127833
-0.0102872
-0.00137886
-0.0102467
-0.0014665
-0.0101974
-0.00154005
-0.0101459
-0.00159796
-0.0100914
-0.00163855
-0.0100351
-0.00165989
-0.00997739
-0.00165989
-0.00991907
-0.00163626
-0.00986084
-0.00158687
-0.00980341
-0.00150989
-0.00974754
-0.00140429
-0.009694
-0.00127009
-0.0096436
-0.00110865
-0.00959723
-0.000922509
-0.00955596
-0.000715036
-0.00952103
-0.000489605
-0.00949389
-0.000250171
-0.00947564
-0.00946728
5.2167e-14
-0.00092314
-0.0102393
-0.000996566
-0.0102137
-0.00105867
-0.0101845
-0.00110689
-0.0101492
-0.00114092
-0.0101119
-0.00116002
-0.0100723
-0.00116389
-0.0100312
-0.00115245
-0.00998883
-0.00112586
-0.00994566
-0.00108453
-0.00990217
-0.00102894
-0.00985899
-0.000959659
-0.00981682
-0.00087715
-0.00977651
-0.000781795
-0.00973895
-0.000673977
-0.00970505
-0.000554393
-0.00967555
-0.000424387
-0.00965103
-0.000286439
-0.00963184
-0.000143732
-0.00961835
-0.00961101
6.57151e-14
-0.000638083
-0.0101713
-0.000701529
-0.0101503
-0.000758161
-0.0101279
-0.000806681
-0.0101006
-0.000846112
-0.0100725
-0.000875527
-0.0100429
-0.000893975
-0.0100128
-0.000900505
-0.0099823
-0.000894186
-0.00995197
-0.000874194
-0.00992217
-0.000839942
-0.00989324
-0.00079121
-0.00986556
-0.000728277
-0.00983944
-0.000651975
-0.00981526
-0.000563647
-0.00979338
-0.000464947
-0.00977425
-0.000357617
-0.00975836
-0.000243215
-0.00974624
-0.000123361
-0.00973821
-0.00973437
6.28218e-14
-0.000491132
-0.0101262
-0.000528878
-0.0101125
-0.0005599
-0.0100969
-0.000582642
-0.0100779
-0.000597222
-0.0100579
-0.000603425
-0.0100367
-0.000601367
-0.0100148
-0.000591294
-0.00999237
-0.000573578
-0.00996969
-0.00054867
-0.00994707
-0.000517037
-0.00992488
-0.000479101
-0.00990349
-0.000435194
-0.00988335
-0.000385578
-0.00986487
-0.000330527
-0.00984843
-0.000270481
-0.00983429
-0.000206187
-0.00982266
-0.0001388
-0.00981362
-6.96652e-05
-0.00980734
-0.00980403
4.85651e-14
-0.00034583
-0.0100886
-0.000381063
-0.0100773
-0.000412506
-0.0100654
-0.000439386
-0.010051
-0.000461018
-0.0100363
-0.000476837
-0.0100209
-0.000486282
-0.0100054
-0.000488836
-0.00998982
-0.000484048
-0.00997448
-0.000471582
-0.00995954
-0.000451289
-0.00994517
-0.00042326
-0.00993152
-0.000387866
-0.00991875
-0.000345746
-0.00990699
-0.000297736
-0.00989644
-0.000244751
-0.00988728
-0.000187671
-0.00987974
-0.000127274
-0.00987402
-6.43711e-05
-0.00987024
-0.0098684
4.58304e-14
-0.00025398
-0.0100651
-0.000273187
-0.0100581
-0.000288574
-0.0100501
-0.000299283
-0.0100403
-0.000305507
-0.01003
-0.000307241
-0.0100192
-0.000304675
-0.0100079
-0.00029806
-0.00999643
-0.000287701
-0.00998484
-0.000273922
-0.00997332
-0.00025702
-0.00996207
-0.000237236
-0.0099513
-0.000214741
-0.00994124
-0.000189657
-0.00993208
-0.000162114
-0.00992398
-0.000132332
-0.00991706
-0.000100685
-0.00991139
-6.77086e-05
-0.009907
-3.39876e-05
-0.00990396
-0.00990239
5.76753e-14
-0.000187067
-0.0100446
-0.000206521
-0.0100386
-0.000223987
-0.0100326
-0.000239018
-0.0100253
-0.000251175
-0.0100179
-0.000260095
-0.0100103
-0.000265434
-0.0100026
-0.000266881
-0.00999499
-0.000264184
-0.00998754
-0.000257177
-0.00998033
-0.000245818
-0.00997343
-0.000230213
-0.00996691
-0.000210626
-0.00996083
-0.000187456
-0.00995525
-0.000161187
-0.00995025
-0.000132323
-0.00994592
-0.00010133
-0.00994238
-6.86293e-05
-0.0099397
-3.46663e-05
-0.00993793
-0.00993706
3.29302e-14
-0.000126567
-0.0100324
-0.000136253
-0.010029
-0.0001438
-0.010025
-0.000148769
-0.0100203
-0.000151324
-0.0100153
-0.000151538
-0.01001
-0.000149573
-0.0100046
-0.000145628
-0.00999893
-0.000139917
-0.00999325
-0.000132646
-0.0099876
-0.000123992
-0.00998208
-0.000114081
-0.00997682
-0.000102987
-0.00997192
-9.07544e-05
-0.00996748
-7.74288e-05
-0.00996357
-6.3106e-05
-0.00996025
-4.7959e-05
-0.00995753
-3.22309e-05
-0.00995543
-1.61777e-05
-0.00995398
-0.00995324
6.73478e-15
-0.000100902
-0.0100211
-0.000111686
-0.0100182
-0.000121473
-0.0100153
-0.000129996
-0.0100118
-0.000136993
-0.0100083
-0.000142219
-0.0100048
-0.000145458
-0.0100013
-0.000146514
-0.00999788
-0.000145227
-0.00999453
-0.0001415
-0.00999132
-0.000135315
-0.00998827
-0.000126745
-0.00998539
-0.000115953
-0.00998271
-0.000103175
-0.00998026
-8.86916e-05
-0.00997806
-7.27825e-05
-0.00997616
-5.57076e-05
-0.0099746
-3.77071e-05
-0.00997343
-1.90352e-05
-0.00997265
-0.00997227
4.606e-15
-5.86964e-05
-0.0100149
-6.35209e-05
-0.0100133
-6.71423e-05
-0.0100116
-6.93663e-05
-0.0100096
-7.03078e-05
-0.0100074
-7.00622e-05
-0.0100051
-6.87536e-05
-0.0100026
-6.65259e-05
-0.0100001
-6.35242e-05
-0.00999754
-5.98797e-05
-0.00999497
-5.56942e-05
-0.00999245
-5.1032e-05
-0.00999005
-4.59206e-05
-0.00998782
-4.03651e-05
-0.00998581
-3.43709e-05
-0.00998405
-2.79691e-05
-0.00998256
-2.123e-05
-0.00998134
-1.42559e-05
-0.0099804
-7.15266e-06
-0.00997976
-0.00997942
1.46663e-14
-5.34272e-05
-0.0100087
-5.94297e-05
-0.0100073
-6.49585e-05
-0.0100061
-6.98438e-05
-0.0100047
-7.39467e-05
-0.0100033
-7.70939e-05
-0.0100019
-7.91549e-05
-0.0100006
-7.99963e-05
-0.00999926
-7.95166e-05
-0.00999802
-7.76513e-05
-0.00999683
-7.4387e-05
-0.00999572
-6.97662e-05
-0.00999467
-6.38856e-05
-0.0099937
-5.68832e-05
-0.00999281
-4.89186e-05
-0.00999202
-4.01519e-05
-0.00999133
-3.07316e-05
-0.00999076
-2.07972e-05
-0.00999034
-1.0496e-05
-0.00999006
-0.00998992
4.82284e-15
-2.23827e-05
-0.0100057
-2.46684e-05
-0.0100051
-2.62622e-05
-0.0100045
-2.71288e-05
-0.0100038
-2.73287e-05
-0.0100031
-2.69726e-05
-0.0100023
-2.61417e-05
-0.0100014
-2.4946e-05
-0.0100005
-2.34825e-05
-0.00999948
-2.18354e-05
-0.00999848
-2.00647e-05
-0.00999749
-1.82015e-05
-0.00999654
-1.6251e-05
-0.00999566
-1.42012e-05
-0.00999486
-1.20382e-05
-0.00999418
-9.76052e-06
-0.0099936
-7.38582e-06
-0.00999313
-4.94698e-06
-0.00999277
-2.47782e-06
-0.00999253
-0.0099924
-2.66489e-14
-2.61841e-05
-0.0100023
-2.93829e-05
-0.0100019
-3.24059e-05
-0.0100015
-3.5117e-05
-0.0100011
-3.748e-05
-0.0100007
-3.93525e-05
-0.0100004
-4.06728e-05
-0.0100001
-4.13418e-05
-0.00999979
-4.12975e-05
-0.00999952
-4.04942e-05
-0.00999928
-3.89202e-05
-0.00999906
-3.65967e-05
-0.00999886
-3.35779e-05
-0.00999867
-2.99412e-05
-0.0099985
-2.57757e-05
-0.00999834
-2.11709e-05
-0.00999821
-1.62099e-05
-0.0099981
-1.09712e-05
-0.00999801
-5.53696e-06
-0.00999796
-0.00999793
-3.20949e-14
-2.29436e-06
-0.0100013
-2.99611e-06
-0.0100012
-3.30998e-06
-0.0100012
-3.33666e-06
-0.0100011
-3.04774e-06
-0.010001
-2.59963e-06
-0.0100008
-2.01124e-06
-0.0100007
-1.38993e-06
-0.0100004
-7.89295e-07
-0.0100001
-2.70315e-07
-0.0099998
1.35641e-07
-0.00999947
4.14333e-07
-0.00999914
5.74933e-07
-0.00999883
6.38077e-07
-0.00999856
6.29547e-07
-0.00999834
5.7001e-07
-0.00999815
4.7149e-07
-0.009998
3.39145e-07
-0.00999788
1.78226e-07
-0.0099978
-0.00999776
-9.41257e-15
-9.79793e-06
-1.09543e-05
-1.21353e-05
-1.32099e-05
-1.42255e-05
-1.50727e-05
-1.57362e-05
-1.61474e-05
-1.62717e-05
-1.60742e-05
-1.55433e-05
-1.46833e-05
-1.3518e-05
-1.20825e-05
-1.04185e-05
-8.56674e-06
-6.56421e-06
-4.44496e-06
-2.24389e-06
3.41155e-13
0.0057531
-0.00905254
0.00563226
-0.0090926
0.00549138
-0.00914356
0.00533044
-0.00920723
0.00514956
-0.00928075
0.00494905
-0.00936126
0.00472883
-0.00944637
0.00448852
-0.00953375
0.00422762
-0.00962094
0.00394555
-0.00970531
0.0036418
-0.00978398
0.00331597
-0.00985385
0.00296789
-0.00991158
0.00259775
-0.00995367
0.00220621
-0.0099767
0.00179449
-0.00997815
0.00136456
-0.00995823
0.000919279
-0.00992258
0.000462677
-0.00988388
-0.00985853
-4.03394e-12
0.0058883
-0.00890298
0.005726
-0.0089303
0.00555161
-0.00896916
0.00536398
-0.0090196
0.00516203
-0.0090788
0.00494477
-0.00914401
0.00471115
-0.00921275
0.00446013
-0.00928273
0.00419081
-0.00935163
0.00390244
-0.00941693
0.0035944
-0.00947594
0.0032663
-0.00952575
0.00291804
-0.00956331
0.00254985
-0.00958548
0.00216239
-0.00958925
0.00175681
-0.00957257
0.00133477
-0.00953619
0.000898728
-0.00948654
0.000452209
-0.00943736
-0.00940632
-4.10468e-12
0.00598627
-0.00873367
0.00581209
-0.00875613
0.00563001
-0.00878708
0.00543703
-0.00882662
0.00523065
-0.00887242
0.00500911
-0.00892247
0.00477115
-0.00897479
0.00451577
-0.00902734
0.00424203
-0.0090779
0.00394916
-0.00912406
0.00363651
-0.00916329
0.00330369
-0.00919292
0.00295057
-0.0092102
0.00257744
-0.00921235
0.00218501
-0.00919682
0.00177451
-0.00916206
0.00134771
-0.00910939
0.000907144
-0.00904598
0.000456341
-0.00898655
-0.00894998
-4.03293e-12
0.00621755
-0.00854474
0.00602229
-0.00856087
0.00581876
-0.00858355
0.00560487
-0.00861273
0.00537927
-0.00864682
0.00514075
-0.00868395
0.00488799
-0.00872204
0.00461963