/*--------------------------------*- C++ -*----------------------------------*\
  =========                 |
  \\      /  F ield         | OpenFOAM: The Open Source CFD Toolbox
   \\    /   O peration     | Website:  https://openfoam.org
    \\  /    A nd           | Version:  7
     \\/     M anipulation  |
\*---------------------------------------------------------------------------*/
FoamFile
{
    version     2.0;
    format      ascii;
    class       volScalarField;
    location    "15";
    object      p;
}
// * * * * * * * * * * * * * * * * * * * * * * * * * * * * * * * * * * * * * //

dimensions      [0 2 -2 0 0 0 0];

internalField   nonuniform List<scalar> 
225
(
-0.0294169
-0.0490197
-0.0564888
-0.0911592
-0.105421
-0.0291013
-0.0484442
-0.0560813
-0.0904948
-0.104948
-0.0287791
-0.0478554
-0.0556562
-0.0898063
-0.104434
-0.0284496
-0.0472545
-0.0552159
-0.0890997
-0.103886
-0.0281092
-0.0466362
-0.0547515
-0.088361
-0.103285
-0.02776
-0.0460039
-0.0542633
-0.087591
-0.10262
-0.0274291
-0.0453987
-0.053807
-0.0868734
-0.101998
-0.0271522
-0.0448707
-0.0534792
-0.0863458
-0.101658
-0.0268145
-0.0442432
-0.0530937
-0.0857186
-0.101351
-0.0259586
-0.0428514
-0.0516809
-0.0836113
-0.0991723
-0.0326412
-0.0550597
-0.0608719
-0.0986597
-0.110786
-0.0323491
-0.0545104
-0.0605003
-0.0979859
-0.110406
-0.0320498
-0.0539457
-0.0601088
-0.0972862
-0.10998
-0.0317434
-0.0533675
-0.0597001
-0.0965656
-0.109513
-0.0314294
-0.0527754
-0.0592735
-0.0958231
-0.109001
-0.0311077
-0.0521693
-0.0588287
-0.0950588
-0.108447
-0.0307777
-0.051548
-0.0583633
-0.0942681
-0.107842
-0.0304386
-0.0509091
-0.0578711
-0.0934418
-0.10717
-0.0300904
-0.0502551
-0.0573574
-0.0925906
-0.106449
-0.0297402
-0.0496065
-0.0568729
-0.0917951
-0.105821
-0.0354231
-0.0602975
-0.0645041
-0.105372
-0.114336
-0.189587
-0.0351751
-0.0598464
-0.0642081
-0.104807
-0.114151
-0.188534
-0.0349204
-0.0593745
-0.0638963
-0.104211
-0.113922
-0.18742
-0.0346589
-0.0588861
-0.0635669
-0.103588
-0.113648
-0.186243
-0.0343901
-0.0583803
-0.0632186
-0.102936
-0.113327
-0.185005
-0.0341137
-0.0578573
-0.0628511
-0.102256
-0.112957
-0.183705
-0.0338292
-0.057316
-0.062461
-0.101543
-0.11253
-0.182332
-0.0335357
-0.0567549
-0.0620431
-0.10079
-0.112031
-0.180872
-0.0332342
-0.0561774
-0.0616065
-0.100013
-0.111491
-0.179373
-0.032931
-0.0556013
-0.0612014
-0.0992834
-0.111049
-0.178031
-0.0377083
-0.0643315
-0.0669834
-0.110178
-0.115861
-0.198286
-0.0375043
-0.0639959
-0.0668101
-0.109841
-0.115846
-0.197802
-0.037295
-0.0636427
-0.0666191
-0.109466
-0.115798
-0.197211
-0.0370802
-0.063273
-0.0664103
-0.109055
-0.115713
-0.196521
-0.0368595
-0.0628865
-0.0661821
-0.108607
-0.115585
-0.195731
-0.0366324
-0.0624829
-0.0659337
-0.108123
-0.115414
-0.194843
-0.0363983
-0.0620604
-0.0656626
-0.107597
-0.115188
-0.193848
-0.0361562
-0.0616161
-0.0653663
-0.107026
-0.114896
-0.192734
-0.0359079
-0.0611549
-0.0650553
-0.106425
-0.114576
-0.191554
-0.0356612
-0.0607049
-0.0647658
-0.105862
-0.114373
-0.190487
0.0243312
0.0330849
0.0361015
0.0385961
0.0416741
)
;

boundaryField
{
    inlet
    {
        type            zeroGradient;
    }
    outlet
    {
        type            fixedValue;
        value           nonuniform 0();
    }
    polygon
    {
        type            zeroGradient;
    }
    top
    {
        type            symmetryPlane;
    }
    bottom
    {
        type            symmetryPlane;
    }
    outside
    {
        type            slip;
    }
    procBoundary1to0
    {
        type            processor;
        value           nonuniform List<scalar> 5(0.0343664 0.0404978 0.0458455 0.0558759 0.0679746);
    }
    procBoundary1to2
    {
        type            processor;
        value           nonuniform List<scalar> 6(-0.0378981 -0.064633 -0.0670978 -0.110416 -0.115735 -0.198517);
    }
    procBoundary1to5
    {
        type            processor;
        value           nonuniform List<scalar> 
42
(
-0.164181
-0.163183
-0.162142
-0.161072
-0.159943
-0.158737
-0.157598
-0.156862
-0.156188
-0.15304
-0.176958
-0.176958
-0.175792
-0.174582
-0.173336
-0.172051
-0.17073
-0.169361
-0.167922
-0.166444
-0.165137
-0.211166
-0.211256
-0.211235
-0.211098
-0.210836
-0.210447
-0.209908
-0.209186
-0.208362
-0.20778
-0.211206
-0.211398
-0.211558
-0.211652
-0.211667
-0.211596
-0.211407
-0.211064
-0.210681
-0.210684
0.0315907
)
;
    }
}


// ************************************************************************* //
