/*--------------------------------*- C++ -*----------------------------------*\
  =========                 |
  \\      /  F ield         | OpenFOAM: The Open Source CFD Toolbox
   \\    /   O peration     | Website:  https://openfoam.org
    \\  /    A nd           | Version:  7
     \\/     M anipulation  |
\*---------------------------------------------------------------------------*/
FoamFile
{
    version     2.0;
    format      ascii;
    class       surfaceScalarField;
    location    "15";
    object      phi;
}
// * * * * * * * * * * * * * * * * * * * * * * * * * * * * * * * * * * * * * //

dimensions      [0 3 -1 0 0 0 0];

internalField   nonuniform List<scalar> 
403
(
1.2392e-05
-0.0179154
0.0178509
7.57934e-05
-0.018215
0.0181516
0.000139921
-0.0183258
0.0182616
0.000203181
-0.0187128
0.0186495
-0.0188783
0.0188158
1.19956e-05
-0.0179798
7.51694e-05
-0.0182781
0.000139035
-0.0183896
0.000201943
-0.0187757
-0.0189401
1.16023e-05
-0.0180441
7.45401e-05
-0.0183411
0.000138145
-0.0184532
0.000200694
-0.0188383
-0.0190013
1.12118e-05
-0.0181083
7.39102e-05
-0.0184038
0.000137252
-0.0185166
0.000199439
-0.0189004
-0.019062
1.08247e-05
-0.0181723
7.32809e-05
-0.0184662
0.000136358
-0.0185796
0.000198179
-0.0189623
-0.0191221
1.04418e-05
-0.0182362
7.26537e-05
-0.0185284
0.000135464
-0.0186425
0.000196918
-0.0190237
-0.0191816
1.00643e-05
-0.0183
7.20321e-05
-0.0185904
0.00013458
-0.018705
0.000195673
-0.0190848
-0.0192406
9.69162e-06
-0.0183636
7.14155e-05
-0.0186521
0.000133705
-0.0187673
0.000194447
-0.0191456
-0.019299
9.3153e-06
-0.0184271
7.07811e-05
-0.0187136
0.000132788
-0.0188293
0.000193153
-0.0192059
-0.0193569
9.00449e-06
-0.0184908
6.97366e-05
-0.0187743
0.00013169
-0.0188913
0.000190693
-0.0192649
-0.0194145
-8.72913e-06
-0.0174348
0.017388
3.73866e-05
-0.017748
0.0177019
8.39517e-05
-0.0178557
0.0178091
0.000129469
-0.0182579
0.0182124
-0.0184311
0.0183851
-9.2755e-06
-0.0174816
3.65954e-05
-0.0177939
8.28716e-05
-0.017902
0.000127991
-0.0183031
-0.0184764
-9.81756e-06
-0.0175282
3.58009e-05
-0.0178395
8.17888e-05
-0.0179479
0.000126505
-0.0183478
-0.0185211
-1.03552e-05
-0.0175747
3.50079e-05
-0.0178849
8.07052e-05
-0.0179936
0.000125017
-0.0183921
-0.0185652
-1.08879e-05
-0.017621
3.42175e-05
-0.01793
7.96224e-05
-0.018039
0.000123531
-0.018436
-0.0186086
-1.14152e-05
-0.0176673
3.34301e-05
-0.0179748
7.85414e-05
-0.0180842
0.000122047
-0.0184795
-0.0186513
-1.1937e-05
-0.0177134
3.26459e-05
-0.0180194
7.74621e-05
-0.018129
0.000120565
-0.0185226
-0.0186934
-1.24532e-05
-0.0177594
3.1865e-05
-0.0180637
7.63849e-05
-0.0181735
0.000119084
-0.0185653
-0.0187349
-1.29633e-05
-0.0178052
3.10884e-05
-0.0181078
7.53124e-05
-0.0182177
0.000117611
-0.0186076
-0.0187757
-1.34727e-05
3.03269e-05
7.42402e-05
0.000116171
-2.75748e-05
-0.0171467
0.0171194
-5.62298e-08
-0.0174676
0.0174401
2.70544e-05
-0.0175764
0.0175493
5.38467e-05
-0.0179916
0.0179648
8.18685e-05
-0.0181618
0.0181338
-0.0187904
0.0187688
-2.82582e-05
-0.017174
-1.11289e-06
-0.0174948
2.58354e-05
-0.0176034
5.21726e-05
-0.0180179
7.9564e-05
-0.0181892
-0.0188109
-2.89374e-05
-0.0172012
-2.08687e-06
-0.0175216
2.46135e-05
-0.0176301
5.04943e-05
-0.0180438
7.72495e-05
-0.018216
-0.0188304
-2.9612e-05
-0.0172282
-3.0427e-06
-0.0175482
2.33911e-05
-0.0176565
4.88176e-05
-0.0180692
7.49315e-05
-0.0182421
-0.0188489
-3.02814e-05
-0.0172551
-3.9876e-06
-0.0175745
2.21697e-05
-0.0176827
4.71445e-05
-0.0180942
7.26137e-05
-0.0182675
-0.0188663
-3.09455e-05
-0.0172819
-4.92418e-06
-0.0176005
2.09501e-05
-0.0177085
4.54762e-05
-0.0181187
7.02979e-05
-0.0182924
-0.0188828
-3.16038e-05
-0.0173086
-5.85371e-06
-0.0176262
1.97326e-05
-0.0177341
4.3813e-05
-0.0181428
6.79847e-05
-0.0183165
-0.0188984
-3.2256e-05
-0.0173352
-6.77681e-06
-0.0176517
1.85179e-05
-0.0177594
4.21558e-05
-0.0181664
6.56763e-05
-0.01834
-0.018913
-3.29018e-05
-0.0173617
-7.69326e-06
-0.0176769
1.73076e-05
-0.0177844
4.05084e-05
-0.0181896
6.33804e-05
-0.0183629
-0.0189267
-3.35472e-05
-8.59692e-06
1.60972e-05
3.88887e-05
6.10955e-05
-4.40209e-05
-0.0170641
-3.68036e-05
-0.017386
-2.96088e-05
-0.017497
-2.18071e-05
-0.0179177
-1.34415e-05
-0.0180842
-0.0187588
-4.47863e-05
-0.0170706
-3.78035e-05
-0.0173929
-3.08815e-05
-0.017504
-2.36027e-05
-0.017925
-1.57932e-05
-0.0180921
-0.0187652
-4.555e-05
-0.017077
-3.8805e-05
-0.0173997
-3.2158e-05
-0.0175106
-2.54e-05
-0.0179317
-1.81551e-05
-0.0180993
-0.0187702
-4.6311e-05
-0.0170834
-3.9806e-05
-0.0174062
-3.34356e-05
-0.017517
-2.71954e-05
-0.017938
-2.05217e-05
-0.018106
-0.0187738
-4.70688e-05
-0.0170896
-4.08056e-05
-0.0174124
-3.47134e-05
-0.0175231
-2.8987e-05
-0.0179437
-2.28897e-05
-0.0181121
-0.0187761
-4.7823e-05
-0.0170958
-4.1803e-05
-0.0174185
-3.59904e-05
-0.0175289
-3.07737e-05
-0.0179489
-2.5257e-05
-0.0181176
-0.0187771
-4.85732e-05
-0.0171018
-4.2798e-05
-0.0174242
-3.72662e-05
-0.0175344
-3.25545e-05
-0.0179536
-2.76217e-05
-0.0181225
-0.0187768
-4.93192e-05
-0.0171078
-4.37899e-05
-0.0174298
-3.854e-05
-0.0175397
-3.43283e-05
-0.0179578
-2.99816e-05
-0.0181269
-0.0187753
-5.00604e-05
-0.0171136
-4.4778e-05
-0.0174351
-3.98106e-05
-0.0175446
-3.60926e-05
-0.0179615
-3.23326e-05
-0.0181306
-0.0187727
-5.08006e-05
-4.57568e-05
-4.10827e-05
-3.78373e-05
-3.46791e-05
-0.00555789
-0.00684413
-0.00835041
-0.0103599
)
;

boundaryField
{
    inlet
    {
        type            calculated;
        value           nonuniform 0();
    }
    outlet
    {
        type            calculated;
        value           nonuniform 0();
    }
    polygon
    {
        type            calculated;
        value           nonuniform 0();
    }
    top
    {
        type            symmetryPlane;
        value           uniform 0;
    }
    bottom
    {
        type            symmetryPlane;
        value           uniform 0;
    }
    outside
    {
        type            calculated;
        value           nonuniform List<scalar> 
41
(
5.21265e-05
5.24002e-05
5.26727e-05
5.29404e-05
5.32027e-05
5.34593e-05
5.37104e-05
5.39559e-05
5.41957e-05
5.46433e-05
5.55873e-05
5.60123e-05
5.6434e-05
5.68487e-05
5.72559e-05
5.76554e-05
5.80471e-05
5.84307e-05
5.88063e-05
5.9165e-05
5.49444e-05
5.55195e-05
5.60904e-05
5.66543e-05
5.72106e-05
5.7759e-05
5.82991e-05
5.88308e-05
5.93537e-05
5.98598e-05
5.06221e-05
5.13024e-05
5.1979e-05
5.26507e-05
5.33167e-05
5.39766e-05
5.46302e-05
5.5277e-05
5.59168e-05
5.65446e-05
0.00463278
)
;
    }
    procBoundary1to0
    {
        type            processor;
        value           nonuniform List<scalar> 5(-0.0175657 -0.0174881 -0.017385 -0.0172554 -0.0170778);
    }
    procBoundary1to2
    {
        type            processor;
        value           nonuniform List<scalar> 6(0.0170575 0.0173787 0.0174899 0.0179099 0.0180759 0.0187509);
    }
    procBoundary1to5
    {
        type            processor;
        value           nonuniform List<scalar> 
42
(
0.000265599
0.000263777
0.000261948
0.000260114
0.000258275
0.00025644
0.000254637
0.000252878
0.000251016
0.000248319
0.000175445
-0.0189397
0.000173325
0.000171194
0.000169059
0.000166924
0.000164792
0.000162663
0.000160536
0.000158424
0.000156335
0.000103439
0.000100079
9.67264e-05
9.33908e-05
9.00782e-05
8.67918e-05
8.35329e-05
8.03055e-05
7.71242e-05
7.40278e-05
-5.58052e-06
-9.40136e-06
-1.31695e-05
-1.68979e-05
-2.05913e-05
-2.42512e-05
-2.78776e-05
-3.14686e-05
-3.50168e-05
-3.85013e-05
-0.0126967
)
;
    }
}


// ************************************************************************* //
