/*--------------------------------*- C++ -*----------------------------------*\
  =========                 |
  \\      /  F ield         | OpenFOAM: The Open Source CFD Toolbox
   \\    /   O peration     | Website:  https://openfoam.org
    \\  /    A nd           | Version:  7
     \\/     M anipulation  |
\*---------------------------------------------------------------------------*/
FoamFile
{
    version     2.0;
    format      ascii;
    class       volVectorField;
    location    "20";
    object      U;
}
// * * * * * * * * * * * * * * * * * * * * * * * * * * * * * * * * * * * * * //

dimensions      [0 1 -1 0 0 0 0];

internalField   nonuniform List<vector> 
125
(
(1.03548 0.000184288 3.59529e-20)
(0.964827 -0.000411166 6.0138e-19)
(1.03459 -0.000497484 4.16525e-20)
(0.959589 -0.00135298 2.88963e-18)
(1.02967 -0.000644855 2.38097e-19)
(0.951392 -0.00637076 1.33536e-18)
(0.998577 -0.00386031 -2.89404e-18)
(0.918957 -0.0320986 6.40991e-19)
(0.83328 -0.0317648 3.04184e-18)
(1.03532 0.000172537 -1.91382e-19)
(0.965136 -0.000379028 1.7863e-19)
(1.03421 -0.000431557 -2.63384e-19)
(0.960143 -0.00123302 3.88984e-18)
(1.02891 -0.000545888 3.01142e-19)
(0.952459 -0.0057578 1.1177e-18)
(0.996893 -0.00337676 -3.76854e-18)
(0.921281 -0.0289951 1.03212e-18)
(0.826917 -0.0286328 3.6738e-18)
(1.03516 0.000158544 4.2013e-19)
(0.965425 -0.000343713 9.01227e-19)
(1.03387 -0.00036956 -4.66887e-19)
(0.960658 -0.00110733 4.40443e-18)
(1.02821 -0.000457427 3.30879e-19)
(0.95345 -0.00513211 9.28763e-19)
(0.995326 -0.00291576 -2.98839e-18)
(0.923399 -0.025818 1.01684e-18)
(0.821105 -0.0253707 5.38656e-18)
(1.03501 0.000142297 3.48261e-19)
(0.965689 -0.000304943 5.57057e-19)
(1.03355 -0.000311467 -1.28133e-19)
(0.961128 -0.000974295 3.42771e-18)
(1.02757 -0.00037614 4.01913e-19)
(0.954351 -0.00448526 -1.79116e-20)
(0.993904 -0.00246701 -2.66407e-18)
(0.925303 -0.0225379 1.39779e-18)
(0.815905 -0.02197 -4.34453e-18)
(1.03488 0.000124075 3.20264e-19)
(0.965924 -0.000263348 3.35442e-19)
(1.03327 -0.000256892 -2.65533e-19)
(0.961545 -0.000835594 1.97242e-18)
(1.02701 -0.000302639 3.43619e-19)
(0.955149 -0.00382437 -1.03493e-18)
(0.992652 -0.00204115 -2.62969e-18)
(0.926981 -0.0191972 1.95598e-18)
(0.811366 -0.0185674 -2.41631e-18)
(1.03476 0.000104144 4.28412e-19)
(0.966127 -0.000219342 1.11394e-19)
(1.03303 -0.000205388 -3.74591e-19)
(0.961902 -0.000692096 8.42204e-19)
(1.02653 -0.000236487 3.48828e-19)
(0.955833 -0.003152 -1.50552e-18)
(0.991588 -0.00163704 -2.81001e-18)
(0.928419 -0.0158078 1.24379e-18)
(0.807526 -0.0151728 -1.23295e-17)
(1.03467 8.27597e-05 6.06375e-19)
(0.966293 -0.000173275 -8.75949e-20)
(1.03284 -0.0001565 -1.35906e-20)
(0.962195 -0.00054442 -1.75647e-19)
(1.02614 -0.000176623 3.48649e-19)
(0.956394 -0.00246938 -1.47074e-18)
(0.990728 -0.00125151 -1.04433e-18)
(0.929603 -0.0123748 1.23808e-18)
(0.804415 -0.0117858 -1.21322e-17)
(1.0346 6.01909e-05 8.40482e-19)
(0.966419 -0.000125498 7.65124e-19)
(1.03269 -0.000109769 3.46229e-19)
(0.962419 -0.000393142 -6.80005e-20)
(1.02584 -0.000121958 4.7046e-19)
(0.956822 -0.00177753 -8.72584e-19)
(0.990081 -0.000881718 6.76575e-19)
(0.930517 -0.00890222 1.13073e-18)
(0.802056 -0.00841082 -1.33702e-17)
(1.03455 3.67778e-05 4.83399e-19)
(0.966505 -7.64971e-05 1.75914e-18)
(1.03259 -6.46021e-05 7.67101e-19)
(0.96257 -0.000239222 8.98922e-20)
(1.02564 -7.14239e-05 6.42695e-19)
(0.957112 -0.00107927 -1.26692e-18)
(0.989653 -0.000525502 2.48429e-18)
(0.931145 -0.00540289 7.85227e-19)
(0.800468 -0.00505769 -1.62345e-17)
(1.03452 1.28569e-05 2.78217e-19)
(0.966548 -2.71061e-05 1.94409e-18)
(1.03254 -2.02241e-05 1.88816e-19)
(0.962646 -8.51213e-05 2.64686e-19)
(1.02554 -2.36089e-05 6.50571e-19)
(0.957259 -0.00038267 -1.79239e-18)
(0.989442 -0.000184571 4.75285e-18)
(0.93147 -0.00192028 8.06464e-19)
(0.799665 -0.00180985 2.05125e-18)
(0.946033 -0.00890045 -3.02444e-19)
(1.00728 -0.00723783 5.55552e-19)
(0.906735 -0.0456872 1.60444e-18)
(1.03608 0.000199723 9.79273e-19)
(0.963678 -0.000487839 2.34145e-19)
(1.03601 -0.000785493 3.07441e-19)
(0.957447 -0.00170395 1.82886e-18)
(1.03267 -0.0011878 6.7118e-20)
(0.947115 -0.0084441 4.52024e-19)
(1.00547 -0.00650247 -9.10368e-19)
(0.909151 -0.0432115 9.74839e-19)
(1.03594 0.000199651 6.25091e-19)
(0.963962 -0.000475089 -1.03328e-19)
(1.03565 -0.000707649 5.26849e-19)
(0.957986 -0.00163178 2.40164e-18)
(1.0319 -0.00103786 1.04945e-19)
(0.948201 -0.00797463 1.25042e-18)
(1.00368 -0.00580132 -2.44456e-18)
(0.911624 -0.0406688 6.45713e-19)
(1.03579 0.000197719 4.03874e-19)
(0.964246 -0.000459795 -4.86483e-19)
(1.0353 -0.000633015 3.94061e-19)
(0.958521 -0.00155527 2.28781e-18)
(1.03114 -0.000896823 1.39087e-19)
(0.949277 -0.00749911 1.39082e-18)
(1.00194 -0.00513382 -2.26034e-18)
(0.914104 -0.0381014 4.74991e-19)
(1.03564 0.000193609 2.16021e-19)
(0.964528 -0.000441254 1.05296e-20)
(1.03495 -0.000562507 3.96573e-19)
(0.959045 -0.00147196 2.40758e-18)
(1.03041 -0.000764883 1.82638e-19)
(0.950328 -0.00700356 1.68246e-18)
(1.00025 -0.00448631 -2.43107e-18)
(0.916545 -0.0354197 4.72053e-19)
)
;

boundaryField
{
    inlet
    {
        type            uniformFixedValue;
        uniformValue    constant (1 0 0);
        value           uniform (1 0 0);
    }
    outlet
    {
        type            pressureInletOutletVelocity;
        value           nonuniform 0();
    }
    polygon
    {
        type            fixedValue;
        value           nonuniform 0();
    }
    top
    {
        type            symmetryPlane;
    }
    bottom
    {
        type            symmetryPlane;
    }
    outside
    {
        type            zeroGradient;
    }
    procBoundary4to0
    {
        type            processor;
        value           nonuniform List<vector> 9((0.94497 -0.00934259 -3.80021e-19) (1.00912 -0.00800429 4.08931e-18) (0.904432 -0.0480861 1.56876e-18) (1.03622 0.000197742 1.42932e-18) (0.963401 -0.000497495 5.69654e-19) (1.03637 -0.000867056 1.93098e-19) (0.956912 -0.00177001 1.47313e-18) (1.03346 -0.0013475 8.41793e-20) (1.03346 -0.0013475 8.41793e-20));
    }
    procBoundary4to5
    {
        type            processor;
        value           nonuniform List<vector> 
16
(
(0.753747 -0.252253 -3.33901e-18)
(0.839872 -0.0361036 2.81014e-18)
(0.751315 -0.225666 3.36749e-18)
(0.748885 -0.19901 -2.08613e-19)
(0.746604 -0.172578 5.9049e-18)
(0.744557 -0.146177 1.11031e-17)
(0.742796 -0.119744 6.58501e-18)
(0.74135 -0.0932717 5.24102e-18)
(0.740242 -0.0667548 5.454e-18)
(0.739486 -0.0401453 6.602e-18)
(0.739097 -0.0132947 9.35421e-18)
(0.870057 -0.0537692 2.82044e-18)
(0.861994 -0.0493058 2.87395e-18)
(0.854254 -0.0449013 2.60929e-18)
(0.846869 -0.0405476 2.52466e-18)
(0.839872 -0.0361036 2.81014e-18)
)
;
    }
    procBoundary4to8
    {
        type            processor;
        value           nonuniform List<vector> 9((1.03452 -1.2857e-05 -6.31169e-19) (0.966548 2.71063e-05 1.28002e-18) (1.03254 2.02238e-05 -4.08046e-19) (0.962646 8.51214e-05 1.58583e-18) (1.02554 2.36089e-05 6.73795e-19) (0.957259 0.00038267 -2.49794e-18) (0.989442 0.00018457 7.82823e-18) (0.93147 0.00192029 8.23816e-19) (0.799665 0.00180985 8.74881e-18));
    }
}


// ************************************************************************* //
