/*--------------------------------*- C++ -*----------------------------------*\
  =========                 |
  \\      /  F ield         | OpenFOAM: The Open Source CFD Toolbox
   \\    /   O peration     | Website:  https://openfoam.org
    \\  /    A nd           | Version:  7
     \\/     M anipulation  |
\*---------------------------------------------------------------------------*/
FoamFile
{
    version     2.0;
    format      ascii;
    class       volScalarField;
    location    "36";
    object      p;
}
// * * * * * * * * * * * * * * * * * * * * * * * * * * * * * * * * * * * * * //

dimensions      [0 2 -2 0 0 0 0];

internalField   nonuniform List<scalar> 
11200
(
0.0381374
0.0160684
0.0491005
0.0358807
0.0458411
0.0341109
0.030052
0.0153637
0.00134904
-0.0184976
-0.0401668
-0.0654155
-0.0926631
-0.121895
-0.152149
-0.182847
-0.21321
-0.242601
-0.270409
-0.296127
-0.319329
-0.339684
-0.356943
-0.370938
-0.381584
-0.388868
-0.392862
-0.393683
-0.391541
-0.386693
-0.379435
-0.370112
-0.359086
-0.346733
-0.333425
-0.319519
-0.305346
-0.291205
-0.277353
-0.264005
-0.251331
-0.239456
-0.228466
-0.218409
-0.209302
-0.201135
-0.193878
-0.187485
-0.181902
-0.177065
-0.17291
-0.169373
-0.166392
-0.163907
-0.161865
-0.160216
-0.158914
-0.15792
-0.157198
-0.156716
-0.156446
-0.156364
-0.156448
-0.15668
-0.157043
-0.157524
-0.158111
-0.158794
-0.159564
-0.160411
-0.161329
-0.162311
-0.163351
-0.164442
-0.165578
-0.166754
-0.167963
-0.169201
-0.17046
-0.171735
-0.173019
-0.174304
-0.175584
-0.176844
-0.178084
-0.179272
-0.180427
-0.181469
-0.182482
-0.183258
-0.184076
-0.184359
-0.185
-0.184336
-0.185105
-0.18262
-0.184461
-0.179481
-0.182831
-0.179473
0.0388195
0.0163601
0.0498744
0.0364726
0.0466301
0.0348108
0.0308557
0.0161479
0.00219673
-0.0176216
-0.0392286
-0.0644245
-0.0916095
-0.120788
-0.150995
-0.181663
-0.21201
-0.241403
-0.269226
-0.294973
-0.318215
-0.338618
-0.355929
-0.369983
-0.380691
-0.38804
-0.392098
-0.392998
-0.390929
-0.386155
-0.378972
-0.369722
-0.358769
-0.346485
-0.333242
-0.319396
-0.305279
-0.291186
-0.277377
-0.264066
-0.251422
-0.239572
-0.228601
-0.218557
-0.209459
-0.201298
-0.194042
-0.187648
-0.18206
-0.177216
-0.173054
-0.169507
-0.166516
-0.164021
-0.161968
-0.160308
-0.158996
-0.157992
-0.157259
-0.156768
-0.156489
-0.156399
-0.156476
-0.156701
-0.157059
-0.157536
-0.15812
-0.158799
-0.159566
-0.160411
-0.161326
-0.162305
-0.163341
-0.164428
-0.165561
-0.166733
-0.167939
-0.169173
-0.170429
-0.1717
-0.172981
-0.174262
-0.175538
-0.176794
-0.178031
-0.179213
-0.180364
-0.1814
-0.182408
-0.183172
-0.183986
-0.184247
-0.184881
-0.184178
-0.184909
-0.182401
-0.184048
-0.179188
-0.182021
-0.178495
0.0394536
0.0166033
0.0505931
0.0369927
0.0473483
0.0354285
0.0315742
0.0168377
0.00294461
-0.0168558
-0.0384085
-0.0635617
-0.0906926
-0.119826
-0.149992
-0.180632
-0.210964
-0.240356
-0.268191
-0.293961
-0.317234
-0.337674
-0.355029
-0.36913
-0.379889
-0.387293
-0.39141
-0.392368
-0.390361
-0.38565
-0.378531
-0.369346
-0.358456
-0.346234
-0.333049
-0.319258
-0.305191
-0.291145
-0.277376
-0.2641
-0.251486
-0.23966
-0.228709
-0.218681
-0.209594
-0.201439
-0.194187
-0.187793
-0.182203
-0.177355
-0.173186
-0.169632
-0.166633
-0.164128
-0.162066
-0.160396
-0.159074
-0.158061
-0.157319
-0.15682
-0.156533
-0.156435
-0.156506
-0.156725
-0.157078
-0.15755
-0.158128
-0.158804
-0.159566
-0.160407
-0.161319
-0.162295
-0.163328
-0.164413
-0.165543
-0.166713
-0.167917
-0.169149
-0.170403
-0.171672
-0.17295
-0.174229
-0.175503
-0.176756
-0.17799
-0.179169
-0.180316
-0.181346
-0.18235
-0.183103
-0.18391
-0.18415
-0.184772
-0.184033
-0.184721
-0.182191
-0.183669
-0.178924
-0.181419
-0.17783
0.0400188
0.0168209
0.0512287
0.0374529
0.0479827
0.0359741
0.0322105
0.0174483
0.00360821
-0.0161745
-0.0376775
-0.0627908
-0.0898717
-0.118962
-0.149091
-0.179704
-0.210022
-0.239412
-0.267257
-0.293047
-0.316349
-0.336824
-0.35422
-0.368365
-0.379173
-0.386629
-0.390801
-0.391815
-0.389866
-0.385215
-0.378156
-0.369031
-0.3582
-0.346034
-0.332902
-0.319161
-0.305139
-0.291132
-0.277399
-0.264153
-0.251564
-0.239759
-0.228823
-0.218806
-0.209727
-0.201576
-0.194326
-0.187931
-0.182337
-0.177484
-0.173309
-0.169748
-0.166739
-0.164226
-0.162155
-0.160475
-0.159145
-0.158122
-0.157373
-0.156865
-0.156571
-0.156467
-0.156531
-0.156744
-0.157092
-0.157559
-0.158133
-0.158804
-0.159563
-0.1604
-0.161308
-0.162281
-0.163312
-0.164395
-0.165522
-0.16669
-0.167892
-0.169122
-0.170374
-0.171641
-0.172918
-0.174194
-0.175467
-0.176718
-0.17795
-0.179126
-0.180271
-0.181296
-0.182297
-0.183041
-0.183845
-0.184067
-0.184681
-0.183913
-0.184568
-0.182023
-0.18335
-0.178701
-0.180878
-0.177115
0.0405103
0.0170127
0.0517766
0.0378523
0.0485305
0.0364472
0.0327631
0.0179803
0.0041879
-0.0155764
-0.037034
-0.0621098
-0.0891449
-0.118196
-0.14829
-0.178878
-0.209182
-0.23857
-0.266424
-0.292232
-0.315561
-0.336069
-0.353502
-0.36769
-0.378543
-0.386048
-0.390271
-0.391338
-0.389444
-0.384848
-0.377846
-0.368776
-0.357998
-0.345883
-0.332799
-0.319102
-0.305119
-0.291148
-0.277445
-0.264224
-0.251656
-0.239867
-0.228943
-0.218935
-0.209861
-0.201712
-0.194461
-0.188063
-0.182465
-0.177606
-0.173423
-0.169854
-0.166838
-0.164316
-0.162235
-0.160547
-0.159208
-0.158177
-0.15742
-0.156905
-0.156604
-0.156493
-0.156552
-0.15676
-0.157102
-0.157565
-0.158135
-0.158802
-0.159557
-0.160392
-0.161298
-0.162271
-0.163295
-0.164376
-0.165501
-0.166667
-0.167866
-0.169094
-0.170344
-0.171609
-0.172885
-0.174159
-0.17543
-0.176679
-0.17791
-0.179083
-0.180227
-0.181248
-0.182247
-0.182984
-0.183786
-0.183994
-0.184604
-0.183812
-0.18444
-0.181885
-0.183083
-0.178508
-0.180407
-0.176454
0.0409259
0.0171747
0.0522365
0.0381881
0.0489906
0.0368456
0.0332299
0.0184312
0.0046809
-0.0150652
-0.0364822
-0.0615237
-0.0885177
-0.117533
-0.147595
-0.178161
-0.208452
-0.237838
-0.265699
-0.291524
-0.314875
-0.335413
-0.35288
-0.367106
-0.378002
-0.385551
-0.389822
-0.390937
-0.389093
-0.384549
-0.377597
-0.368577
-0.357847
-0.345777
-0.332736
-0.319077
-0.305129
-0.291187
-0.27751
-0.26431
-0.251758
-0.239982
-0.229067
-0.219065
-0.209993
-0.201844
-0.194591
-0.188189
-0.182585
-0.17772
-0.17353
-0.169953
-0.166928
-0.164397
-0.162308
-0.160612
-0.159265
-0.158226
-0.157462
-0.15694
-0.156632
-0.156516
-0.156569
-0.156772
-0.15711
-0.157568
-0.158135
-0.158798
-0.15955
-0.160381
-0.161282
-0.162246
-0.163279
-0.164355
-0.165478
-0.166642
-0.16784
-0.169066
-0.170314
-0.171578
-0.172851
-0.174125
-0.175394
-0.176642
-0.177871
-0.179043
-0.180185
-0.181203
-0.182202
-0.182933
-0.183735
-0.183931
-0.184539
-0.183728
-0.184337
-0.181773
-0.182867
-0.178348
-0.180022
-0.175896
0.0412632
0.0173046
0.0526066
0.0384584
0.0493617
0.0371681
0.0336094
0.0188001
0.00508602
-0.0146424
-0.0360237
-0.0610342
-0.087992
-0.116976
-0.147009
-0.177555
-0.207835
-0.237218
-0.265085
-0.290924
-0.314296
-0.33486
-0.352358
-0.366619
-0.377552
-0.385141
-0.389456
-0.390615
-0.388816
-0.384318
-0.377411
-0.368435
-0.357748
-0.345718
-0.332713
-0.319087
-0.305168
-0.291251
-0.277594
-0.26441
-0.251871
-0.240103
-0.229194
-0.219194
-0.210123
-0.201972
-0.194715
-0.188308
-0.182698
-0.177825
-0.173628
-0.170043
-0.167009
-0.164471
-0.162374
-0.16067
-0.159314
-0.158269
-0.157497
-0.156969
-0.156656
-0.156534
-0.156582
-0.156781
-0.157114
-0.157569
-0.158132
-0.158792
-0.159541
-0.16037
-0.161269
-0.162235
-0.163255
-0.164335
-0.165456
-0.166617
-0.167813
-0.169037
-0.170284
-0.171546
-0.172818
-0.17409
-0.175359
-0.176605
-0.177833
-0.179004
-0.180145
-0.181161
-0.18216
-0.182888
-0.183691
-0.183878
-0.184489
-0.183662
-0.184261
-0.181691
-0.182705
-0.178229
-0.179726
-0.17544
0.0415196
0.0174009
0.0528847
0.0386621
0.0496422
0.0374146
0.0339011
0.0190873
0.00540382
-0.0143068
-0.0356571
-0.0606397
-0.0875661
-0.116522
-0.146531
-0.177059
-0.207328
-0.236709
-0.264582
-0.290432
-0.313822
-0.334409
-0.351935
-0.366227
-0.377195
-0.384821
-0.389174
-0.390373
-0.388615
-0.384157
-0.377291
-0.368354
-0.357703
-0.345707
-0.332733
-0.319134
-0.305238
-0.291341
-0.277699
-0.264527
-0.251996
-0.240233
-0.229326
-0.219326
-0.210252
-0.202097
-0.194834
-0.188421
-0.182804
-0.177923
-0.173718
-0.170124
-0.167083
-0.164536
-0.162431
-0.16072
-0.159358
-0.158305
-0.157528
-0.156994
-0.156675
-0.156548
-0.156591
-0.156786
-0.157116
-0.157567
-0.158126
-0.158783
-0.159528
-0.160352
-0.161251
-0.162213
-0.163236
-0.164308
-0.165429
-0.166589
-0.167784
-0.169007
-0.170253
-0.171514
-0.172785
-0.174056
-0.175324
-0.17657
-0.177797
-0.178967
-0.180109
-0.181124
-0.182124
-0.182849
-0.183655
-0.183837
-0.184454
-0.183617
-0.184215
-0.181641
-0.182602
-0.178155
-0.179521
-0.175088
0.0416927
0.0174631
0.0530693
0.0387984
0.0498307
0.0375837
0.034103
0.019291
0.00563218
-0.0140606
-0.0353845
-0.060342
-0.0872412
-0.116173
-0.146161
-0.176673
-0.206932
-0.23631
-0.264186
-0.290046
-0.313452
-0.334059
-0.35161
-0.36593
-0.376929
-0.384588
-0.388979
-0.390212
-0.38849
-0.38407
-0.377239
-0.368336
-0.357717
-0.34575
-0.332802
-0.319224
-0.305346
-0.291463
-0.277831
-0.264666
-0.252139
-0.240377
-0.229468
-0.219463
-0.210384
-0.202222
-0.194952
-0.18853
-0.182904
-0.178015
-0.173801
-0.170199
-0.167149
-0.164594
-0.162482
-0.160763
-0.159394
-0.158336
-0.157552
-0.157013
-0.156689
-0.156558
-0.156597
-0.156787
-0.157114
-0.157562
-0.158119
-0.158774
-0.159518
-0.160343
-0.161239
-0.162199
-0.163219
-0.164292
-0.165409
-0.166567
-0.167759
-0.16898
-0.170224
-0.171484
-0.172754
-0.174023
-0.17529
-0.176535
-0.177762
-0.178932
-0.180074
-0.181089
-0.182091
-0.182816
-0.183627
-0.183806
-0.184432
-0.18359
-0.184197
-0.181621
-0.182556
-0.178125
-0.179398
-0.174832
0.0417797
0.0174937
0.0531615
0.0388666
0.0499253
0.0376695
0.0342061
0.0193972
0.00575312
-0.0139268
-0.0352331
-0.0601723
-0.087052
-0.115965
-0.145936
-0.176434
-0.206683
-0.236055
-0.263931
-0.289796
-0.31321
-0.333831
-0.351398
-0.365739
-0.376761
-0.384446
-0.388863
-0.390132
-0.388437
-0.384045
-0.377243
-0.368366
-0.357771
-0.345825
-0.332895
-0.319332
-0.305465
-0.291589
-0.277962
-0.264799
-0.25227
-0.240505
-0.229591
-0.21958
-0.210493
-0.202324
-0.195045
-0.188615
-0.182981
-0.178084
-0.173862
-0.170252
-0.167196
-0.164635
-0.162516
-0.160792
-0.159418
-0.158355
-0.157567
-0.157023
-0.156696
-0.156562
-0.156598
-0.156785
-0.157108
-0.157552
-0.158104
-0.158755
-0.159494
-0.160312
-0.161208
-0.162166
-0.163183
-0.164251
-0.165368
-0.166526
-0.167718
-0.168939
-0.170183
-0.171442
-0.172713
-0.173983
-0.175251
-0.176496
-0.177725
-0.178895
-0.18004
-0.181057
-0.182063
-0.182789
-0.183606
-0.183785
-0.184418
-0.183572
-0.184186
-0.181608
-0.182531
-0.1781
-0.179314
-0.17464
0.0297874
0.013164
0.039693
0.028915
0.0360571
0.0253838
0.0198327
0.00523565
-0.00979412
-0.0301263
-0.0527895
-0.0788592
-0.107066
-0.137095
-0.168026
-0.199165
-0.229733
-0.259078
-0.286617
-0.311869
-0.334443
-0.354034
-0.370417
-0.383442
-0.393035
-0.399193
-0.402016
-0.401645
-0.398264
-0.392176
-0.383697
-0.373191
-0.361044
-0.34765
-0.333395
-0.318649
-0.30375
-0.289001
-0.274657
-0.26093
-0.247982
-0.23593
-0.224848
-0.214774
-0.205713
-0.197645
-0.190529
-0.184311
-0.178925
-0.174304
-0.170374
-0.167068
-0.164317
-0.162059
-0.160237
-0.158798
-0.157696
-0.15689
-0.156342
-0.156021
-0.155899
-0.155954
-0.156164
-0.156511
-0.15698
-0.157559
-0.158236
-0.159002
-0.159849
-0.160768
-0.161753
-0.162797
-0.163894
-0.165039
-0.166226
-0.167449
-0.168702
-0.169979
-0.171275
-0.172583
-0.173896
-0.175208
-0.17651
-0.177791
-0.179044
-0.18025
-0.181405
-0.182472
-0.183462
-0.184295
-0.185043
-0.185495
-0.185972
-0.185765
-0.186353
-0.184768
-0.187829
-0.183073
-0.196602
-0.188099
0.0309022
0.0132942
0.040956
0.0296333
0.0373106
0.0263808
0.021092
0.00642574
-0.00846069
-0.028767
-0.0513054
-0.0772989
-0.105399
-0.135346
-0.166207
-0.197304
-0.227855
-0.25721
-0.284782
-0.310087
-0.33273
-0.352403
-0.368878
-0.382004
-0.391708
-0.397986
-0.400933
-0.400681
-0.397436
-0.391483
-0.383138
-0.372763
-0.360742
-0.347466
-0.333321
-0.318673
-0.303861
-0.289186
-0.274905
-0.261228
-0.248318
-0.236293
-0.225229
-0.215164
-0.206105
-0.198032
-0.190905
-0.184671
-0.179267
-0.174623
-0.170671
-0.167339
-0.164563
-0.16228
-0.160433
-0.158971
-0.157846
-0.157018
-0.15645
-0.156111
-0.155973
-0.156013
-0.156208
-0.156542
-0.156999
-0.157567
-0.158235
-0.158992
-0.159831
-0.160742
-0.161721
-0.162759
-0.163851
-0.164991
-0.166174
-0.167393
-0.168643
-0.169917
-0.171211
-0.172517
-0.173829
-0.17514
-0.176441
-0.177721
-0.178975
-0.18018
-0.181335
-0.182399
-0.183391
-0.184216
-0.184967
-0.185393
-0.185881
-0.185605
-0.186218
-0.184466
-0.187486
-0.182487
-0.195127
-0.187909
0.0318637
0.0136101
0.0420289
0.0304327
0.0384425
0.0274001
0.0222887
0.00761358
-0.00714669
-0.0273948
-0.0498153
-0.0757119
-0.1037
-0.133557
-0.164343
-0.195394
-0.225928
-0.255296
-0.282905
-0.308271
-0.330992
-0.350758
-0.367338
-0.38058
-0.390409
-0.39682
-0.399902
-0.399789
-0.396688
-0.390879
-0.382674
-0.372436
-0.360543
-0.347386
-0.333349
-0.318796
-0.304067
-0.28946
-0.275234
-0.261598
-0.248719
-0.236713
-0.225657
-0.215593
-0.206526
-0.19844
-0.191296
-0.185041
-0.179612
-0.174943
-0.170963
-0.167604
-0.164801
-0.162491
-0.160618
-0.159131
-0.157983
-0.157134
-0.156546
-0.156189
-0.156034
-0.156057
-0.156238
-0.156559
-0.157005
-0.157562
-0.15822
-0.158968
-0.159798
-0.160702
-0.161673
-0.162705
-0.16379
-0.164925
-0.166101
-0.167315
-0.16856
-0.16983
-0.171119
-0.172421
-0.173731
-0.175038
-0.176337
-0.177616
-0.178868
-0.180072
-0.181229
-0.182292
-0.183288
-0.184111
-0.184872
-0.185287
-0.185798
-0.185475
-0.186127
-0.184237
-0.187199
-0.182007
-0.193434
-0.187756
0.03277
0.0139528
0.0430466
0.0312213
0.0395211
0.0283837
0.0234292
0.00874765
-0.00589903
-0.0260926
-0.0484049
-0.0742112
-0.102095
-0.131867
-0.162581
-0.193588
-0.224104
-0.253481
-0.281124
-0.306543
-0.329335
-0.349187
-0.365864
-0.379212
-0.389155
-0.395688
-0.398896
-0.398914
-0.395947
-0.390272
-0.382199
-0.372089
-0.360318
-0.347274
-0.333339
-0.318878
-0.304228
-0.289688
-0.275516
-0.261923
-0.249074
-0.237088
-0.226044
-0.215982
-0.206912
-0.198815
-0.191656
-0.185383
-0.179933
-0.175241
-0.171236
-0.167853
-0.165025
-0.16269
-0.160794
-0.159284
-0.158115
-0.157245
-0.156638
-0.156263
-0.156092
-0.156101
-0.156269
-0.156578
-0.157012
-0.15756
-0.158208
-0.158948
-0.159771
-0.160667
-0.161631
-0.162656
-0.163736
-0.164864
-0.166035
-0.167243
-0.168483
-0.169749
-0.171034
-0.172332
-0.173638
-0.174942
-0.176239
-0.177514
-0.178765
-0.179967
-0.181123
-0.182184
-0.183182
-0.184
-0.184768
-0.185168
-0.185697
-0.185325
-0.186006
-0.183994
-0.186875
-0.181585
-0.191865
-0.187395
0.033651
0.0142736
0.0440404
0.0319738
0.0405636
0.0293226
0.0245234
0.00983125
-0.00470647
-0.0248497
-0.0470576
-0.0727777
-0.100561
-0.13025
-0.160894
-0.191855
-0.22235
-0.251734
-0.279406
-0.304875
-0.327734
-0.347666
-0.364434
-0.377884
-0.387938
-0.394588
-0.397917
-0.398062
-0.395225
-0.38968
-0.381736
-0.37175
-0.360097
-0.347163
-0.333329
-0.318957
-0.304385
-0.28991
-0.275791
-0.26224
-0.249421
-0.237455
-0.226422
-0.216363
-0.207289
-0.199183
-0.19201
-0.185718
-0.180248
-0.175534
-0.171506
-0.168098
-0.165246
-0.162888
-0.160968
-0.159436
-0.158245
-0.157355
-0.15673
-0.156338
-0.156151
-0.156145
-0.1563
-0.156597
-0.157021
-0.157558
-0.158197
-0.158928
-0.159743
-0.160632
-0.161589
-0.162607
-0.163681
-0.164803
-0.165969
-0.167172
-0.168408
-0.169669
-0.17095
-0.172245
-0.173547
-0.174848
-0.176142
-0.177416
-0.178665
-0.179864
-0.18102
-0.182078
-0.183077
-0.183889
-0.184663
-0.185045
-0.18559
-0.185167
-0.18587
-0.183746
-0.186527
-0.181197
-0.190397
-0.186871
0.0345006
0.01458
0.0449992
0.0326935
0.0415636
0.03022
0.0255715
0.0108689
-0.00356322
-0.0236565
-0.0457623
-0.0713975
-0.0990815
-0.128688
-0.159262
-0.190177
-0.220651
-0.250038
-0.277737
-0.303254
-0.326177
-0.346187
-0.363045
-0.376594
-0.386756
-0.393522
-0.396972
-0.397242
-0.394532
-0.389115
-0.381297
-0.371433
-0.359897
-0.347071
-0.333335
-0.319051
-0.304553
-0.290142
-0.276075
-0.262562
-0.249772
-0.237825
-0.226802
-0.216745
-0.207666
-0.19955
-0.192362
-0.186053
-0.180562
-0.175825
-0.171773
-0.168342
-0.165465
-0.163083
-0.16114
-0.159585
-0.158374
-0.157464
-0.156821
-0.156412
-0.156209
-0.156189
-0.15633
-0.156615
-0.157028
-0.157555
-0.158184
-0.158907
-0.159713
-0.160595
-0.161545
-0.162557
-0.163625
-0.164741
-0.165902
-0.1671
-0.168331
-0.169588
-0.170865
-0.172156
-0.173455
-0.174754
-0.176045
-0.177316
-0.178563
-0.179761
-0.180916
-0.181972
-0.182973
-0.183778
-0.184559
-0.184923
-0.185483
-0.18501
-0.185733
-0.183507
-0.186171
-0.180841
-0.188999
-0.186219
0.0353124
0.0148777
0.0459149
0.0333823
0.0425164
0.0310761
0.0265715
0.0118594
-0.00247068
-0.0225134
-0.0445201
-0.0700714
-0.0976585
-0.127184
-0.157687
-0.188557
-0.219007
-0.248397
-0.276121
-0.301683
-0.324668
-0.344754
-0.3617
-0.375347
-0.385615
-0.392495
-0.396063
-0.396455
-0.393871
-0.388579
-0.380885
-0.371141
-0.359719
-0.346998
-0.333358
-0.319158
-0.304734
-0.290384
-0.276365
-0.262891
-0.250127
-0.238198
-0.227183
-0.217127
-0.208042
-0.199915
-0.192712
-0.186384
-0.180873
-0.176113
-0.172038
-0.168582
-0.165681
-0.163275
-0.16131
-0.159733
-0.158501
-0.157571
-0.15691
-0.156484
-0.156265
-0.156231
-0.156359
-0.156632
-0.157033
-0.15755
-0.158171
-0.158885
-0.159683
-0.160558
-0.161501
-0.162506
-0.163568
-0.164679
-0.165834
-0.167027
-0.168253
-0.169506
-0.170779
-0.172067
-0.173363
-0.174658
-0.175947
-0.177216
-0.178462
-0.179657
-0.180812
-0.181865
-0.182869
-0.183668
-0.184456
-0.184802
-0.185379
-0.184859
-0.185599
-0.183285
-0.18582
-0.180519
-0.187679
-0.185453
0.036085
0.0151645
0.0467858
0.0340379
0.0434205
0.0318894
0.0275176
0.0128063
-0.00142945
-0.0214206
-0.0433308
-0.0687989
-0.0962907
-0.125735
-0.156169
-0.186991
-0.217418
-0.246808
-0.274555
-0.30016
-0.323205
-0.343366
-0.360398
-0.374141
-0.384514
-0.391506
-0.395192
-0.395704
-0.393244
-0.388076
-0.380504
-0.370878
-0.359567
-0.34695
-0.333403
-0.319286
-0.304933
-0.290642
-0.276671
-0.263233
-0.250494
-0.23858
-0.227572
-0.217516
-0.208424
-0.200285
-0.193066
-0.186719
-0.181186
-0.176403
-0.172304
-0.168823
-0.165898
-0.163468
-0.161479
-0.159881
-0.158627
-0.157678
-0.156998
-0.156555
-0.156321
-0.156272
-0.156387
-0.156648
-0.157038
-0.157545
-0.158156
-0.158862
-0.159652
-0.16052
-0.161456
-0.162455
-0.16351
-0.164616
-0.165766
-0.166954
-0.168176
-0.169424
-0.170694
-0.171978
-0.173271
-0.174563
-0.17585
-0.177116
-0.17836
-0.179554
-0.180709
-0.181759
-0.182765
-0.183559
-0.184354
-0.184684
-0.185279
-0.184714
-0.185473
-0.183079
-0.185482
-0.180233
-0.186457
-0.184636
0.0368149
0.0154406
0.0476085
0.0346592
0.0442733
0.0326584
0.0284063
0.0137094
-0.00044192
-0.0203805
-0.0421967
-0.067582
-0.0949801
-0.124344
-0.154708
-0.185482
-0.215882
-0.245271
-0.273038
-0.298684
-0.321786
-0.342019
-0.359135
-0.372973
-0.38345
-0.390553
-0.394357
-0.394987
-0.392649
-0.387604
-0.380154
-0.370645
-0.359444
-0.346929
-0.333474
-0.319438
-0.305154
-0.290921
-0.276995
-0.26359
-0.250875
-0.238975
-0.227972
-0.217913
-0.208814
-0.200662
-0.193425
-0.187058
-0.181502
-0.176695
-0.172571
-0.169066
-0.166116
-0.163662
-0.16165
-0.160029
-0.158754
-0.157785
-0.157086
-0.156626
-0.156376
-0.156313
-0.156414
-0.156663
-0.157042
-0.157538
-0.158141
-0.158838
-0.15962
-0.160481
-0.161411
-0.162404
-0.163453
-0.164552
-0.165697
-0.16688
-0.168097
-0.16934
-0.170606
-0.171886
-0.173175
-0.174464
-0.175749
-0.177012
-0.178255
-0.179446
-0.180601
-0.181649
-0.182657
-0.183444
-0.184248
-0.18456
-0.185172
-0.184561
-0.185337
-0.182869
-0.185135
-0.179952
-0.185299
-0.183829
0.0374854
0.0157278
0.048365
0.0352545
0.0450625
0.0333798
0.0292326
0.0145435
0.000467274
-0.0194225
-0.0411565
-0.0664672
-0.0937817
-0.123072
-0.153374
-0.184103
-0.21448
-0.243866
-0.271651
-0.297333
-0.320486
-0.340783
-0.357975
-0.371897
-0.382465
-0.389666
-0.393571
-0.394317
-0.392087
-0.387151
-0.379808
-0.370402
-0.359299
-0.346874
-0.333501
-0.319538
-0.305315
-0.291132
-0.277247
-0.263872
-0.251179
-0.239291
-0.228294
-0.218234
-0.209128
-0.200966
-0.193716
-0.187332
-0.181758
-0.176932
-0.172788
-0.169263
-0.166293
-0.16382
-0.161788
-0.160149
-0.158857
-0.157872
-0.157158
-0.156683
-0.15642
-0.156345
-0.156436
-0.156674
-0.157044
-0.157531
-0.158123
-0.158811
-0.159585
-0.160436
-0.161358
-0.162344
-0.163387
-0.164481
-0.16562
-0.166799
-0.168011
-0.169251
-0.170513
-0.17179
-0.173076
-0.174362
-0.175644
-0.176905
-0.178147
-0.179335
-0.18049
-0.181534
-0.182544
-0.183323
-0.184133
-0.184425
-0.185048
-0.184394
-0.185164
-0.18265
-0.184721
-0.179636
-0.184061
-0.18249
-0.080035
-0.0733721
-0.0726716
-0.0702278
-0.0705624
-0.0711655
-0.0735961
-0.0771844
-0.0825704
-0.0897299
-0.0991691
-0.111099
-0.126364
-0.145048
-0.168942
-0.197009
-0.234715
-0.264511
-0.288233
-0.307161
-0.0819581
-0.0754743
-0.0748783
-0.0725616
-0.0730216
-0.0737486
-0.0763122
-0.0800317
-0.0855521
-0.0928397
-0.102395
-0.11443
-0.129772
-0.148551
-0.172512
-0.200399
-0.237589
-0.261403
-0.285552
-0.293195
-0.0837807
-0.0775432
-0.0770049
-0.0748426
-0.0754169
-0.0762861
-0.0789952
-0.0828742
-0.0885653
-0.0960351
-0.105778
-0.118012
-0.133533
-0.152479
-0.1764
-0.203596
-0.238596
-0.255359
-0.279888
-0.281662
-0.0855423
-0.0795767
-0.0790853
-0.0770856
-0.0777654
-0.0787756
-0.0816217
-0.0856525
-0.0915016
-0.0991371
-0.109043
-0.121441
-0.137088
-0.15611
-0.179851
-0.206274
-0.239007
-0.251114
-0.275816
-0.271166
-0.0872563
-0.0815746
-0.0811303
-0.0792965
-0.0800758
-0.0812228
-0.0841948
-0.088364
-0.09435
-0.102122
-0.112148
-0.12465
-0.140339
-0.159317
-0.182725
-0.208313
-0.238727
-0.248196
-0.271897
-0.260849
-0.0889207
-0.083539
-0.0831374
-0.0814752
-0.0823478
-0.08363
-0.08672
-0.0910191
-0.0971276
-0.105016
-0.115133
-0.127694
-0.143363
-0.162202
-0.185137
-0.209804
-0.237754
-0.245939
-0.267437
-0.250949
-0.0905324
-0.0854728
-0.0851041
-0.0836209
-0.0845795
-0.0859972
-0.089198
-0.0936215
-0.0998418
-0.107832
-0.118017
-0.130602
-0.146199
-0.164817
-0.187156
-0.210838
-0.236335
-0.244242
-0.262447
-0.24155
-0.0920906
-0.0873794
-0.0870296
-0.0857341
-0.0867699
-0.0883237
-0.0916278
-0.0961701
-0.102491
-0.110568
-0.120797
-0.13337
-0.148844
-0.167166
-0.188789
-0.211426
-0.234792
-0.243229
-0.257003
-0.232499
-0.0935955
-0.0892625
-0.0889143
-0.0878161
-0.0889192
-0.0906096
-0.0940086
-0.0986637
-0.105072
-0.113219
-0.123463
-0.135975
-0.151244
-0.169155
-0.189956
-0.211697
-0.233899
-0.243558
-0.251723
-0.223376
-0.0950477
-0.0911256
-0.0907573
-0.0898659
-0.0910237
-0.0928498
-0.0963327
-0.101092
-0.107574
-0.115775
-0.126019
-0.138479
-0.153618
-0.171303
-0.191519
-0.212357
-0.232915
-0.242579
-0.246595
-0.214306
-0.0536941
-0.045449
-0.0435411
-0.0397528
-0.0386604
-0.0378741
-0.0387775
-0.0408342
-0.0446062
-0.050143
-0.0579948
-0.0683931
-0.0825555
-0.100293
-0.125444
-0.155069
-0.201257
-0.255895
-0.324302
-0.3768
-0.0566241
-0.0485614
-0.0467508
-0.0431187
-0.0421638
-0.0415271
-0.0425866
-0.0448063
-0.0487478
-0.0544591
-0.062484
-0.0730583
-0.0873665
-0.105277
-0.130468
-0.160448
-0.206239
-0.26173
-0.324049
-0.374738
-0.0594769
-0.0515854
-0.04987
-0.0463872
-0.0455781
-0.0451021
-0.0463404
-0.0487546
-0.0529131
-0.0588646
-0.0671543
-0.078031
-0.0926526
-0.11096
-0.136435
-0.166919
-0.211881
-0.265592
-0.317605
-0.366576
-0.062267
-0.0545456
-0.0529286
-0.0495923
-0.0489293
-0.0486128
-0.0500298
-0.0526377
-0.0570124
-0.0632032
-0.0717558
-0.0829313
-0.0978571
-0.116538
-0.142224
-0.173036
-0.216896
-0.268422
-0.311603
-0.359892
-0.0650011
-0.05745
-0.0559375
-0.0527455
-0.0522262
-0.0520627
-0.0536481
-0.0564346
-0.0610044
-0.0674048
-0.0761794
-0.0875954
-0.102743
-0.121669
-0.147375
-0.178206
-0.220721
-0.269883
-0.306109
-0.352916
-0.0676792
-0.0602962
-0.0588945
-0.0558438
-0.0554664
-0.0554491
-0.0571937
-0.0601445
-0.0648899
-0.0714726
-0.0804318
-0.092035
-0.10733
-0.126386
-0.151943
-0.18251
-0.223476
-0.269712
-0.300303
-0.344536
-0.0703
-0.0630804
-0.0617967
-0.0588827
-0.0586467
-0.0587696
-0.0606663
-0.0637703
-0.0686765
-0.0754207
-0.0845364
-0.0962866
-0.111673
-0.130771
-0.156049
-0.186116
-0.225407
-0.267994
-0.294168
-0.335086
-0.0728637
-0.0658004
-0.0646432
-0.0618603
-0.0617661
-0.0620229
-0.0640657
-0.0673124
-0.0723662
-0.0792531
-0.0885003
-0.100362
-0.115789
-0.134846
-0.159724
-0.189061
-0.226652
-0.264943
-0.287772
-0.325154
-0.0753709
-0.0684544
-0.0674353
-0.0647763
-0.0648252
-0.0652088
-0.0673914
-0.0707696
-0.0759567
-0.0829662
-0.092318
-0.104253
-0.119675
-0.138627
-0.163036
-0.191504
-0.227464
-0.260505
-0.280151
-0.314218
-0.0778216
-0.0710409
-0.0701741
-0.0676304
-0.0678248
-0.0683277
-0.0706446
-0.0741436
-0.0794508
-0.0865637
-0.0959941
-0.107963
-0.123312
-0.142018
-0.165697
-0.192761
-0.226925
-0.254556
-0.273121
-0.299659
-0.0214253
-0.0110543
-0.00829005
-0.00273633
-0.00015231
0.00228674
0.00322106
0.00321896
0.00169562
-0.00135161
-0.00643518
-0.0137073
-0.024374
-0.0378524
-0.0587186
-0.0810613
-0.12526
-0.1603
-0.270313
-0.327146
-0.0248484
-0.0147678
-0.012044
-0.00671129
-0.004261
-0.0020077
-0.00126004
-0.00148514
-0.00324871
-0.00656642
-0.0119571
-0.0195832
-0.0306827
-0.044689
-0.0662676
-0.0896343
-0.13511
-0.173106
-0.278199
-0.330724
-0.028249
-0.0183716
-0.0157353
-0.010582
-0.00830442
-0.00621944
-0.00568952
-0.00616727
-0.00822125
-0.0118754
-0.017666
-0.0257695
-0.037464
-0.052213
-0.074754
-0.0994602
-0.146144
-0.185955
-0.281295
-0.324945
-0.031605
-0.0219216
-0.0193803
-0.0144003
-0.0122943
-0.0103827
-0.0100706
-0.0107989
-0.0131418
-0.0171302
-0.0233164
-0.0318908
-0.0441629
-0.0596337
-0.0830564
-0.109017
-0.156524
-0.198219
-0.286142
-0.326771
-0.03491
-0.0254328
-0.0229827
-0.0181782
-0.0162334
-0.0144971
-0.0143903
-0.015352
-0.0179596
-0.0222501
-0.0287864
-0.0377701
-0.0505299
-0.0666023
-0.0907096
-0.11768
-0.165632
-0.209312
-0.292
-0.331511
-0.0381646
-0.0288993
-0.0265383
-0.0219093
-0.020118
-0.0185537
-0.0186401
-0.0198189
-0.0226682
-0.0272302
-0.0340744
-0.0434105
-0.0565759
-0.0731402
-0.0977612
-0.125528
-0.17362
-0.219061
-0.297195
-0.335663
-0.0413699
-0.0323151
-0.0300431
-0.0255871
-0.0239447
-0.0225475
-0.0228177
-0.0242003
-0.0272736
-0.0320833
-0.0392026
-0.0488476
-0.0623546
-0.079327
-0.104327
-0.132722
-0.180681
-0.227519
-0.301289
-0.338912
-0.0445256
-0.0356778
-0.0334952
-0.0292092
-0.0277115
-0.0264764
-0.0269217
-0.0284965
-0.0317775
-0.0368134
-0.0441782
-0.0540928
-0.0678827
-0.0851886
-0.110441
-0.139307
-0.186858
-0.234758
-0.304444
-0.341326
-0.0476315
-0.0389868
-0.0368936
-0.0327751
-0.0314178
-0.0303397
-0.0309513
-0.0327057
-0.0361774
-0.041417
-0.0489956
-0.0591388
-0.0731494
-0.0907133
-0.11609
-0.14529
-0.192223
-0.241036
-0.306582
-0.341737
-0.0506874
-0.0422412
-0.0402366
-0.0362826
-0.0350603
-0.0341334
-0.0349005
-0.0368205
-0.0404637
-0.0458819
-0.0536397
-0.0639668
-0.0781307
-0.0958671
-0.121217
-0.150518
-0.196371
-0.24546
-0.307103
-0.342722
0.0105757
0.023513
0.0269768
0.0344463
0.0385184
0.0433595
0.0465752
0.049255
0.0507552
0.0511708
0.0501365
0.0476004
0.043052
0.0369804
0.0279956
0.0206086
0.0082671
0.0158611
0.00137571
0.0995943
0.00635771
0.0195258
0.0224914
0.029877
0.0335222
0.0379283
0.0405767
0.0426168
0.0433436
0.0428577
0.0407598
0.0370002
0.0309936
0.0233009
0.0121431
0.00259078
-0.014138
-0.00888496
-0.0350352
0.0673805
0.00288685
0.0159158
0.018692
0.0259324
0.0293703
0.0335151
0.0358947
0.03765
0.0380602
0.0372313
0.0347461
0.0305495
0.0239516
0.0155373
0.00297037
-0.00832879
-0.0298728
-0.0288281
-0.0699416
0.0326399
-0.000172584
0.0125242
0.0152951
0.0223592
0.0256711
0.0296337
0.0318364
0.0333979
0.0335903
0.0325174
0.0297376
0.0251777
0.0180385
0.00889425
-0.00507862
-0.0182652
-0.0442396
-0.0480224
-0.100489
-0.00152303
-0.00319373
0.00916339
0.0119417
0.0188194
0.0220002
0.0257751
0.0277814
0.0291139
0.0290381
0.0276501
0.0244803
0.019438
0.0116237
0.00161398
-0.0138308
-0.0288806
-0.0588265
-0.0671668
-0.128632
-0.0366319
-0.00625414
0.00579119
0.00855143
0.0152361
0.0182785
0.0218451
0.0236383
0.0247175
0.0243474
0.0226142
0.0190254
0.0134781
0.00498702
-0.00585374
-0.0226558
-0.0393741
-0.072894
-0.0856854
-0.155962
-0.0733918
-0.00931095
0.00242934
0.005165
0.0116487
0.0145628
0.0179119
0.0195004
0.0203334
0.0196852
0.01763
0.013659
0.00766107
-0.00142276
-0.0129787
-0.0309539
-0.0491406
-0.0858465
-0.103162
-0.182422
-0.111874
-0.012332
-0.000905468
0.00181492
0.00808854
0.0108921
0.0140217
0.0154232
0.016027
0.0151271
0.012783
0.00847558
0.00208553
-0.00750858
-0.0196789
-0.0386586
-0.0581448
-0.0975794
-0.119313
-0.207078
-0.152476
-0.0153124
-0.00421208
-0.00149261
0.00456044
0.00727169
0.0101792
0.0114098
0.011798
0.0106674
0.00805933
0.00344933
-0.00329106
-0.013332
-0.0260406
-0.045866
-0.0664916
-0.108111
-0.134
-0.229095
-0.195436
-0.0182557
-0.0074941
-0.00475819
0.00106343
0.00370309
0.00638575
0.00746292
0.00765076
0.0063123
0.00346801
-0.0014058
-0.00844755
-0.0188577
-0.0320065
-0.0524754
-0.0739987
-0.117121
-0.146143
-0.245966
-0.244087
0.276665
0.276016
0.277215
0.276281
0.278266
0.277114
0.280395
0.279048
0.28458
0.28318
0.292849
0.291787
0.309444
0.309648
0.34375
0.347142
0.418156
0.426487
0.582722
0.544131
0.276662
0.27601
0.277208
0.276279
0.278256
0.277115
0.280379
0.279056
0.28456
0.283207
0.292825
0.291861
0.309417
0.309828
0.34369
0.347486
0.417733
0.426099
0.579161
0.525024
0.27666
0.276003
0.277201
0.276278
0.278244
0.277116
0.280363
0.279065
0.28454
0.283236
0.292804
0.291943
0.309399
0.31003
0.343649
0.347887
0.417329
0.425849
0.575323
0.507963
0.276657
0.275995
0.277193
0.276276
0.278232
0.277115
0.280345
0.27907
0.284516
0.283259
0.292774
0.292009
0.309362
0.310193
0.343558
0.348177
0.41676
0.425237
0.57088
0.489963
0.276654
0.275986
0.277185
0.276273
0.278219
0.277113
0.280326
0.279072
0.284488
0.283275
0.292735
0.292063
0.309305
0.310327
0.343418
0.348378
0.416026
0.424296
0.565709
0.470628
0.276651
0.275977
0.277176
0.276269
0.278204
0.27711
0.280304
0.279073
0.284456
0.283287
0.292689
0.292106