/*--------------------------------*- C++ -*----------------------------------*\
  =========                 |
  \\      /  F ield         | OpenFOAM: The Open Source CFD Toolbox
   \\    /   O peration     | Website:  https://openfoam.org
    \\  /    A nd           | Version:  7
     \\/     M anipulation  |
\*---------------------------------------------------------------------------*/
FoamFile
{
    version     2.0;
    format      ascii;
    class       volScalarField;
    location    "82";
    object      p;
}
// * * * * * * * * * * * * * * * * * * * * * * * * * * * * * * * * * * * * * //

dimensions      [0 2 -2 0 0 0 0];

internalField   nonuniform List<scalar> 
11200
(
-0.000697031
-0.00218625
-0.00369445
-0.00534493
-0.00703676
-0.0087818
-0.0105336
-0.0122741
-0.0139763
-0.015622
-0.0171936
-0.0186778
-0.0200637
-0.0213429
-0.0225113
-0.0235621
-0.0244951
-0.0253093
-0.0260063
-0.0265883
-0.0270592
-0.0274235
-0.0276868
-0.0278553
-0.0279359
-0.0279363
-0.0278643
-0.0277284
-0.0275373
-0.0272999
-0.0270252
-0.0267221
-0.0263995
-0.026066
-0.0257296
-0.0253982
-0.0250789
-0.0247784
-0.0245025
-0.0242564
-0.0240449
-0.0238717
-0.0237402
-0.023653
-0.0236121
-0.023619
-0.0236748
-0.02378
-0.0239349
-0.0241392
-0.0243926
-0.0246944
-0.0250436
-0.0254393
-0.0258804
-0.0263655
-0.0268935
-0.027463
-0.0280725
-0.0287207
-0.0294063
-0.0301279
-0.0308846
-0.0316749
-0.0324986
-0.0333533
-0.0342391
-0.0351548
-0.0360996
-0.0370724
-0.0380723
-0.0390987
-0.0401507
-0.0412273
-0.0423274
-0.0434498
-0.044593
-0.0457546
-0.0469327
-0.0481231
-0.0493232
-0.0505253
-0.0517275
-0.0529142
-0.0540881
-0.0552157
-0.0563181
-0.0573151
-0.0582897
-0.0590333
-0.0598252
-0.0600877
-0.0607123
-0.0600361
-0.060796
-0.0583057
-0.0601419
-0.0551602
-0.0585074
-0.0551481
-0.000705353
-0.0021969
-0.00370933
-0.00535534
-0.00704183
-0.00878064
-0.0105263
-0.0122613
-0.0139587
-0.0156003
-0.0171686
-0.0186502
-0.0200343
-0.0213123
-0.0224788
-0.0235286
-0.024461
-0.025275
-0.0259721
-0.0265547
-0.0270263
-0.0273915
-0.027656
-0.0278259
-0.0279082
-0.0279104
-0.0278404
-0.0277067
-0.0275179
-0.027283
-0.0270108
-0.0267103
-0.0263903
-0.0260593
-0.0257254
-0.0253964
-0.0250794
-0.0247809
-0.0245069
-0.0242625
-0.0240524
-0.0238804
-0.0237498
-0.0236631
-0.0236225
-0.0236294
-0.0236849
-0.0237896
-0.0239437
-0.024147
-0.0243992
-0.0246996
-0.0250473
-0.0254414
-0.0258806
-0.026364
-0.0268902
-0.0274579
-0.0280657
-0.0287123
-0.0293965
-0.0301169
-0.0308725
-0.0316616
-0.0324845
-0.0333377
-0.0342221
-0.035136
-0.0360793
-0.0370506
-0.0380493
-0.0390746
-0.0401255
-0.0412012
-0.0423005
-0.043422
-0.0445643
-0.0457248
-0.0469017
-0.0480905
-0.0492888
-0.0504887
-0.0516883
-0.0528717
-0.0540421
-0.0551648
-0.0562628
-0.0572523
-0.0582218
-0.058953
-0.0597396
-0.0599792
-0.0605958
-0.0598805
-0.0606019
-0.0580872
-0.0597297
-0.0548669
-0.0576982
-0.0541708
-0.000712481
-0.00220664
-0.00372298
-0.00536533
-0.00704722
-0.00878061
-0.0105209
-0.0122509
-0.013944
-0.0155819
-0.0171471
-0.0186263
-0.0200084
-0.0212847
-0.02245
-0.023499
-0.0244308
-0.0252446
-0.0259417
-0.0265245
-0.0269966
-0.0273626
-0.027628
-0.027799
-0.0278827
-0.0278864
-0.0278182
-0.0276865
-0.0274999
-0.0272672
-0.0269974
-0.0266994
-0.0263819
-0.0260534
-0.0257221
-0.0253955
-0.0250808
-0.0247845
-0.0245125
-0.02427
-0.0240614
-0.0238908
-0.0237612
-0.0236754
-0.0236353
-0.0236425
-0.023698
-0.0238023
-0.0239558
-0.0241583
-0.0244095
-0.0247086
-0.0250548
-0.0254472
-0.0258847
-0.0263661
-0.0268903
-0.0274559
-0.0280616
-0.028706
-0.029388
-0.0301061
-0.0308595
-0.0316456
-0.0324672
-0.033318
-0.0342021
-0.0351149
-0.0360574
-0.0370281
-0.0380263
-0.0390512
-0.040102
-0.0411776
-0.0422768
-0.0433983
-0.0445404
-0.0457008
-0.0468773
-0.0480655
-0.049263
-0.0504617
-0.0516597
-0.0528409
-0.0540088
-0.0551277
-0.0562219
-0.0572049
-0.0581692
-0.0588885
-0.0596682
-0.0598854
-0.0604894
-0.059737
-0.0604153
-0.0578778
-0.0593505
-0.0546036
-0.0570964
-0.0535053
-0.000718448
-0.00221504
-0.00373478
-0.00537392
-0.00705178
-0.00878034
-0.0105158
-0.0122414
-0.0139306
-0.0155652
-0.0171277
-0.0186045
-0.0199848
-0.0212598
-0.022424
-0.0234723
-0.0244037
-0.0252172
-0.0259144
-0.0264974
-0.0269699
-0.0273365
-0.0276027
-0.0277748
-0.0278597
-0.0278649
-0.0277984
-0.0276684
-0.0274837
-0.0272532
-0.0269856
-0.0266898
-0.0263746
-0.0260485
-0.0257194
-0.0253951
-0.0250825
-0.0247882
-0.024518
-0.0242771
-0.0240699
-0.0239005
-0.0237719
-0.0236867
-0.0236471
-0.0236544
-0.0237098
-0.0238137
-0.0239666
-0.0241682
-0.0244182
-0.0247159
-0.0250605
-0.0254512
-0.0258868
-0.0263661
-0.0268882
-0.0274516
-0.028055
-0.0286971
-0.0293769
-0.0300925
-0.0308453
-0.0316328
-0.0324516
-0.0333014
-0.0341798
-0.035092
-0.0360335
-0.0370034
-0.038001
-0.0390255
-0.0400759
-0.0411513
-0.0422504
-0.0433718
-0.0445139
-0.0456742
-0.0468505
-0.0480384
-0.0492353
-0.0504331
-0.0516301
-0.0528097
-0.0539758
-0.0550919
-0.0561836
-0.0571615
-0.0581224
-0.0588321
-0.0596073
-0.059806
-0.0604015
-0.0596191
-0.060263
-0.0577106
-0.0590323
-0.0543801
-0.0565553
-0.0527906
-0.000723357
-0.00222212
-0.00374471
-0.00538106
-0.00705542
-0.00877974
-0.0105109
-0.0122327
-0.0139185
-0.0155502
-0.0171102
-0.0185851
-0.0199637
-0.0212375
-0.0224008
-0.0234484
-0.0243794
-0.0251928
-0.0258899
-0.0264731
-0.026946
-0.0273132
-0.0275802
-0.0277532
-0.0278393
-0.0278458
-0.0277807
-0.0276524
-0.0274695
-0.0272408
-0.0269752
-0.0266816
-0.0263685
-0.0260444
-0.0257174
-0.0253951
-0.0250844
-0.0247919
-0.0245233
-0.0242838
-0.024078
-0.0239095
-0.0237817
-0.0236971
-0.0236577
-0.0236651
-0.0237203
-0.0238238
-0.0239759
-0.0241766
-0.0244254
-0.0247217
-0.0250648
-0.0254537
-0.0258874
-0.0263647
-0.0268847
-0.027446
-0.0280473
-0.0286873
-0.0293656
-0.0300821
-0.0308283
-0.0316087
-0.0324252
-0.0332759
-0.0341602
-0.0350689
-0.0360091
-0.0369781
-0.0379751
-0.0389991
-0.0400492
-0.0411243
-0.0422233
-0.0433446
-0.0444866
-0.0456467
-0.0468227
-0.0480103
-0.0492068
-0.0504038
-0.0515999
-0.0527781
-0.0539428
-0.0550564
-0.0561462
-0.0571199
-0.0580785
-0.0587803
-0.059553
-0.0597365
-0.0603271
-0.05952
-0.060137
-0.0575734
-0.0587658
-0.0541873
-0.056084
-0.0521304
-0.000727299
-0.00222792
-0.00375283
-0.00538681
-0.0070582
-0.00877891
-0.0105065
-0.012225
-0.0139078
-0.015537
-0.017095
-0.0185681
-0.0199454
-0.0212182
-0.0223806
-0.0234276
-0.0243582
-0.0251713
-0.0258684
-0.0264518
-0.026925
-0.0272927
-0.0275604
-0.0277343
-0.0278213
-0.027829
-0.0277653
-0.0276384
-0.0274572
-0.0272302
-0.0269664
-0.0266746
-0.0263634
-0.0260413
-0.0257162
-0.0253956
-0.0250867
-0.0247958
-0.0245286
-0.0242905
-0.0240857
-0.0239181
-0.023791
-0.0237068
-0.0236677
-0.023675
-0.0237299
-0.0238329
-0.0239842
-0.0241839
-0.0244315
-0.0247265
-0.025068
-0.0254552
-0.0258871
-0.0263622
-0.0268805
-0.0274398
-0.0280391
-0.0286785
-0.0293529
-0.0300607
-0.0308101
-0.0315944
-0.0324084
-0.0332571
-0.0341346
-0.0350446
-0.0359839
-0.0369521
-0.0379484
-0.0389719
-0.0400217
-0.0410967
-0.0421955
-0.0433168
-0.0444587
-0.0456188
-0.0467948
-0.0479821
-0.0491782
-0.0503747
-0.0515702
-0.0527472
-0.0539108
-0.0550226
-0.056111
-0.0570813
-0.0580385
-0.058734
-0.0595057
-0.0596768
-0.0602654
-0.059438
-0.0600353
-0.0574628
-0.0585499
-0.0540281
-0.0556992
-0.0515722
-0.000730343
-0.00223244
-0.00375914
-0.00539116
-0.00706012
-0.00877786
-0.0105025
-0.0122183
-0.0138987
-0.0155258
-0.017082
-0.0185537
-0.0199298
-0.0212016
-0.0223634
-0.0234099
-0.0243401
-0.0251531
-0.0258501
-0.0264336
-0.0269071
-0.0272752
-0.0275434
-0.027718
-0.0278059
-0.0278147
-0.0277521
-0.0276266
-0.0274467
-0.0272213
-0.0269592
-0.026669
-0.0263596
-0.0260391
-0.0257157
-0.0253968
-0.0250894
-0.0247999
-0.024534
-0.024297
-0.0240932
-0.0239264
-0.0237998
-0.0237159
-0.0236769
-0.0236841
-0.0237386
-0.0238411
-0.0239916
-0.0241903
-0.0244367
-0.0247303
-0.0250702
-0.0254559
-0.025886
-0.0263594
-0.0268757
-0.0274339
-0.0280303
-0.0286629
-0.0293362
-0.0300483
-0.0307934
-0.0315737
-0.0323865
-0.033233
-0.034112
-0.03502
-0.0359579
-0.0369252
-0.0379209
-0.038944
-0.0399935
-0.0410683
-0.0421672
-0.0432884
-0.0444304
-0.0455905
-0.0467665
-0.0479537
-0.0491497
-0.0503458
-0.0515409
-0.0527172
-0.0538802
-0.0549906
-0.0560782
-0.0570462
-0.0580029
-0.0586938
-0.0594661
-0.0596278
-0.0602176
-0.0593746
-0.0599604
-0.0573814
-0.0583884
-0.0539088
-0.0554038
-0.0511163
-0.000732537
-0.00223568
-0.0037636
-0.00539406
-0.00706108
-0.00877649
-0.0104988
-0.0122125
-0.013891
-0.0155165
-0.0170713
-0.0185419
-0.0199171
-0.0211898
-0.0223495
-0.0233954
-0.0243253
-0.025138
-0.0258349
-0.0264184
-0.0268921
-0.0272605
-0.0275292
-0.0277045
-0.0277932
-0.0278028
-0.0277413
-0.0276169
-0.0274384
-0.0272143
-0.0269536
-0.026665
-0.026357
-0.0260381
-0.0257161
-0.0253986
-0.0250926
-0.0248043
-0.0245396
-0.0243035
-0.0241005
-0.0239343
-0.0238081
-0.0237245
-0.0236854
-0.0236924
-0.0237465
-0.0238483
-0.0239981
-0.0241957
-0.024441
-0.0247334
-0.0250716
-0.0254557
-0.0258846
-0.0263588
-0.0268693
-0.0274218
-0.0280163
-0.0286514
-0.0293231
-0.0300314
-0.0307749
-0.0315534
-0.0323648
-0.0332096
-0.0340851
-0.0349934
-0.0359311
-0.0368978
-0.0378929
-0.0389156
-0.0399648
-0.0410394
-0.0421382
-0.0432595
-0.0444016
-0.0455618
-0.0467379
-0.0479252
-0.0491212
-0.0503172
-0.0515123
-0.0526882
-0.053851
-0.0549606
-0.0560482
-0.0570147
-0.057972
-0.0586599
-0.0594345
-0.0595901
-0.0601849
-0.0593313
-0.0599152
-0.0573323
-0.0582862
-0.0538357
-0.055199
-0.0507641
-0.000733912
-0.00223763
-0.0037662
-0.00539547
-0.00706106
-0.00877476
-0.0104954
-0.0122075
-0.0138846
-0.0155089
-0.0170627
-0.0185324
-0.0199068
-0.0211756
-0.0223395
-0.0233843
-0.0243136
-0.0251261
-0.0258229
-0.0264064
-0.0268802
-0.0272489
-0.027518
-0.0276937
-0.027783
-0.0277934
-0.0277328
-0.0276094
-0.0274319
-0.027209
-0.0269495
-0.0266622
-0.0263556
-0.0260379
-0.0257173
-0.025401
-0.0250961
-0.0248089
-0.0245451
-0.0243098
-0.0241074
-0.0239417
-0.0238158
-0.0237323
-0.0236931
-0.0236998
-0.0237534
-0.0238545
-0.0240034
-0.0242
-0.0244442
-0.0247359
-0.0250724
-0.0254532
-0.0258781
-0.0263444
-0.0268588
-0.0274123
-0.0280053
-0.0286371
-0.0293064
-0.0300126
-0.0307544
-0.0315311
-0.0323411
-0.033185
-0.0340615
-0.0349689
-0.0359038
-0.0368689
-0.037863
-0.038885
-0.0399338
-0.0410082
-0.0421069
-0.0432283
-0.0443706
-0.045531
-0.0467074
-0.047895
-0.0490914
-0.0502879
-0.0514832
-0.0526591
-0.0538221
-0.0549316
-0.0560197
-0.0569858
-0.0579448
-0.0586316
-0.0594105
-0.0595629
-0.060166
-0.0593061
-0.0598984
-0.0573129
-0.0582407
-0.0538055
-0.0550762
-0.0505086
-0.000734533
-0.00223845
-0.00376729
-0.00539588
-0.00706067
-0.00877342
-0.0104931
-0.0122043
-0.0138805
-0.015504
-0.017057
-0.0185259
-0.0198998
-0.0211698
-0.0223293
-0.0233756
-0.0243054
-0.025118
-0.0258149
-0.0263985
-0.0268723
-0.027241
-0.0275102
-0.0276861
-0.0277757
-0.0277863
-0.0277261
-0.0276033
-0.0274265
-0.0272044
-0.0269458
-0.0266594
-0.0263537
-0.0260371
-0.0257174
-0.0254021
-0.0250982
-0.0248119
-0.0245489
-0.0243143
-0.0241125
-0.0239473
-0.0238218
-0.0237385
-0.0236994
-0.023706
-0.0237593
-0.0238598
-0.0240078
-0.0242032
-0.0244456
-0.0247339
-0.0250694
-0.0254503
-0.0258752
-0.0263433
-0.0268532
-0.0274041
-0.0279949
-0.0286244
-0.0292916
-0.0299956
-0.0307351
-0.0315093
-0.0323168
-0.0331572
-0.0340285
-0.0349354
-0.0358725
-0.0368384
-0.0378329
-0.0388551
-0.0399042
-0.0409788
-0.0420777
-0.0431993
-0.0443417
-0.0455023
-0.0466787
-0.0478665
-0.0490626
-0.0502581
-0.0514535
-0.0526296
-0.0537931
-0.0549031
-0.0559927
-0.0569596
-0.0579216
-0.0586091
-0.0593934
-0.0595446
-0.0601539
-0.05929
-0.0598894
-0.0573
-0.0582157
-0.0537809
-0.054992
-0.0503167
-0.000548053
-0.00205223
-0.00352404
-0.0052424
-0.00701835
-0.00884633
-0.0106795
-0.0124913
-0.0142553
-0.0159523
-0.0175657
-0.0190826
-0.0204929
-0.0217894
-0.022965
-0.0240203
-0.0249519
-0.0257599
-0.0264463
-0.027014
-0.027467
-0.0278103
-0.0280497
-0.0281918
-0.0282437
-0.0282134
-0.0281091
-0.0279396
-0.0277141
-0.0274419
-0.0271325
-0.0267954
-0.0264399
-0.026075
-0.0257095
-0.0253516
-0.0250086
-0.0246876
-0.0243948
-0.0241356
-0.0239147
-0.0237361
-0.0236031
-0.0235183
-0.0234836
-0.0235006
-0.0235701
-0.0236925
-0.0238678
-0.0240955
-0.024375
-0.0247054
-0.0250854
-0.0255137
-0.0259888
-0.0265092
-0.0270732
-0.0276792
-0.0283254
-0.0290102
-0.0297318
-0.0304887
-0.0312794
-0.0321026
-0.0329569
-0.0338411
-0.0347543
-0.0356956
-0.0366642
-0.0376592
-0.03868
-0.039726
-0.0407967
-0.0418912
-0.0430088
-0.0441485
-0.0453089
-0.0464882
-0.047684
-0.0488929
-0.0501114
-0.0513334
-0.0525537
-0.0537616
-0.0549508
-0.0561021
-0.0572115
-0.0582413
-0.0592029
-0.0600136
-0.0607455
-0.0611867
-0.061656
-0.0614452
-0.0620306
-0.0604454
-0.0635049
-0.0587502
-0.072276
-0.0637729
-0.000571166
-0.00207302
-0.00354515
-0.00525704
-0.00702159
-0.0088401
-0.0106638
-0.0124676
-0.0142245
-0.0159157
-0.0175243
-0.0190373
-0.0204445
-0.0217384
-0.0229135
-0.0239687
-0.0249004
-0.0257091
-0.0263966
-0.0269658
-0.0274207
-0.0277663
-0.0280082
-0.0281532
-0.0282083
-0.0281814
-0.0280808
-0.0279152
-0.0276936
-0.0274256
-0.0271203
-0.0267873
-0.0264359
-0.026075
-0.0257132
-0.0253587
-0.0250189
-0.0247007
-0.0244103
-0.0241531
-0.0239338
-0.0237563
-0.023624
-0.0235394
-0.0235046
-0.0235209
-0.0235893
-0.0237102
-0.0238835
-0.0241089
-0.0243858
-0.0247131
-0.0250899
-0.0255147
-0.0259861
-0.0265027
-0.0270627
-0.0276647
-0.0283069
-0.0289877
-0.0297055
-0.0304587
-0.031246
-0.0320659
-0.0329173
-0.033799
-0.0347099
-0.0356492
-0.0366161
-0.0376097
-0.0386293
-0.0396744
-0.0407442
-0.041838
-0.0429551
-0.0440942
-0.0452542
-0.046433
-0.0476283
-0.0488368
-0.0500549
-0.0512763
-0.0524961
-0.0537031
-0.0548919
-0.0560416
-0.0571507
-0.058177
-0.0591386
-0.05994
-0.0606738
-0.0610886
-0.0615677
-0.0612871
-0.0618967
-0.0601443
-0.0631629
-0.0581639
-0.0708015
-0.0635826
-0.000592683
-0.00208831
-0.0035649
-0.00526816
-0.0070223
-0.00883131
-0.0106457
-0.0124414
-0.0141914
-0.0158769
-0.0174809
-0.0189905
-0.0203953
-0.021688
-0.0228619
-0.0239164
-0.0248482
-0.0256577
-0.0263466
-0.0269175
-0.0273746
-0.0277228
-0.0279677
-0.0281158
-0.0281744
-0.0281511
-0.0280544
-0.0278927
-0.0276753
-0.0274112
-0.02711
-0.0267809
-0.0264333
-0.0260759
-0.0257174
-0.0253658
-0.0250286
-0.0247126
-0.024424
-0.0241681
-0.0239497
-0.0237726
-0.0236403
-0.0235552
-0.0235195
-0.0235345
-0.0236011
-0.0237198
-0.0238906
-0.0241131
-0.0243869
-0.0247109
-0.0250841
-0.0255053
-0.0259729
-0.0264856
-0.0270417
-0.0276398
-0.0282781
-0.0289551
-0.0296691
-0.0304187
-0.0312025
-0.0320191
-0.0328672
-0.0337457
-0.0346537
-0.0355901
-0.0365544
-0.0375453
-0.0385625
-0.0396052
-0.0406728
-0.0417644
-0.0428793
-0.0440163
-0.0451741
-0.0463506
-0.0475438
-0.0487501
-0.049966
-0.0511851
-0.052403
-0.053608
-0.0547955
-0.0559436
-0.0570529
-0.0580776
-0.0590425
-0.0598407
-0.060584
-0.0609859
-0.0614871
-0.0611584
-0.0618073
-0.0599154
-0.0628763
-0.0576838
-0.0691079
-0.06343
-0.000611876
-0.0021031
-0.00358431
-0.0052794
-0.00702391
-0.00882379
-0.0106292
-0.0124172
-0.0141605
-0.0158405
-0.01744
-0.0189461
-0.0203484
-0.0216397
-0.0228125
-0.0238663
-0.0247983
-0.0256084
-0.0262984
-0.026871
-0.0273301
-0.0276806
-0.0279282
-0.0280793
-0.028141
-0.0281212
-0.028028
-0.02787
-0.0276564
-0.0273961
-0.0270987
-0.0267734
-0.0264292
-0.0260753
-0.0257199
-0.0253712
-0.0250366
-0.0247228
-0.0244359
-0.0241815
-0.023964
-0.0237875
-0.0236553
-0.0235699
-0.0235334
-0.0235473
-0.0236124
-0.0237292
-0.0238978
-0.0241179
-0.0243889
-0.02471
-0.02508
-0.0254977
-0.0259619
-0.026471
-0.0270235
-0.0276179
-0.0282526
-0.0289259
-0.0296364
-0.0303826
-0.0311629
-0.0319763
-0.0328213
-0.0336968
-0.034602
-0.0355357
-0.0364974
-0.037486
-0.0385009
-0.0395414
-0.0406068
-0.0416964
-0.0428092
-0.0439441
-0.0450998
-0.0462742
-0.0474652
-0.0486691
-0.0498826
-0.0510992
-0.0523147
-0.053517
-0.0547023
-0.0558476
-0.0569556
-0.057977
-0.0589429
-0.0597351
-0.0604845
-0.0608701
-0.0613888
-0.0610104
-0.0616872
-0.0596733
-0.0625524
-0.0572621
-0.0675393
-0.063068
-0.000628832
-0.00211751
-0.00360295
-0.00529051
-0.00702591
-0.00881696
-0.0106137
-0.0123941
-0.0141309
-0.0158054
-0.0174005
-0.0189032
-0.020303
-0.0215932
-0.0227643
-0.0238177
-0.0247498
-0.0255606
-0.0262518
-0.0268259
-0.0272869
-0.0276396
-0.0278897
-0.0280436
-0.0281085
-0.0280919
-0.0280021
-0.0278477
-0.0276377
-0.0273812
-0.0270875
-0.0267657
-0.0264251
-0.0260745
-0.0257223
-0.0253764
-0.0250443
-0.0247327
-0.0244477
-0.0241946
-0.0239782
-0.0238023
-0.0236703
-0.0235847
-0.0235476
-0.0235604
-0.0236241
-0.0237392
-0.0239057
-0.0241234
-0.0243917
-0.0247098
-0.0250766
-0.0254911
-0.0259517
-0.0264572
-0.027006
-0.0275967
-0.0282276
-0.0288972
-0.029604
-0.0303466
-0.0311235
-0.0319335
-0.0327753
-0.0336478
-0.0345501
-0.0354812
-0.0364404
-0.0374266
-0.0384393
-0.0394777
-0.0405411
-0.0416288
-0.0427397
-0.0438728
-0.0450266
-0.046199
-0.047388
-0.0485898
-0.0498012
-0.0510155
-0.0522288
-0.0534286
-0.0546119
-0.0557543
-0.0568611
-0.0578787
-0.058845
-0.0596299
-0.0603842
-0.0607509
-0.0612844
-0.0608543
-0.0615525
-0.0594259
-0.0622042
-0.0568743
-0.0660716
-0.062544
-0.000643835
-0.00213109
-0.00362059
-0.00530102
-0.00702783
-0.0088103
-0.0105987
-0.0123717
-0.0141021
-0.0157713
-0.0173621
-0.0188614
-0.0202586
-0.0215462
-0.0227175
-0.0237703
-0.0247026
-0.0255141
-0.0262063
-0.026782
-0.0272449
-0.0275998
-0.0278524
-0.0280091
-0.0280769
-0.0280635
-0.0279771
-0.0278263
-0.0276198
-0.0273669
-0.0270768
-0.0267586
-0.0264215
-0.0260741
-0.0257249
-0.0253818
-0.0250521
-0.0247426
-0.0244594
-0.0242077
-0.0239922
-0.0238169
-0.023685
-0.0235992
-0.0235614
-0.0235732
-0.0236355
-0.0237488
-0.0239132
-0.0241285
-0.0243941
-0.0247093
-0.0250729
-0.025484
-0.0259411
-0.0264429
-0.026988
-0.0275749
-0.0282021
-0.0288679
-0.029571
-0.0303099
-0.0310833
-0.0318899
-0.0327286
-0.033598
-0.0344974
-0.0354257
-0.0363823
-0.0373662
-0.0383766
-0.0394129
-0.0404743
-0.0415599
-0.042669
-0.0438001
-0.044952
-0.0461225
-0.0473095
-0.0485092
-0.0497185
-0.0509306
-0.0521418
-0.0533392
-0.0545207
-0.0556605
-0.0567661
-0.0577801
-0.0587472
-0.0595249
-0.0602845
-0.0606322
-0.0611805
-0.0606997
-0.0614166
-0.0591881
-0.061849
-0.056518
-0.0646738
-0.0618924
-0.000657106
-0.00214371
-0.00363716
-0.00531081
-0.00702954
-0.00880376
-0.010584
-0.0123499
-0.0140741
-0.0157382
-0.0173248
-0.0188208
-0.0202156
-0.0214995
-0.022672
-0.0237243
-0.0246568
-0.0254689
-0.0261623
-0.0267394
-0.0272042
-0.0275612
-0.0278163
-0.0279757
-0.0280465
-0.0280362
-0.0279531
-0.0278057
-0.0276028
-0.0273534
-0.0270668
-0.0267521
-0.0264183
-0.0260741
-0.0257278
-0.0253874
-0.0250601
-0.0247527
-0.0244711
-0.0242207
-0.0240062
-0.0238314
-0.0236996
-0.0236135
-0.023575
-0.0235857
-0.0236465
-0.023758
-0.0239203
-0.0241331
-0.024396
-0.0247082
-0.0250687
-0.0254764
-0.02593
-0.0264282
-0.0269696
-0.0275528
-0.0281761
-0.0288382
-0.0295376
-0.0302729
-0.0310427
-0.0318459
-0.0326814
-0.0335477
-0.0344442
-0.0353697
-0.0363238
-0.0373052
-0.0383133
-0.0393474
-0.0404067
-0.0414904
-0.0425975
-0.0437267
-0.0448767
-0.0460453
-0.0472303
-0.0484279
-0.0496352
-0.0508451
-0.0520543
-0.0532494
-0.0544292
-0.0555664
-0.0566711
-0.0576816
-0.0586499
-0.0594207
-0.0601863
-0.0605156
-0.0610796
-0.0605507
-0.0612845
-0.0589667
-0.0614979
-0.0561966
-0.0633538
-0.061126
-0.000668807
-0.00215539
-0.00365256
-0.00531982
-0.00703094
-0.0087972
-0.0105697
-0.0123286
-0.0140469
-0.0157059
-0.0172885
-0.0187814
-0.0201739
-0.0214576
-0.0226279
-0.0236797
-0.0246123
-0.0254251
-0.0261195
-0.0266981
-0.0271647
-0.0275239
-0.0277814
-0.0279435
-0.0280171
-0.02801
-0.0279302
-0.0277862
-0.0275867
-0.0273409
-0.0270577
-0.0267464
-0.0264159
-0.0260747
-0.0257314
-0.0253936
-0.0250686
-0.0247632
-0.0244832
-0.0242341
-0.0240204
-0.023846
-0.0237143
-0.0236278
-0.0235886
-0.0235982
-0.0236575
-0.0237671
-0.0239272
-0.0241376
-0.0243977
-0.0247069
-0.0250642
-0.0254685
-0.0259185
-0.0264131
-0.0269508
-0.0275302
-0.0281498
-0.0288082
-0.0295039
-0.0302356
-0.031002
-0.0318018
-0.0326341
-0.0334972
-0.0343907
-0.0353135
-0.036265
-0.0372439
-0.0382498
-0.0392817
-0.040339
-0.0414206
-0.0425258
-0.0436531
-0.0448012
-0.0459678
-0.0471508
-0.0483465
-0.0495517
-0.0507595
-0.0519667
-0.0531596
-0.0543377
-0.0554724
-0.0565765
-0.0575837
-0.0585535
-0.0593176
-0.0600899
-0.0604013
-0.0609825
-0.0604075
-0.0611596
-0.0587618
-0.061161
-0.0559106
-0.0621323
-0.0603089
-0.000679094
-0.00216611
-0.00366678
-0.005328
-0.00703197
-0.0087906
-0.0105556
-0.0123079
-0.0140203
-0.0156745
-0.0172531
-0.0187429
-0.0201332
-0.0214157
-0.0225848
-0.0236362
-0.024569
-0.0253824
-0.0260779
-0.026658
-0.0271264
-0.0274877
-0.0277476
-0.0279123
-0.0279888
-0.0279847
-0.0279081
-0.0277674
-0.0275713
-0.0273288
-0.0270491
-0.0267411
-0.0264137
-0.0260756
-0.025735
-0.0253997
-0.025077
-0.0247734
-0.0244951
-0.0242471
-0.0240342
-0.0238602
-0.0237285
-0.0236416
-0.0236016
-0.0236101
-0.0236679
-0.0237757
-0.0239336
-0.0241415
-0.0243988
-0.024705
-0.025059
-0.0254599
-0.0259064
-0.0263973
-0.0269312
-0.0275068
-0.0281226
-0.0287772
-0.0294693
-0.0301974
-0.0309604
-0.0317569
-0.0325862
-0.0334463
-0.0343369
-0.0352568
-0.0362054
-0.0371817
-0.038185
-0.0392144
-0.0402693
-0.0413488
-0.0424517
-0.0435769
-0.0447229
-0.0458874
-0.0470684
-0.0482619
-0.049465
-0.0506705
-0.0518757
-0.0530662
-0.0542426
-0.0553746
-0.0564779
-0.0574815
-0.0584528
-0.0592095
-0.0599886
-0.0602811
-0.0608785
-0.0602569
-0.0610253
-0.0585528
-0.0608142
-0.0556302
-0.0609745
-0.0595022
-0.000688197
-0.00217608
-0.00368025
-0.00533597
-0.00703357
-0.00878517
-0.0105433
-0.0122894
-0.0139964
-0.0156461
-0.0172209
-0.0187076
-0.0200951
-0.0213747
-0.0225449
-0.0235963
-0.0245294
-0.0253434
-0.0260399
-0.0266211
-0.027091
-0.0274541
-0.0277159
-0.0278828
-0.0279616
-0.0279601
-0.027886
-0.027748
-0.0275547
-0.0273151
-0.0270382
-0.026733
-0.0264083
-0.0260727
-0.0257345
-0.0254014
-0.0250806
-0.0247787
-0.0245017
-0.0242548
-0.0240426
-0.0238691
-0.0237374
-0.0236503
-0.0236097
-0.0236173
-0.0236739
-0.0237802
-0.0239364
-0.0241422
-0.0243973
-0.0247009
-0.0250521
-0.02545
-0.0258933
-0.0263808
-0.0269111
-0.0274829
-0.0280948
-0.0287454
-0.0294334
-0.0301573
-0.0309161
-0.0317084
-0.0325338
-0.0333901
-0.0342773
-0.0351942
-0.0361401
-0.037114
-0.038115
-0.0391424
-0.0401953
-0.0412729
-0.042374
-0.0434974
-0.0446415
-0.0458041
-0.0469831
-0.0481745
-0.0493756
-0.0505789
-0.0517819
-0.0529698
-0.0541443
-0.0552733
-0.0563752
-0.0573743
-0.0583461
-0.0590941
-0.0598782
-0.0601503
-0.060758
-0.0600927
-0.0608539
-0.0583346
-0.0604011
-0.0553143
-0.0597365
-0.0581631
0.0442195
0.0508862
0.0515888
0.0540359
0.0537043
0.0531047
0.0506778
0.0470935
0.0417117
0.0345566
0.0251221
0.013197
-0.00206299
-0.0207404
-0.0446283
-0.0726893
-0.110388
-0.140176
-0.163898
-0.182823
0.0422956
0.0487834
0.0493814
0.0517015
0.0512445
0.0505212
0.0479613
0.0442459
0.0387298
0.0314468
0.0218959
0.00986641
-0.00546988
-0.0242434
-0.0481982
-0.0760789
-0.113261
-0.137068
-0.161217
-0.168857
0.0404723
0.0467138
0.0472542
0.0494199
0.0488487
0.0479833
0.045278
0.0414032
0.0357165
0.0282515
0.0185136
0.00628449
-0.00923017
-0.0281704
-0.0520851
-0.0792753
-0.114268
-0.131025
-0.155553
-0.157325
0.03871
0.0446796
0.0451731
0.0471764
0.0464997
0.0454934
0.0426513
0.0386248
0.0327803
0.0251497
0.0152492
0.00285594
-0.0127846
-0.0318013
-0.0555358
-0.0819521
-0.114677
-0.126781
-0.151481
-0.14683
0.0369952
0.0426809
0.0431274
0.0449648
0.0441888
0.0430458
0.0400778
0.0359131
0.0299319
0.0221651
0.0121443
-0.000351917
-0.0160352
-0.0350071
-0.0584087
-0.0839898
-0.114397
-0.123864
-0.147563
-0.136515
0.0353301
0.0407158
0.0411196
0.0427855
0.0419163
0.0406381
0.0375524
0.0332579
0.0271542
0.019271
0.00915941
-0.0033956
-0.0190592
-0.0378911
-0.06082
-0.0854808
-0.113424
-0.121608
-0.143102
-0.126616
0.0337177
0.0387812
0.0391523
0.0406391
0.0396841
0.0382705
0.0350741
0.0306553
0.0244401
0.0164551
0.0062757
-0.00630289
-0.0218941
-0.0405057
-0.0628379
-0.0865137
-0.112005
-0.119911
-0.138112
-0.117218
0.0321588
0.0368738
0.037226
0.0385252
0.037493
0.0359436
0.0326439
0.0281066
0.021791
0.0137192
0.00349603
-0.0090707
-0.0245381
-0.0428541
-0.0644704
-0.0871021
-0.110461
-0.118898
-0.132669
-0.108168
0.0306531
0.0349899
0.0353406
0.0364426
0.0353432
0.0336572
0.0302628
0.0256128
0.0192094
0.011068
0.000830912
-0.0116748
-0.0269378
-0.0448425
-0.0656367
-0.0873724
-0.109569
-0.119228
-0.12739
-0.0990457
0.0292002
0.0331259
0.0334969
0.0343921
0.0332381
0.0314165
0.0279384
0.0231843
0.0167079
0.00851241
-0.00172482
-0.014179
-0.0293115
-0.0469894
-0.0671993
-0.0880317
-0.108585
-0.118249
-0.12226
-0.0899773
0.0705685
0.0788166
0.0807262
0.0845172
0.085612
0.0864011
0.0855005
0.0834468
0.079678
0.0741445
0.0662963
0.0559018
0.0417435
0.0240106
-0.00113607
-0.0307552
-0.0769363
-0.131568
-0.199965
-0.25246
0.0676377
0.0757036
0.077516
0.0811507
0.0821081
0.0827475
0.081691
0.0794744
0.0755361
0.0698283
0.061807
0.0512365
0.0369326
0.0190262
-0.00615951
-0.0361336
-0.0819184
-0.137402
-0.199711
-0.250398
0.0647842
0.0726789
0.0743961
0.0778816
0.0786933
0.0791722
0.0779368
0.0755257
0.0713706
0.0654226
0.0571367
0.0462641
0.0316467
0.013344
-0.0121261
-0.0426039
-0.0875596
-0.141263
-0.193267
-0.242236
0.0619933
0.069718
0.0713368
0.074676
0.0753415
0.0756609
0.074247
0.0716424
0.0672712
0.0610841
0.0525353
0.0413639
0.0264426
0.00776683
-0.0179144
-0.0487205
-0.0925732
-0.144092
-0.187265
-0.235552
0.0592584
0.0668129
0.0683273
0.0715221
0.072044
0.0722107
0.0706283
0.0678453
0.063279
0.0568824
0.0481118
0.0367
0.0215571
0.00263546
-0.0230648
-0.0538897
-0.0963972
-0.145551
-0.181772
-0.228576
0.0565795
0.0639659
0.0653695
0.0684232
0.0688033
0.0688238
0.0670824
0.0641351
0.0593933
0.0528145
0.0438594
0.0322606
0.0169704
-0.00208117
-0.0276318
-0.0581926
-0.0991516
-0.14538
-0.175966
-0.220197
0.0539578
0.061181
0.0624667
0.0653836
0.0656224
0.0655028
0.0636093
0.060509
0.0556065
0.0488663
0.0397548
0.0280091
0.0126273
-0.00646564
-0.0317379
-0.0617987
-0.101082
-0.143661
-0.169831
-0.210746
0.0513933
0.0584603
0.0596195
0.0624054
0.0625024
0.062249
0.0602095
0.0569665
0.0519166
0.0450338
0.035791
0.0239344
0.00851161
-0.0105402
-0.0354116
-0.0647431
-0.102326
-0.140609
-0.163436
-0.200814
0.0488853
0.0558055
0.0568265
0.0594887
0.0594427
0.0590626
0.0568834
0.053509
0.0483259
0.0413207
0.0319733
0.0200426
0.00462575
-0.0143204
-0.0387234
-0.0671853
-0.103138
-0.13617
-0.155816
-0.18988
0.0464337
0.0532182
0.054087
0.056634
0.0564425
0.0559431
0.0536298
0.0501347
0.0448315
0.037723
0.0282972
0.0163335
0.000989555
-0.017711
-0.0413837
-0.0684417
-0.102598
-0.130221
-0.148786
-0.175321
0.102844
0.113217
0.115983
0.121539
0.124125
0.126566
0.127503
0.127503
0.125982
0.122938
0.117857
0.110588
0.0999241
0.0864491
0.0655867
0.0432479
-0.000945717
-0.0359813
-0.145985
-0.202811
0.0994202
0.109503
0.112228
0.117563
0.120016
0.122271
0.123021
0.122799
0.121038
0.117723
0.112335
0.104712
0.0936155
0.0796127
0.058038
0.0346752
-0.0107952
-0.0487869
-0.15387
-0.20639
0.096019
0.105899
0.108537
0.113692
0.115972
0.118059
0.118591
0.118116
0.116065
0.112413
0.106626
0.0985255
0.0868344
0.0720889
0.049552
0.0248498
-0.0218282
-0.0616351
-0.156965
-0.200612
0.0926624
0.102348
0.104891
0.109873
0.111981
0.113896
0.11421
0.113484
0.111144
0.107159
0.100975
0.0924043
0.0801357
0.0646685
0.04125
0.0152934
-0.0322079
-0.0738974
-0.161812
-0.202437
0.0893568
0.0988366
0.101288
0.106095
0.108042
0.109781
0.10989
0.108931
0.106326
0.102039
0.0955054
0.086525
0.0737688
0.0577001
0.0335972
0.00663082
-0.0413153
-0.0849898
-0.167669
-0.207177
0.0861015
0.0953695
0.0977321
0.102363
0.104157
0.105724
0.10564
0.104464
0.101617
0.0970583
0.0902174
0.0808846
0.0677228
0.0511624
0.0265459
-0.00121598
-0.0493023
-0.0947377
-0.172863
-0.211329
0.0828956
0.0919531
0.0942267
0.0986851
0.10033
0.10173
0.101462
0.100082
0.0970117
0.0922051
0.085089
0.0754475
0.0619442
0.0449759
0.0199806
-0.00840975
-0.056363
-0.103195
-0.176956
-0.214577
0.0797391
0.0885898
0.090774
0.0950625
0.0965624
0.0978002
0.0973575
0.0957856
0.0925076
0.0874748
0.0801134
0.0702023
0.0564163
0.0391144
0.0138672
-0.0149947
-0.0625384
-0.110433
-0.180109
-0.21699
0.0766325
0.0852801
0.087375
0.0914961
0.0928557
0.0939364
0.0933275
0.0915761
0.0881074
0.082871
0.0752959
0.0651563
0.0511496
0.0335899
0.00821833
-0.0209769
-0.0679037
-0.11671
-0.182247
-0.217401
0.0735759
0.0820251
0.0840314
0.087988
0.0892126
0.0901423
0.0893779
0.0874609
0.0838208
0.0784059
0.0706517
0.0603282
0.0461684
0.0284363
0.0030908
-0.0262046
-0.0720507
-0.121134
-0.182767
-0.218385
0.134849
0.147789
0.151254
0.158725
0.162799
0.167641
0.17086
0.173541
0.175044
0.175461
0.17443
0.171896
0.16735
0.161281
0.152299
0.144915
0.132576
0.140172
0.125689
0.223905
0.130631
0.143801
0.146768
0.154155
0.157802
0.16221
0.164861
0.166903
0.167632
0.167148
0.165053
0.161296
0.155292
0.147602
0.136447
0.126898
0.110172
0.115427
0.0892802
0.191693
0.127159
0.140191
0.142968
0.15021
0.15365
0.157797
0.160179
0.161936
0.162348
0.161522
0.159039
0.154845
0.14825
0.139838
0.127274
0.115978
0.0944375
0.0954847
0.0543753
0.156954
0.1241
0.136799
0.139571
0.146637
0.149951
0.153915
0.15612
0.157684
0.157878
0.156808
0.154031
0.149473
0.142337
0.133195
0.119226
0.106042
0.0800713
0.0762913
0.0238297
0.122792
0.121078
0.133438
0.136217
0.143097
0.14628
0.150056
0.152065
0.153399
0.153326
0.15194
0.148773
0.143733
0.135922
0.125915
0.110474
0.0954272
0.0654851
0.0571478
-0.00431208
0.0876855
0.118017
0.130065
0.132826
0.139513
0.142558
0.146126
0.147921
0.149003
0.148635
0.146904
0.143318
0.137774
0.129285
0.118448
0.101649
0.0849341
0.0514183
0.0386301
-0.0316405
0.0509276
0.11496
0.126703
0.12944
0.135925
0.138841
0.142192
0.143783
0.144618
0.143973
0.14192
0.137952
0.131957
0.122876
0.111323
0.093351
0.0751679
0.0384663
0.0211548
-0.0580991
0.0124474
0.111939
0.123367
0.126089
0.132365
0.13517
0.138302
0.139706
0.140312
0.139414
0.137073
0.132768
0.126381