/*--------------------------------*- C++ -*----------------------------------*\
  =========                 |
  \\      /  F ield         | OpenFOAM: The Open Source CFD Toolbox
   \\    /   O peration     | Website:  https://openfoam.org
    \\  /    A nd           | Version:  7
     \\/     M anipulation  |
\*---------------------------------------------------------------------------*/
FoamFile
{
    version     2.0;
    format      ascii;
    class       volScalarField;
    location    "88";
    object      p;
}
// * * * * * * * * * * * * * * * * * * * * * * * * * * * * * * * * * * * * * //

dimensions      [0 2 -2 0 0 0 0];

internalField   nonuniform List<scalar> 
8000
(
-0.000620269
-0.00211529
-0.00360018
-0.00520813
-0.00684185
-0.00846715
-0.0100585
-0.0115934
-0.013056
-0.0144351
-0.0157208
-0.0169124
-0.0180049
-0.0189989
-0.0198954
-0.0206971
-0.0214075
-0.0220311
-0.0225729
-0.0230387
-0.0234344
-0.0237664
-0.024041
-0.0242652
-0.0244457
-0.0245894
-0.0247031
-0.0247936
-0.0248674
-0.0249308
-0.0249897
-0.0250497
-0.025116
-0.0251931
-0.0252854
-0.0253964
-0.0255295
-0.0256875
-0.0258727
-0.0260871
-0.0263324
-0.0266099
-0.0269206
-0.0272654
-0.0276447
-0.028059
-0.0285084
-0.028993
-0.0295129
-0.0300678
-0.0306576
-0.0312821
-0.0319409
-0.0326337
-0.0333602
-0.0341201
-0.0349131
-0.0357389
-0.0365971
-0.0374874
-0.0384097
-0.0393636
-0.0403491
-0.0413656
-0.0424132
-0.0434917
-0.0446008
-0.0457404
-0.0469098
-0.0481089
-0.0493371
-0.0505937
-0.051878
-0.0531889
-0.0545249
-0.0558844
-0.0572652
-0.0586645
-0.0600792
-0.0615051
-0.0629374
-0.0643701
-0.065796
-0.0672065
-0.0685913
-0.069938
-0.071232
-0.0724562
-0.0735905
-0.07461
-0.075494
-0.0762018
-0.0767438
-0.0769957
-0.0772557
-0.0767552
-0.0779581
-0.075887
-0.0834094
-0.0797935
-0.000651525
-0.00213513
-0.00361975
-0.00521155
-0.00682683
-0.0084357
-0.0100128
-0.011536
-0.0129893
-0.0143611
-0.0156426
-0.0168325
-0.0179243
-0.0189186
-0.0198163
-0.0206198
-0.0213328
-0.0219594
-0.0225048
-0.0229744
-0.0233742
-0.0237104
-0.0239896
-0.0242184
-0.0244036
-0.024552
-0.0246704
-0.0247654
-0.0248437
-0.0249113
-0.0249742
-0.0250379
-0.0251075
-0.0251876
-0.0252824
-0.0253956
-0.0255304
-0.0256896
-0.0258756
-0.0260904
-0.0263356
-0.0266127
-0.0269225
-0.027266
-0.0276437
-0.028056
-0.0285031
-0.0289852
-0.0295022
-0.030054
-0.0306404
-0.0312613
-0.0319163
-0.0326051
-0.0333275
-0.0340832
-0.0348718
-0.0356931
-0.0365468
-0.0374326
-0.0383503
-0.0392996
-0.0402804
-0.041293
-0.0423368
-0.0434115
-0.0445166
-0.045652
-0.0468178
-0.0480135
-0.0492385
-0.0504918
-0.0517727
-0.0530803
-0.054413
-0.0557693
-0.0571468
-0.0585431
-0.0599546
-0.0613775
-0.0628069
-0.0642367
-0.0656598
-0.0670674
-0.0684493
-0.0697927
-0.0710829
-0.0723019
-0.0734295
-0.0744385
-0.075308
-0.07599
-0.0764988
-0.0766914
-0.0768896
-0.0762677
-0.0771992
-0.0749901
-0.0807389
-0.0781995
-0.000675203
-0.00215013
-0.00363647
-0.00521321
-0.00681221
-0.00840606
-0.00997001
-0.0114826
-0.0129278
-0.014294
-0.0155718
-0.0167585
-0.0178487
-0.0188427
-0.0197412
-0.0205464
-0.0212617
-0.0218911
-0.0224398
-0.022913
-0.0233167
-0.0236571
-0.0239405
-0.0241737
-0.0243633
-0.0245161
-0.0246389
-0.0247382
-0.0248205
-0.0248919
-0.0249584
-0.0250253
-0.0250977
-0.0251803
-0.0252771
-0.025392
-0.025528
-0.025688
-0.0258745
-0.0260894
-0.0263344
-0.0266108
-0.0269198
-0.0272621
-0.0276383
-0.028049
-0.0284943
-0.0289743
-0.0294891
-0.0300386
-0.0306226
-0.0312409
-0.0318934
-0.0325796
-0.0332994
-0.0340524
-0.0348383
-0.035657
-0.036508
-0.0373912
-0.0383063
-0.0392533
-0.0402321
-0.0412405
-0.0422798
-0.0433505
-0.0444524
-0.0455849
-0.0467468
-0.0479371
-0.0491567
-0.0504052
-0.051681
-0.0529832
-0.0543107
-0.0556615
-0.0570336
-0.0584242
-0.0598301
-0.0612471
-0.0626705
-0.0640942
-0.0655111
-0.0669124
-0.0682877
-0.0696244
-0.0709074
-0.0721185
-0.0732375
-0.0742355
-0.0750925
-0.0757541
-0.0762395
-0.0763811
-0.0765155
-0.0757812
-0.0764396
-0.0741461
-0.0783943
-0.0764867
-0.000692638
-0.00216343
-0.00365095
-0.00521487
-0.00679948
-0.00837965
-0.00993148
-0.0114341
-0.0128715
-0.0142325
-0.015506
-0.0166901
-0.0177792
-0.0187731
-0.0196724
-0.0204791
-0.0211965
-0.0218286
-0.0223802
-0.0228568
-0.023264
-0.0236082
-0.0238955
-0.0241327
-0.0243264
-0.0244833
-0.02461
-0.0247132
-0.0247992
-0.0248741
-0.0249437
-0.0250136
-0.0250886
-0.0251734
-0.0252721
-0.0253884
-0.0255256
-0.0256864
-0.0258733
-0.0260882
-0.026333
-0.0266089
-0.026917
-0.0272582
-0.0276331
-0.0280421
-0.0284855
-0.0289634
-0.029476
-0.030023
-0.0306044
-0.0312199
-0.0318694
-0.0325525
-0.033269
-0.0340186
-0.0348009
-0.0356158
-0.0364628
-0.0373417
-0.0382523
-0.0391939
-0.0401657
-0.0411729
-0.0422111
-0.0432784
-0.0443748
-0.0455003
-0.0466569
-0.0478461
-0.0490636
-0.0503077
-0.0515799
-0.0528786
-0.0542023
-0.0555491
-0.0569169
-0.0583031
-0.0597044
-0.0611167
-0.0625352
-0.0639538
-0.0653653
-0.066761
-0.0681303
-0.0694604
-0.0707361
-0.0719387
-0.0730476
-0.0740325
-0.0748736
-0.0755107
-0.0759674
-0.0760554
-0.0761165
-0.0752754
-0.0756567
-0.0733241
-0.0763565
-0.0746848
-0.000705313
-0.00217436
-0.00366261
-0.00521565
-0.00678768
-0.00835561
-0.00989648
-0.01139
-0.0128202
-0.0141747
-0.0154462
-0.0166279
-0.017716
-0.0187098
-0.0196098
-0.0204179
-0.0211373
-0.0217718
-0.0223262
-0.0228058
-0.0232164
-0.023564
-0.0238549
-0.0240958
-0.0242931
-0.0244536
-0.024584
-0.0246906
-0.0247799
-0.0248579
-0.0249304
-0.0250028
-0.0250801
-0.0251668
-0.0252671
-0.0253847
-0.0255228
-0.0256841
-0.0258712
-0.0260861
-0.0263304
-0.0266056
-0.0269127
-0.0272525
-0.0276259
-0.0280331
-0.0284745
-0.0289503
-0.0294604
-0.0300049
-0.0305835
-0.0311962
-0.0318427
-0.0325228
-0.0332362
-0.0339826
-0.0347619
-0.0355738
-0.0364181
-0.0372945
-0.0382028
-0.0391435
-0.0401196
-0.0411162
-0.0421455
-0.0432082
-0.0443042
-0.0454325
-0.0465884
-0.0477663
-0.0489756
-0.0502173
-0.0514838
-0.0527764
-0.0540946
-0.0554361
-0.0567988
-0.0581799
-0.0595762
-0.0609835
-0.062397
-0.0638106
-0.0652172
-0.0666077
-0.0679718
-0.0692963
-0.0705662
-0.0717618
-0.0728627
-0.0738367
-0.0746641
-0.0752789
-0.0757076
-0.0757458
-0.0757365
-0.0748028
-0.0749212
-0.0725555
-0.0746082
-0.0729365
-0.000714359
-0.0021828
-0.00367139
-0.00521532
-0.0067766
-0.0083339
-0.00986518
-0.0113506
-0.0127745
-0.0141242
-0.015393
-0.0165725
-0.0176596
-0.0186534
-0.0195541
-0.0203635
-0.0210846
-0.0217213
-0.0222782
-0.0227606
-0.0231742
-0.0235249
-0.023819
-0.0240631
-0.0242637
-0.0244275
-0.024561
-0.0246707
-0.0247628
-0.0248435
-0.0249185
-0.024993
-0.0250722
-0.0251605
-0.025262
-0.0253805
-0.0255192
-0.0256809
-0.0258679
-0.0260824
-0.0263261
-0.0266004
-0.0269063
-0.0272448
-0.0276165
-0.0280219
-0.0284612
-0.0289347
-0.0294424
-0.0299843
-0.0305603
-0.0311701
-0.0318136
-0.0324904
-0.0332004
-0.0339433
-0.0347187
-0.0355262
-0.0363656
-0.0372367
-0.0381395
-0.0390733
-0.0400325
-0.0410339
-0.0420646
-0.0431236
-0.0442111
-0.0453271
-0.0464759
-0.0476623
-0.0488737
-0.0501041
-0.051369
-0.0526605
-0.0539761
-0.0553144
-0.0566735
-0.0580509
-0.0594433
-0.0608466
-0.062256
-0.0636655
-0.0650679
-0.0664544
-0.0678143
-0.0691346
-0.0704
-0.0715906
-0.0726858
-0.073652
-0.0744698
-0.0750679
-0.0754752
-0.075474
-0.075405
-0.0743985
-0.0742839
-0.0718865
-0.0731567
-0.0712878
-0.000720592
-0.00218887
-0.00367737
-0.00521381
-0.00676616
-0.00831453
-0.0098377
-0.0113164
-0.0127351
-0.0140816
-0.0153469
-0.0165245
-0.0176108
-0.0186045
-0.0195058
-0.0203164
-0.0210391
-0.0216777
-0.0222369
-0.0227217
-0.0231378
-0.0234913
-0.0237882
-0.0240351
-0.0242386
-0.0244051
-0.0245413
-0.0246536
-0.0247481
-0.024831
-0.024908
-0.0249842
-0.0250649
-0.0251544
-0.0252568
-0.0253759
-0.0255149
-0.0256765
-0.0258633
-0.0260772
-0.0263201
-0.0265933
-0.0268979
-0.0272348
-0.0276047
-0.0280082
-0.0284454
-0.0289167
-0.029422
-0.0299613
-0.0305346
-0.0311418
-0.0317825
-0.0324566
-0.033164
-0.0339042
-0.0346773
-0.0354831
-0.0363214
-0.0371916
-0.0380932
-0.0390222
-0.0399884
-0.040981
-0.0420043
-0.0430596
-0.0441465
-0.0452643
-0.0464103
-0.0475819
-0.0487864
-0.0500295
-0.0512833
-0.052565
-0.0538732
-0.0552053
-0.0565586
-0.0579305
-0.0593176
-0.0607158
-0.0621204
-0.0635253
-0.0649233
-0.0663056
-0.0676616
-0.0689783
-0.0702405
-0.0714279
-0.0725201
-0.0734822
-0.0742956
-0.0748843
-0.0752801
-0.0752533
-0.0751407
-0.0740837
-0.0737791
-0.0713495
-0.0720094
-0.0697905
-0.00072459
-0.00219266
-0.00368063
-0.00521109
-0.0067563
-0.00829743
-0.00981392
-0.0112868
-0.0127005
-0.0140433
-0.0153074
-0.0164839
-0.0175698
-0.0185636
-0.0194655
-0.0202772
-0.0210013
-0.0216416
-0.0222027
-0.0226896
-0.0231079
-0.0234636
-0.0237629
-0.0240122
-0.024218
-0.0243868
-0.0245252
-0.0246395
-0.024736
-0.0248206
-0.024899
-0.0249766
-0.0250583
-0.0251486
-0.0252515
-0.0253709
-0.0255098
-0.0256712
-0.0258574
-0.0260706
-0.0263124
-0.0265844
-0.0268875
-0.0272227
-0.0275908
-0.0279921
-0.028427
-0.0288957
-0.0293983
-0.0299347
-0.0305048
-0.0311086
-0.0317457
-0.0324159
-0.0331189
-0.0338544
-0.0346221
-0.0354215
-0.0362523
-0.0371157
-0.0380096
-0.0389406
-0.0398988
-0.0408892
-0.0419103
-0.042961
-0.0440412
-0.0451509
-0.046291
-0.0474617
-0.0486582
-0.0498774
-0.0511385
-0.052423
-0.0537312
-0.0550618
-0.0564132
-0.0577829
-0.0591677
-0.0605638
-0.0619663
-0.0633694
-0.0647659
-0.0661472
-0.0675027
-0.0688195
-0.0700825
-0.0712712
-0.0723658
-0.0733301
-0.0741466
-0.0747356
-0.0751321
-0.0750954
-0.074962
-0.073879
-0.0734397
-0.0709799
-0.071182
-0.0685258
-0.000726842
-0.00219444
-0.0036815
-0.00520749
-0.0067475
-0.00828348
-0.00979541
-0.0112647
-0.0126763
-0.0140179
-0.0152788
-0.0164534
-0.0175384
-0.018532
-0.0194342
-0.0202464
-0.0209715
-0.0216131
-0.0221757
-0.0226643
-0.0230844
-0.0234419
-0.0237431
-0.0239943
-0.0242019
-0.0243725
-0.0245125
-0.0246284
-0.0247263
-0.0248121
-0.0248916
-0.0249699
-0.0250522
-0.0251428
-0.0252459
-0.0253651
-0.0255037
-0.0256645
-0.02585
-0.0260623
-0.026303
-0.0265736
-0.0268754
-0.0272091
-0.0275755
-0.0279751
-0.0284083
-0.0288752
-0.029376
-0.0299106
-0.0304789
-0.031081
-0.0317164
-0.0323852
-0.033087
-0.0338218
-0.0345893
-0.0353896
-0.0362224
-0.0370842
-0.0379772
-0.0388998
-0.0398559
-0.0408426
-0.0418599
-0.0429081
-0.0439871
-0.0450965
-0.0462355
-0.0474034
-0.0486019
-0.0498312
-0.0510832
-0.0523564
-0.0536564
-0.0549806
-0.0563262
-0.0576905
-0.0590703
-0.0604615
-0.0618596
-0.0632585
-0.0646513
-0.0660294
-0.0673823
-0.0686972
-0.0699593
-0.0711482
-0.0722444
-0.0732116
-0.0740335
-0.0746274
-0.0750318
-0.0750024
-0.0748868
-0.0738064
-0.0733098
-0.0708222
-0.0707349
-0.0675805
-0.000727162
-0.00219308
-0.00367825
-0.00520048
-0.00673623
-0.00826788
-0.00977563
-0.011241
-0.0126488
-0.0139872
-0.0152488
-0.016424
-0.0175095
-0.0185039
-0.0194071
-0.0202207
-0.0209472
-0.0215904
-0.0221546
-0.0226448
-0.0230666
-0.0234258
-0.0237286
-0.0239813
-0.0241903
-0.0243622
-0.0245033
-0.0246202
-0.0247188
-0.0248053
-0.0248851
-0.0249637
-0.0250459
-0.0251363
-0.0252389
-0.0253574
-0.025495
-0.0256546
-0.0258385
-0.026049
-0.0262876
-0.0265559
-0.0268551
-0.027186
-0.0275493
-0.0279456
-0.0283751
-0.0288382
-0.0293348
-0.029865
-0.0304288
-0.0310258
-0.031656
-0.0323192
-0.0330149
-0.033743
-0.034503
-0.0352945
-0.0361175
-0.0369749
-0.0378658
-0.0387885
-0.0397388
-0.0407197
-0.0417312
-0.042773
-0.0438447
-0.044946
-0.046077
-0.0472371
-0.0484253
-0.0496402
-0.0508844
-0.0521608
-0.0534591
-0.05478
-0.0561223
-0.0574833
-0.0588602
-0.0602489
-0.0616451
-0.0630429
-0.0644357
-0.0658148
-0.0671704
-0.0684898
-0.0697587
-0.0709568
-0.0720657
-0.0730485
-0.0738916
-0.0745084
-0.0749446
-0.0749316
-0.0748356
-0.0737614
-0.0732547
-0.0707104
-0.070436
-0.0667222
0.0750833
0.0807877
0.0828666
0.0852323
0.0861933
0.0863032
0.0852159
0.0828902
0.0790844
0.0735843
0.0659619
0.0558557
0.042437
0.0250955
0.00190473
-0.0284982
-0.0720146
-0.129254
-0.214709
-0.317066
0.0693657
0.07484
0.0767728
0.0788995
0.0796426
0.079521
0.0782034
0.0756416
0.0716019
0.0658684
0.0580381
0.0476786
0.0340622
0.016384
-0.00734787
-0.0390035
-0.0847828
-0.143829
-0.209548
-0.257916
0.0638909
0.0691855
0.0709649
0.0728565
0.0733341
0.0729134
0.0712495
0.068288
0.063782
0.0574951
0.0490126
0.0378523
0.0232212
0.00415785
-0.0213837
-0.0548975
-0.100743
-0.154964
-0.198835
-0.249937
0.0586068
0.0637112
0.0653289
0.0669913
0.0672034
0.0664761
0.0644514
0.0610705
0.0560743
0.0492092
0.0400504
0.0280844
0.0124807
-0.00774632
-0.0344919
-0.0687323
-0.11218
-0.160145
-0.189784
-0.23215
0.0534838
0.0583743
0.0598202
0.0612588
0.061222
0.0602114
0.0578626
0.054115
0.0487053
0.0413735
0.0316985
0.0191576
0.00293827
-0.0178557
-0.0448204
-0.0785796
-0.118096
-0.15732
-0.180898
-0.211045
0.0485224
0.0531823
0.0544493
0.0556681
0.0553967
0.0541262
0.0514898
0.0474276
0.041676
0.0339755
0.0239154
0.0109781
-0.00560711
-0.0265733
-0.0530461
-0.0853967
-0.120524
-0.14918
-0.171635
-0.186716
0.0437325
0.0481492
0.0492349
0.0502377
0.0497421
0.0482289
0.0453309
0.04099
0.0349463
0.0269473
0.0166053
0.00343725
-0.0132545
-0.0340126
-0.0593968
-0.0895277
-0.120675
-0.139463
-0.161733
-0.165117
0.0391215
0.0432801
0.0441857
0.0449763
0.0442664
0.0425247
0.0393866
0.0347965
0.0285013
0.0202589
0.00970505
-0.00360491
-0.0202916
-0.0407013
-0.0647086
-0.0918671
-0.118762
-0.130868
-0.150935
-0.146566
0.034696
0.0385673
0.0393038
0.0398833
0.0389725
0.0370169
0.0336614
0.0288517
0.0223474
0.0139263
0.00327069
-0.0099718
-0.0262543
-0.045689
-0.0676032
-0.0911854
-0.114174
-0.124038
-0.139514
-0.13123
0.0304647
0.034
0.0345935
0.0349552
0.0338571
0.0316965
0.02814
0.0231319
0.0164494
0.0078892
-0.00283536
-0.0160381
-0.0321015
-0.051027
-0.0716507
-0.0925492
-0.112246
-0.122337
-0.134837
-0.117349
0.141286
0.150206
0.154549
0.159881
0.164137
0.167985
0.171149
0.173577
0.1751
0.175562
0.174702
0.172334
0.167957
0.161408
0.151462
0.138324
0.119425
0.0984229
0.0708937
0.0579615
0.133225
0.142029
0.145704
0.150558
0.154044
0.156998
0.159072
0.160214
0.160216
0.15889
0.155913
0.151066
0.143804
0.133992
0.120247
0.103072
0.0794855
0.0551225
0.024921
0.028713
0.125841
0.13437
0.137677
0.142179
0.145206
0.147663
0.149158
0.149668
0.148976
0.146911
0.143147
0.13748
0.129248
0.118365
0.103193
0.0846192
0.058749
0.0331974
-0.00107526
0.00668863
0.119116
0.127276
0.130417
0.134642
0.137365
0.1395
0.140616
0.140708
0.139543
0.136947
0.132559
0.12616
0.116949
0.104883
0.0879949
0.0675878
0.0386618
0.0110746
-0.0277733
-0.0186504
0.112625
0.120407
0.123406
0.127362
0.12979
0.1316
0.13232
0.131954
0.130242
0.126995
0.121797
0.114423
0.103951
0.0903948
0.0714409
0.0488404
0.0164873
-0.0133858
-0.0555519
-0.0445071
0.106157
0.113576
0.116404
0.120075
0.122193
0.123649
0.123946
0.12309
0.120799
0.116873
0.110855
0.102528
0.0908739
0.0759704
0.0551806
0.0306977
-0.00461311
-0.0364422
-0.0814048
-0.0694365
0.099715
0.106783
0.10943
0.112812
0.114629
0.115738
0.115636
0.114331
0.111527
0.107021
0.100332
0.0912582
0.0787006
0.0627612
0.0405216
0.0143679
-0.0237298
-0.0585321
-0.106743
-0.0943776
0.0933607
0.100084
0.102561
0.105667
0.107212
0.108009
0.107563
0.105882
0.102666
0.0977116
0.0905163
0.0808913
0.0676764
0.0509241
0.0276177
9.9056e-05
-0.0398099
-0.0769408
-0.128331
-0.119209
0.0871339
0.0935167
0.0958412
0.0986878
0.0999961
0.100517
0.0997841
0.0977959
0.0942593
0.0889669
0.0814102
0.0714027
0.057784
0.0404192
0.0164359
-0.0127686
-0.0547886
-0.0981902
-0.153901
-0.154642
0.0810392
0.0870826
0.0892791
0.0918821
0.0929942
0.0932798
0.0923217
0.0901015
0.0863433
0.0808316
0.073066
0.0628461
0.0489907
0.0311809
0.00717296
-0.0224652
-0.063219
-0.10606
-0.160631
-0.148223
0.390011
0.389238
0.390545
0.389509
0.391551
0.390266
0.393603
0.392036
0.397634
0.39586
0.405593
0.403885
0.421595
0.420642
0.454996
0.456408
0.529485
0.539052
0.703695
0.764991
0.390009
0.389239
0.390542
0.389518
0.391549
0.390288
0.39361
0.392091
0.397668
0.395993
0.405703
0.404204
0.421896
0.421416
0.455768
0.458329
0.5315
0.543451
0.709275
0.757763
0.390006
0.389237
0.390536
0.389519
0.391542
0.390295
0.393603
0.392113
0.397669
0.396051
0.405725
0.40435
0.421974
0.42177
0.455967
0.45915
0.531899
0.544577
0.709566
0.745303
0.390002
0.389232
0.390527
0.389521
0.39153
0.390302
0.393589
0.392135
0.397656
0.396112
0.405729
0.404504
0.422028
0.422146
0.456122
0.459982
0.532092
0.545129
0.70865
0.726371
0.389998
0.389226
0.390517
0.38952
0.391514
0.390304
0.393566
0.392146
0.397625
0.396148
0.405692
0.404604
0.421987
0.422387
0.456032
0.460421
0.531517
0.54421
0.704999
0.701245
0.389992
0.389217
0.390503
0.389517
0.391492
0.390303
0.393533
0.392149
0.397577
0.396167
0.40562
0.404664
0.421871
0.422531
0.455755
0.460564
0.530329
0.542095
0.698903
0.669954
0.389986
0.389205
0.390487
0.389512
0.391466
0.390296
0.393492
0.392143
0.39751
0.396166
0.405512
0.40468
0.421675
0.422564
0.455275
0.460381
0.528476
0.538774
0.690162
0.632269
0.389979
0.389191
0.390469
0.389507
0.391437
0.390286
0.393442
0.392128
0.397426
0.396145
0.405365
0.404649
0.421395
0.422482
0.454589
0.459866
0.525958
0.534309
0.678508
0.587769
0.389971
0.389173
0.39045
0.389496
0.391404
0.39027
0.393387
0.392101
0.39733
0.3961
0.40519
0.404567
0.421042
0.422275
0.453699
0.45899
0.522773
0.52871
0.663837
0.536056
0.389962
0.389156
0.390422
0.389484
0.391358
0.390251
0.393311
0.392073
0.397202
0.396055
0.404975
0.404486
0.420637
0.422068
0.452731
0.458073
0.519253
0.522722
0.646951
0.475989
0.389962
0.389156
0.390422
0.389484
0.391358
0.390251
0.393311
0.392073
0.397202
0.396055
0.404975
0.404486
0.420637
0.422068
0.452731
0.458073
0.519253
0.522722
0.646951
0.475989
0.389971
0.389173
0.39045
0.389496
0.391404
0.39027
0.393387
0.392101
0.39733
0.3961
0.40519
0.404567
0.421042
0.422275
0.453699
0.45899
0.522773
0.52871
0.663837
0.536056
0.389979
0.389191
0.390469
0.389507
0.391437
0.390286
0.393442
0.392128
0.397426
0.396145
0.405365
0.404649
0.421395
0.422482
0.454589
0.459866
0.525958
0.534309
0.678508
0.587768
0.389986
0.389205
0.390487
0.389512
0.391466
0.390296
0.393492
0.392143
0.39751
0.396166
0.405512
0.404679
0.421675
0.422564
0.455275
0.460381
0.528475
0.538774
0.690162
0.632269
0.389992
0.389217
0.390503
0.389517
0.391492
0.390303
0.393533
0.392149
0.397577
0.396167
0.40562
0.404664
0.421871
0.422531
0.455755
0.460564
0.530329
0.542095
0.698903
0.669954
0.389998
0.389226
0.390517
0.38952
0.391514
0.390304
0.393566
0.392146
0.397625
0.396148
0.405692
0.404604
0.421987
0.422387
0.456032
0.46042
0.531517
0.54421
0.704999
0.701244
0.390002
0.389232
0.390527
0.389521
0.39153
0.390302
0.393589
0.392135
0.397656
0.396112
0.405729
0.404504
0.422027
0.422146
0.456122
0.459982
0.532092
0.545128
0.70865
0.72637
0.390006
0.389237
0.390536
0.389519
0.391542
0.390295
0.393603
0.392113
0.397669
0.396051
0.405725
0.40435
0.421974
0.42177
0.455967
0.45915
0.531899
0.544577
0.709566
0.745303
0.390009
0.389239
0.390542
0.389518
0.391549
0.390288
0.39361
0.392091
0.397668
0.395993
0.405703
0.404204
0.421896
0.421416
0.455768
0.458329
0.5315
0.543451
0.709275
0.757762
0.390011
0.389238
0.390545
0.389509
0.391551
0.390266
0.393603
0.392036
0.397634
0.39586
0.405593
0.403885
0.421595
0.420642
0.454996
0.456408
0.529485
0.539052
0.703695
0.764991
0.0810381
0.0870814
0.089278
0.091881
0.0929931
0.0932787
0.0923207
0.0901006
0.0863423
0.0808307
0.0730651
0.0628453
0.04899
0.0311803
0.00717236
-0.0224658
-0.0632194
-0.106061
-0.160631
-0.148224
0.0871328
0.0935156
0.0958401
0.0986867
0.0999951
0.100516
0.0997831
0.097795
0.0942584
0.088966
0.0814094
0.0714019
0.0577833
0.0404185
0.0164353
-0.0127692
-0.0547891
-0.0981907
-0.153901
-0.154642
0.0933596
0.100083
0.10256
0.105666
0.107211
0.108008
0.107562
0.105881
0.102665
0.0977108
0.0905156
0.0808906
0.0676757
0.0509235
0.0276171
9.85022e-05
-0.0398104
-0.0769413
-0.128331
-0.11921
0.099714
0.106782
0.109429
0.112811
0.114628
0.115737
0.115635
0.11433
0.111526
0.107021
0.100331
0.0912575
0.0786999
0.0627606
0.0405211
0.0143673
-0.0237304
-0.0585327
-0.106744
-0.0943782
0.106156
0.113575
0.116403
0.120074
0.122192
0.123648
0.123945
0.123089
0.120798
0.116872
0.110854
0.102527
0.0908733
0.0759698
0.0551801
0.0306971
-0.00461365
-0.0364427
-0.0814054
-0.0694372
0.112624
0.120406
0.123405
0.127361
0.129789
0.131599
0.132319
0.131954
0.130242
0.126994
0.121796
0.114422
0.10395
0.0903942
0.0714403
0.0488398
0.0164867
-0.0133864
-0.0555525
-0.0445078
0.119115
0.127275
0.130416
0.134641
0.137364
0.1395
0.140615
0.140707
0.139542
0.136947
0.132558
0.126159
0.116948
0.104883
0.0879944
0.0675872
0.0386612
0.011074
-0.0277739
-0.0186512
0.12584
0.134369
0.137677
0.142178
0.145206
0.147663
0.149158
0.149667
0.148975
0.14691
0.143146
0.13748
0.129247
0.118364
0.103192
0.0846187
0.0587484
0.0331968
-0.00107593
0.00668785
0.133224
0.142028
0.145703
0.150557
0.154043
0.156997
0.159071
0.160214
0.160216
0.15889
0.155912
0.151066
0.143803
0.133991
0.120246
0.103071
0.0794849
0.0551218
0.0249203
0.0287122
0.141285
0.150205
0.154548
0.15988
0.164136
0.167984
0.171148
0.173577
0.175099
0.175561
0.174702
0.172333
0.167956
0.161408
0.151461
0.138324
0.119424
0.0984222
0.070893
0.0579606
0.0304632
0.0339985
0.0345921
0.0349538
0.0338557
0.0316951
0.0281386
0.0231306
0.0164481
0.00788798
-0.00283649
-0.0160391
-0.0321024
-0.0510277
-0.0716512
-0.0925495
-0.112246
-0.122338
-0.134837
-0.117349
0.0346946
0.0385659
0.0393024
0.0398819
0.0389711
0.0370156
0.03366
0.0288504
0.0223461
0.0139251
0.0032696
-0.0099728
-0.0262552
-0.0456897
-0.0676037
-0.0911857
-0.114174
-0.124038
-0.139514
-0.13123
0.0391201
0.0432787
0.0441844
0.044975
0.044265
0.0425234
0.0393853
0.0347952
0.0285001
0.0202577
0.00970399
-0.00360588
-0.0202925
-0.040702
-0.0647091
-0.0918675
-0.118762
-0.130868
-0.150935
-0.146566
0.0437311
0.0481479
0.0492335
0.0502363
0.0497408
0.0482276
0.0453297
0.0409888
0.0349451
0.0269462
0.0166043
0.0034363
-0.0132553
-0.0340134
-0.0593974
-0.0895281
-0.120675
-0.139463
-0.161733
-0.165117
0.048521
0.053181
0.054448
0.0556668
0.0553954
0.054125
0.0514886
0.0474264
0.0416749
0.0339744
0.0239144
0.0109772
-0.00560793
-0.0265741
-0.0530467
-0.0853971
-0.120524
-0.14918
-0.171635
-0.186716
0.0534825
0.058373
0.0598189
0.0612576
0.0612208
0.0602102
0.0578614
0.0541139
0.0487042
0.0413725
0.0316976
0.0191567
0.00293746
-0.0178564
-0.0448209
-0.0785801
-0.118096
-0.15732
-0.180898
-0.211045
0.0586056
0.0637099
0.0653276
0.0669901
0.0672022
0.0664749
0.0644503
0.0610694
0.0560732
0.0492082
0.0400495
0.0280835
0.0124799
-0.00774702
-0.0344925
-0.0687328
-0.112181
-0.160146
-0.189784
-0.232151
0.0638897
0.0691843
0.0709637
0.0728553
0.073333
0.0729123
0.0712484
0.068287
0.063781
0.0574941
0.0490117
0.0378514
0.0232204
0.00415715
-0.0213843
-0.054898
-0.100743
-0.154964
-0.198836
-0.249937
0.0693645
0.0748388
0.0767717
0.0788984
0.0796415
0.0795199
0.0782023
0.0756405
0.071601
0.0658674
0.0580372
0.0476778
0.0340614
0.0163833
-0.00734849
-0.039004
-0.0847833
-0.14383
-0.209548
-0.257916
0.0750821
0.0807866
0.0828655
0.0852312
0.0861922
0.0863021
0.0852149
0.0828892
0.0790835
0.0735834
0.0659611
0.0558549
0.0424363
0.0250948
0.00190411
-0.0284987
-0.072015
-0.129255
-0.21471
-0.317066
-0.000727192
-0.00219316
-0.00367838
-0.00520065
-0.00673644
-0.0082681
-0.00977583
-0.0112411
-0.0126486
-0.0139885
-0.0152498
-0.0164247
-0.0175102
-0.0185045
-0.0194077
-0.0202212
-0.0209477
-0.0215908
-0.0221549
-0.022645
-0.0230667
-0.0234258
-0.0237285
-0.0239811
-0.02419
-0.0243618
-0.0245029
-0.0246197
-0.0247183
-0.0248047
-0.0248845
-0.0249631
-0.0250454
-0.0251358
-0.0252384
-0.0253569
-0.0254946
-0.0256542
-0.0258382
-0.0260487
-0.0262875
-0.0265558
-0.026855
-0.027186
-0.0275494
-0.0279457
-0.0283753
-0.0288384
-0.0293351
-0.0298654
-0.0304292
-0.0310264
-0.0316567
-0.0323201
-0.0330161
-0.0337447
-0.0345057
-0.0352988
-0.0361236
-0.0369783
-0.0378631
-0.038778
-0.0397303
-0.0407125
-0.0417248
-0.0427673
-0.0438397
-0.0449419
-0.0460739
-0.047235
-0.048424
-0.0496409
-0.0508859
-0.0521562
-0.0534548
-0.0547766
-0.0561194
-0.0574809
-0.0588581
-0.0602473
-0.0616438
-0.0630419
-0.0644349
-0.0658143
-0.0671701
-0.0684896
-0.0697586
-0.0709568
-0.0720658
-0.0730486
-0.0738918
-0.0745085
-0.0749448
-0.0749317
-0.0748357
-0.0737615
-0.0732548
-0.0707105
-0.0704361
-0.0667225
-0.000726946
-0.00219474
-0.00368199
-0.00520817
-0.00674835
-0.00828452
-0.00979665
-0.0112662
-0.0126781
-0.0140185
-0.0152799
-0.0164547
-0.0175397
-0.0185333
-0.0194354
-0.0202475
-0.0209725
-0.0216139
-0.0221762
-0.0226646
-0.0230844
-0.0234417
-0.0237426
-0.0239935
-0.0242009
-0.0243713
-0.0245111
-0.0246268
-0.0247246
-0.0248103
-0.0248897
-0.0249681
-0.0250503
-0.025141
-0.0252442
-0.0253636
-0.0255024
-0.0256634
-0.0258492
-0.0260617
-0.0263027
-0.0265736
-0.0268756
-0.0272096
-0.0275763
-0.0279761
-0.0284095
-0.0288766
-0.0293775
-0.0299122
-0.0304806
-0.0310826
-0.031718
-0.0323865
-0.033088
-0.0338221
-0.0345887
-0.0353874
-0.0362183
-0.0370821
-0.0379789
-0.0389088
-0.0398629
-0.0408484
-0.041865
-0.0429122
-0.0439903
-0.0450986
-0.0462361
-0.047403
-0.0486008
-0.0498285
-0.0510785
-0.052358
-0.0536582
-0.0549819
-0.0563272
-0.0576913
-0.059071
-0.0604623
-0.0618604
-0.0632593
-0.0646522
-0.0660303
-0.0673833
-0.0686982
-0.0699603
-0.0711491
-0.0722453
-0.0732124
-0.0740343
-0.0746281
-0.0750324
-0.0750028
-0.0748872
-0.0738066
-0.07331
-0.0708223
-0.0707351
-0.0675809
-0.000724758
-0.00219314
-0.00368141
-0.00521216
-0.00675764
-0.00829903
-0.00981575
-0.0112888
-0.0127026
-0.0140459
-0.01531
-0.0164865
-0.0175723
-0.018566
-0.0194678
-0.0202792
-0.021003
-0.021643
-0.0222037
-0.0226902
-0.023108
-0.0234633
-0.0237621
-0.024011
-0.0242163
-0.0243848
-0.0245228
-0.0246368
-0.0247331
-0.0248176
-0.0248959
-0.0249735
-0.0250552
-0.0251456
-0.0252487
-0.0253683
-0.0255076
-0.0256693
-0.025856
-0.0260696
-0.0263118
-0.0265842
-0.0268878
-0.0272235
-0.0275919
-0.0279936
-0.0284289
-0.0288979
-0.0294008
-0.0299374
-0.0305077
-0.0311115
-0.0317486
-0.0324188
-0.0331218
-0.0338574
-0.0346252
-0.0354251
-0.0362565
-0.0371188
-0.0380113
-0.0389343
-0.0398942
-0.0408833
-0.0419038
-0.0429546
-0.0440349
-0.0451451
-0.0462867
-0.0474578
-0.048654
-0.0498743
-0.0511366
-0.0524186
-0.0537267
-0.055058
-0.05641
-0.0577803
-0.0591658
-0.0605624
-0.0619655
-0.0633691
-0.0647661
-0.0661478
-0.0675037
-0.0688207
-0.0700838
-0.0712727
-0.0723672
-0.0733314
-0.0741479
-0.0747367
-0.075133
-0.0750961
-0.0749626
-0.0738795
-0.07344
-0.0709802
-0.0711823
-0.0685262
-0.000720825
-0.00218954
-0.00367845
-0.0052153
-0.00676804
-0.00831678
-0.00984031
-0.0113193
-0.0127383
-0.0140845
-0.0153503
-0.016528
-0.0176143
-0.0186079
-0.0195089
-0.0203192
-0.0210415
-0.0216797
-0.0222383
-0.0227225
-0.023138
-0.0234908
-0.0237871
-0.0240334
-0.0242363
-0.0244023
-0.024538
-0.0246498
-0.0247441
-0.0248267
-0.0249035
-0.0249798
-0.0250605
-0.0251502
-0.0252529
-0.0253724
-0.0255118
-0.0256739
-0.0258612
-0.0260758
-0.0263193
-0.0265931
-0.0268983
-0.0272359
-0.0276064
-0.0280104
-0.0284482
-0.0289199
-0.0294255
-0.0299652
-0.0305387
-0.0311459
-0.0317866
-0.0324605
-0.0331676
-0.0339074
-0.0346798
-0.0354846
-0.0363217
-0.0371912
-0.0380935
-0.0390265
-0.0399879
-0.0409836
-0.0420073
-0.0430614
-0.0441473
-0.0452638
-0.0464063
-0.0475772
-0.0487825
-0.0500246
-0.0512785
-0.052562
-0.0538707
-0.0552029
-0.0565565
-0.0579288
-0.0593164
-0.0607152
-0.0621202
-0.0635256
-0.0649241
-0.0663068
-0.0676633
-0.0689802
-0.0702425
-0.0714299
-0.0725221
-0.0734841
-0.0742973
-0.0748858
-0.0752814
-0.0752543
-0.0751415
-0.0740842
-0.0737795
-0.0713498
-0.0720098
-0.069791
-0.000714657
-0.00218366
-0.00367277
-0.00521723
-0.00677901
-0.00833679
-0.00986851
-0.0113543
-0.0127786
-0.0141292
-0.0153976
-0.016577
-0.0176641
-0.0186577
-0.0195581
-0.0203671
-0.0210877
-0.0217238
-0.0222801
-0.0227617
-0.0231744
-0.0235242
-0.0238176
-0.0240609
-0.0242607
-0.0244238
-0.0245566
-0.0246658
-0.0247576
-0.024838
-0.0249128
-0.0249873
-0.0250666
-0.0251551
-0.025257
-0.025376
-0.0255152
-0.0256775
-0.0258653
-0.0260806
-0.0263251
-0.0266002
-0.0269069
-0.0272462
-0.0276187
-0.0280248
-0.0284648
-0.0289389
-0.0294471
-0.0299893
-0.0305655
-0.0311754
-0.0318188
-0.0324956
-0.0332053
-0.0339478
-0.0347227
-0.0355298
-0.0363688
-0.0372392
-0.0381407
-0.0390737
-0.0400363
-0.0410268
-0.0420553
-0.0431143
-0.0442014
-0.0453175
-0.046472
-0.0476574
-0.0488671
-0.0500982
-0.0513635
-0.0526549
-0.0539708
-0.0553098
-0.0566697
-0.0580479
-0.0594411
-0.0608453
-0.0622555
-0.0636658
-0.0650689
-0.066456
-0.0678163
-0.069137
-0.0704026
-0.0715933
-0.0726885
-0.0736545
-0.0744721
-0.0750698
-0.0754768
-0.0754752
-0.0754059
-0.0743991
-0.0742844
-0.0718868
-0.0731571
-0.0712883
-0.000705673
-0.0021754
-0.00366429
-0.00521797
-0.00679061
-0.00835912
-0.00990055
-0.0113945
-0.012825
-0.0141782
-0.0154516
-0.0166334
-0.0177215
-0.0187151
-0.0196148
-0.0204224
-0.0211411
-0.0217749
-0.0223284
-0.0228071
-0.0232167
-0.0235632
-0.0238531
-0.024093
-0.0242894
-0.0244491
-0.0245786
-0.0246847
-0.0247735
-0.0248511
-0.0249235
-0.0249958
-0.0250732
-0.0251603
-0.025261
-0.0253792
-0.0255179
-0.0256801
-0.0258681
-0.0260839
-0.0263292
-0.0266054
-0.0269135
-0.0272544
-0.0276286
-0.0280368
-0.028479
-0.0289554
-0.0294661
-0.030011
-0.0305899
-0.0312027
-0.0318492
-0.0325291
-0.0332421
-0.033988
-0.0347665
-0.0355774
-0.0364206
-0.037296
-0.0382034
-0.0391425
-0.040114
-0.0411193
-0.042149
-0.04321
-0.0443044
-0.0454312
-0.0465803
-0.0477584
-0.0489685
-0.0502102
-0.0514769
-0.0527703
-0.054089
-0.0554312
-0.0567947
-0.0581767
-0.0595739
-0.0609822
-0.0623966
-0.0638112
-0.0652185
-0.0666098
-0.0679744
-0.0692993
-0.0705694
-0.0717651
-0.0728659
-0.0738397
-0.0746667
-0.0752812
-0.0757095
-0.0757473
-0.0757376
-0.0748035
-0.0749218
-0.0725559
-0.0746086
-0.072937
-0.000693058
-0.00216464
-0.00365292
-0.00521759
-0.00680292
-0.00838379
-0.00993627
-0.0114394
-0.0128775
-0.0142398
-0.0155126
-0.0166967
-0.0177857
-0.0187794
-0.0196783
-0.0204844
-0.021201
-0.0218322
-0.0223828
-0.0228583
-0.0232643
-0.0236073
-0.0238934
-0.0241294
-0.024322
-0.0244778
-0.0246037
-0.0247061
-0.0247915
-0.024866
-0.0249355
-0.0250053