/*--------------------------------*- C++ -*----------------------------------*\
  =========                 |
  \\      /  F ield         | OpenFOAM: The Open Source CFD Toolbox
   \\    /   O peration     | Website:  https://openfoam.org
    \\  /    A nd           | Version:  7
     \\/     M anipulation  |
\*---------------------------------------------------------------------------*/
FoamFile
{
    version     2.0;
    format      ascii;
    class       surfaceScalarField;
    location    "15";
    object      phi;
}
// * * * * * * * * * * * * * * * * * * * * * * * * * * * * * * * * * * * * * //

dimensions      [0 3 -1 0 0 0 0];

internalField   nonuniform List<scalar> 
416
(
0.000756662
4.72786e-06
-3.70673e-06
0.000757198
2.68968e-05
-2.74335e-05
0.000755867
-4.46266e-06
5.79375e-06
0.000754964
8.80002e-05
-8.70971e-05
0.000747897
0.000139567
-0.0001325
0.000736655
0.000535911
-0.000524669
0.000717441
0.0003435
-0.000324286
0.000654103
0.00260636
-0.00254302
0.00300663
-0.00287363
0.000756599
5.81131e-06
0.000757231
2.6265e-05
0.00075579
-3.0216e-06
0.000755016
8.87745e-05
0.000747712
0.000146871
0.000736765
0.000546858
0.000716966
0.0003633
0.000654619
0.00266871
0.00314056
0.000756538
6.95629e-06
0.000757264
2.5539e-05
0.000755715
-1.47261e-06
0.000755068
8.94216e-05
0.00074753
0.000154409
0.000736882
0.000557506
0.000716506
0.000383676
0.00065519
0.00273003
0.00327526
0.000756476
8.16256e-06
0.000757298
2.47179e-05
0.00075564
1.85016e-07
0.000755122
8.99396e-05
0.00074735
0.000162181
0.000737009
0.000567847
0.000716053
0.000404631
0.000655843
0.00279024
0.00341064
0.000756416
9.42974e-06
0.000757332
2.3801e-05
0.000755566
1.95178e-06
0.000755179
9.03267e-05
0.00074717
0.000170189
0.000737145
0.000577872
0.000715608
0.000426168
0.000656584
0.00284926
0.00354669
0.000756355
1.07573e-05
0.000757368
2.27878e-05
0.000755492
3.82786e-06
0.000755238
9.05813e-05
0.000746992
0.000178435
0.000737292
0.000587573
0.000715174
0.000448286
0.000657422
0.00290701
0.00368341
0.000756296
1.21444e-05
0.000757406
2.16779e-05
0.00075542
5.81322e-06
0.000755299
9.07021e-05
0.000746817
0.000186917
0.00073745
0.000596941
0.000714752
0.000470983
0.000658358
0.00296341
0.00382077
0.000756237
1.35901e-05
0.000757444
2.04711e-05
0.000755349
7.90764e-06
0.000755364
9.0688e-05
0.000746645
0.000195635
0.000737617
0.000605968
0.000714338
0.000494262
0.000659386
0.00301836
0.00395878
0.000756179
1.50935e-05
0.000757483
1.91673e-05
0.00075528
1.01107e-05
0.00075543
9.05378e-05
0.000746476
0.000204589
0.000737798
0.000614647
0.000713944
0.000518116
0.000660573
0.00307173
0.00409746
0.000756141
1.66355e-05
0.000757493
1.7815e-05
0.000755261
1.23426e-05
0.00075544
9.03587e-05
0.00074642
0.000213609
0.000737889
0.000623179
0.000713931
0.000542074
0.000661964
0.0031237
0.00423561
0.000863668
-1.31882e-07
0.000863704
2.86956e-05
0.000862882
-1.03261e-05
0.000861225
8.19234e-05
0.000854996
0.000105112
0.00084087
0.000471402
0.000825148
0.000255972
0.000752038
0.00226218
0.00242487
0.000863592
7.10539e-07
0.000863737
2.85503e-05
0.000862793
-9.3823e-06
0.000861277
8.34392e-05
0.000854807
0.000111583
0.000840993
0.000485216
0.00082474
0.000272226
0.000752733
0.00233419
0.00253648
0.000863514
1.63048e-06
0.000863771
2.82933e-05
0.000862703
-8.31442e-06
0.000861332
8.48099e-05
0.000854615
0.0001183
0.000841125
0.000498707
0.00082433
0.00028902
0.000753485
0.00240503
0.0026485
0.000863436
2.62869e-06
0.000863806
2.79226e-05
0.000862612
-7.12027e-06
0.00086139
8.60319e-05
0.000854422
0.000125269
0.000841265
0.000511863
0.00082392
0.000306365
0.000754293
0.00247466
0.00276091
0.000863356
0.000863845
0.000862519
0.000861453
0.000854222
0.000841416
0.000823495
0.000755132
0.0164426
3.8513e-05
0.0164348
2.56168e-05
0.0164461
1.04316e-06
0.0163982
0.000138269
0.0163096
0.000302189
0.0161079
0.000824867
0.0158999
0.000750118
0.0154005
0.00362304
0.0041763
0.0164397
6.32307e-05
0.0164379
2.7471e-05
0.0164491
-1.01204e-05
0.0164102
0.000177144
0.016332
0.000380325
0.0161552
0.00100172
0.016066
0.000839326
0.0155422
0.00414687
0.00370975
0.0164605
6.71542e-05
0.0164411
4.68836e-05
0.0164782
-4.7187e-05
0.016409
0.000246364
0.0163944
0.000394917
0.0161974
0.00119868
0.0162479
0.000788823
0.0159013
0.00449353
0.00293383
0.0164978
3.38448e-05
0.0164336
0.000111091
0.016524
-0.000137574
0.0163949
0.000375436
0.0164766
0.000313213
0.01622
0.00145531
0.0164324
0.000576433
0.016123
0.00480286
0.00230555
0.0165289
-3.05825e-05
0.0164297
0.000210311
0.0165561
-0.000264039
0.0163894
0.00054215
0.0165327
0.000169924
0.0162785
0.00170957
0.0165497
0.000305159
0.0164455
0.00490713
0.00178567
0.0165461
-0.000112199
0.0164292
0.000327243
0.0165713
-0.000406222
0.0164021
0.000711386
0.0165691
2.91233e-06
0.016374
0.00190472
0.0166427
3.64092e-05
0.0167679
0.00478195
0.0014758
0.0165482
-0.000195941
0.0164351
0.000440383
0.0165734
-0.000544521
0.0164292
0.000855507
0.0165952
-0.000163048
0.0164818
0.00201811
0.0167281
-0.000209846
0.0170307
0.00447937
0.00125104
0.0165401
-0.000271615
0.0164437
0.000536825
0.0165692
-0.000669974
0.0164634
0.000961211
0.0166151
-0.000314746
0.0165855
0.00204778
0.0167977
-0.000422094
0.0172076
0.00406948
0.00107368
0.0165292
-0.000336384
0.0164507
0.000615332
0.0165612
-0.000780416
0.0164888
0.00103356
0.0166283
-0.000454249
0.0166549
0.00202123
0.0168474
-0.000614612
0.017306
0.00361088
0.000891582
0.0165164
0.0164576
0.0165535
0.0165131
0.0166339
0.0167187
0.0168941
0.0173677
)
;

boundaryField
{
    inlet
    {
        type            calculated;
        value           nonuniform List<scalar> 
25
(
-0.000757683
-0.000757683
-0.000757683
-0.000757683
-0.000757683
-0.000757683
-0.000757683
-0.000757683
-0.000757683
-0.000757683
-0.000864434
-0.000864434
-0.000864434
-0.000864434
-0.000864434
-0.0164645
-0.0164645
-0.0164645
-0.0164645
-0.0164645
-0.0164645
-0.0164645
-0.0164645
-0.0164645
-0.0164645
)
;
    }
    outlet
    {
        type            calculated;
        value           nonuniform 0();
    }
    polygon
    {
        type            calculated;
        value           nonuniform 0();
    }
    top
    {
        type            symmetryPlane;
        value           uniform 0;
    }
    bottom
    {
        type            symmetryPlane;
        value           uniform 0;
    }
    outside
    {
        type            calculated;
        value           nonuniform List<scalar> 9(-0.000388304 0.000674161 -0.000876362 0.00107397 -0.000575037 0.00193638 -0.000789989 0.00313726 0.000693664);
    }
    procBoundary12to8
    {
        type            processor;
        value           nonuniform List<scalar> 9(8.9773e-07 -2.87315e-05 1.11481e-05 -8.02663e-05 -9.88831e-05 -0.000457277 -0.000240251 -0.00218907 -0.00231368);
    }
    procBoundary12to9
    {
        type            processor;
        value           nonuniform List<scalar> 
20
(
0.000521103
0.000520684
0.000520497
0.000520461
0.000520529
0.000520707
0.000520996
0.000521375
0.000521892
0.000523817
0.00064085
0.000641119
0.000641467
0.000641888
0.000642412
0.0154598
0.0160087
0.0166772
0.0167513
0.0169653
)
;
    }
    procBoundary12to13
    {
        type            processor;
        value           nonuniform List<scalar> 5(0.0170778 0.0172554 0.017385 0.0174881 0.0175657);
    }
}


// ************************************************************************* //
