/*--------------------------------*- C++ -*----------------------------------*\
  =========                 |
  \\      /  F ield         | OpenFOAM: The Open Source CFD Toolbox
   \\    /   O peration     | Website:  https://openfoam.org
    \\  /    A nd           | Version:  7
     \\/     M anipulation  |
\*---------------------------------------------------------------------------*/
FoamFile
{
    version     2.0;
    format      ascii;
    class       volVectorField;
    location    "102";
    object      U;
}
// * * * * * * * * * * * * * * * * * * * * * * * * * * * * * * * * * * * * * //

dimensions      [0 1 -1 0 0 0 0];

internalField   nonuniform List<vector> 
115
(
(1.05142 0.0544921 1.22049e-18)
(1.06105 0.060342 1.26542e-18)
(1.07095 0.0661693 1.26052e-18)
(1.08111 0.0719741 1.32715e-18)
(1.0915 0.0777539 1.35215e-18)
(1.10209 0.0835025 1.34023e-18)
(1.11286 0.0892114 1.31781e-18)
(1.12378 0.0948696 1.37646e-18)
(1.13481 0.100465 1.35719e-18)
(1.14593 0.105982 1.34978e-18)
(1.15707 0.111408 1.20261e-18)
(1.16822 0.116727 1.05346e-18)
(1.17931 0.121923 8.3167e-19)
(1.19032 0.126981 6.33013e-19)
(1.20119 0.131887 5.06155e-19)
(1.21189 0.136627 1.00974e-18)
(1.22236 0.141189 7.93137e-19)
(1.0042 0.0443997 3.77901e-18)
(1.01284 0.0499788 3.91492e-18)
(1.02189 0.0555517 3.90745e-18)
(1.03133 0.0611204 3.93047e-18)
(1.04116 0.0666861 3.99315e-18)
(1.05136 0.0722459 4.00475e-18)
(1.0619 0.0777954 4.07614e-18)
(1.07276 0.0833272 4.10555e-18)
(1.08392 0.0888322 4.10871e-18)
(1.09533 0.0942996 4.14013e-18)
(1.10696 0.099717 4.10392e-18)
(1.11877 0.105071 3.82202e-18)
(1.13071 0.110348 3.40145e-18)
(1.14274 0.115533 2.37552e-18)
(1.15481 0.120611 6.53039e-19)
(1.16686 0.125569 2.68376e-18)
(1.17884 0.130391 4.3701e-18)
(0.930775 0.0403415 6.89037e-19)
(0.938675 0.045537 6.42839e-19)
(0.94715 0.0507324 7.20052e-19)
(0.956195 0.05593 7.13523e-19)
(0.9658 0.0611319 6.27683e-19)
(0.975955 0.0663375 6.45263e-19)
(0.986641 0.0715445 5.68603e-19)
(0.997837 0.0767486 5.47041e-19)
(1.00952 0.0819439 5.38852e-19)
(1.02164 0.0871228 5.745e-19)
(1.03418 0.0922764 4.33856e-19)
(1.04709 0.0973949 4.01042e-19)
(1.06032 0.102467 8.53911e-20)
(1.07383 0.107482 -2.92359e-20)
(1.08754 0.112426 -2.29669e-19)
(1.10142 0.117289 -2.33813e-19)
(1.11539 0.122056 -7.34061e-19)
(0.843186 0.0347459 1.45586e-19)
(0.850491 0.0395136 2.10448e-19)
(0.858504 0.0442786 1.8157e-19)
(0.867224 0.049047 1.42248e-19)
(0.876645 0.0538242 2.43359e-19)
(0.886757 0.0586131 1.3236e-19)
(0.897546 0.0634156 1.65711e-19)
(0.908995 0.0682312 1.56372e-19)
(0.92108 0.073058 1.17157e-19)
(0.933773 0.0778922 4.44047e-20)
(0.947041 0.0827289 7.28763e-20)
(0.960845 0.0875616 8.49754e-20)
(0.975142 0.0923825 -3.42589e-21)
(0.989882 0.0971831 -1.60855e-19)
(1.00501 0.101954 -3.18479e-19)
(1.02048 0.106685 -5.06439e-19)
(1.03622 0.111365 -8.61468e-19)
(0.747953 0.0300776 1.69338e-19)
(0.754618 0.0342922 1.37304e-19)
(0.762068 0.0385079 1.93449e-19)
(0.770307 0.0427312 9.62976e-20)
(0.77933 0.0469691 1.63495e-19)
(0.789136 0.0512267 2.21784e-19)
(0.799714 0.0555083 1.4389e-19)
(0.811054 0.0598166 1.40614e-19)
(0.823141 0.0641528 1.8987e-19)
(0.835952 0.0685167 7.85765e-20)
(0.849465 0.0729068 2.21488e-20)
(0.863648 0.0773199 6.24018e-20)
(0.878468 0.0817521 3.15134e-20)
(0.893886 0.0861981 4.02414e-22)
(0.909858 0.0906516 -1.72342e-19)
(0.926334 0.0951056 -3.65751e-19)
(0.943263 0.0995522 -9.22181e-19)
(0.649582 0.0259138 4.50784e-19)
(0.655465 0.029556 4.22402e-19)
(0.662162 0.0331961 5.35023e-19)
(0.669678 0.0368423 5.29139e-19)
(0.678016 0.0405032 6.48036e-19)
(0.687177 0.0441859 5.17869e-19)
(0.69716 0.0478969 5.63573e-19)
(0.707959 0.0516415 5.45966e-19)
(0.719569 0.0554236 6.2451e-19)
(0.731976 0.0592459 5.17182e-19)
(0.745168 0.06311 5.62009e-19)
(0.759125 0.0670159 4.35168e-19)
(0.773825 0.070963 4.11983e-19)
(0.78924 0.0749492 1.83749e-19)
(0.805341 0.0789716 1.97825e-19)
(0.822091 0.0830264 4.11722e-19)
(0.83945 0.087109 1.19934e-19)
(0.551552 0.0223393 1.92999e-18)
(0.556528 0.0254072 1.9726e-18)
(0.562306 0.028468 2.03739e-18)
(0.568894 0.0315307 2.08806e-18)
(0.576299 0.0346047 2.11235e-18)
(0.584526 0.0376987 2.13605e-18)
(0.59358 0.0408206 2.11128e-18)
(0.603463 0.0439774 2.08195e-18)
(0.614174 0.0471751 2.17773e-18)
(0.625711 0.0504185 1.9957e-18)
(0.638069 0.0537114 1.99794e-18)
(0.651239 0.0570567 1.93663e-18)
(0.66521 0.0604559 1.45529e-18)
)
;

boundaryField
{
    inlet
    {
        type            uniformFixedValue;
        uniformValue    constant (1 0 0);
        value           nonuniform 0();
    }
    outlet
    {
        type            pressureInletOutletVelocity;
        value           nonuniform 0();
    }
    polygon
    {
        type            fixedValue;
        value           nonuniform 0();
    }
    top
    {
        type            symmetryPlane;
    }
    bottom
    {
        type            symmetryPlane;
    }
    outside
    {
        type            zeroGradient;
    }
    procBoundary61to53
    {
        type            processor;
        value           nonuniform List<vector> 
18
(
(0.679969 0.06391 9.17807e-19)
(0.695496 0.0674188 5.5538e-19)
(0.71177 0.0709814 1.68116e-18)
(0.728767 0.0745962 1.95454e-18)
(0.456607 0.0194356 8.10439e-18)
(0.460617 0.0219506 8.01275e-18)
(0.465386 0.0244516 8.10684e-18)
(0.470924 0.0269482 8.13012e-18)
(0.477241 0.0294503 8.11319e-18)
(0.484347 0.0319673 8.08297e-18)
(0.492248 0.0345083 8.0405e-18)
(0.500952 0.0370812 8.13348e-18)
(0.510464 0.0396935 8.08915e-18)
(0.520788 0.0423515 8.26665e-18)
(0.531925 0.0450605 8.20033e-18)
(0.543876 0.0478252 8.00554e-18)
(0.679969 0.06391 9.17807e-19)
(0.556639 0.050649 7.10945e-18)
)
;
    }
    procBoundary61to60
    {
        type            processor;
        value           nonuniform List<vector> 6((1.23258 0.145561 1.46197e-19) (1.1907 0.135064 2.57151e-18) (1.12939 0.126717 -1.50896e-18) (1.05216 0.115984 -1.30072e-18) (0.960588 0.103983 -1.8794e-18) (0.857375 0.0912141 -4.7505e-19));
    }
    procBoundary61to62
    {
        type            processor;
        value           nonuniform List<vector> 7((1.04209 0.0486131 1.21346e-18) (0.995982 0.0388066 3.77864e-18) (0.923455 0.0351398 6.90742e-19) (0.836593 0.0299672 2.04977e-19) (0.742074 0.0258567 1.80889e-19) (0.644509 0.0222611 5.27476e-19) (0.54737 0.0192553 1.97104e-18));
    }
}


// ************************************************************************* //
