/*--------------------------------*- C++ -*----------------------------------*\
  =========                 |
  \\      /  F ield         | OpenFOAM: The Open Source CFD Toolbox
   \\    /   O peration     | Website:  https://openfoam.org
    \\  /    A nd           | Version:  7
     \\/     M anipulation  |
\*---------------------------------------------------------------------------*/
FoamFile
{
    version     2.0;
    format      ascii;
    class       volVectorField;
    location    "50";
    object      U;
}
// * * * * * * * * * * * * * * * * * * * * * * * * * * * * * * * * * * * * * //

dimensions      [0 1 -1 0 0 0 0];

internalField   nonuniform List<vector> 
11200
(
(-0.0689713 -0.0467291 1.84199e-19)
(-0.140048 -0.0832769 1.31724e-18)
(-0.188534 -0.107505 -3.49657e-19)
(-0.259994 -0.103328 -1.05501e-18)
(-0.306494 -0.0924905 6.42757e-19)
(-0.357301 -0.0801759 -4.05401e-18)
(-0.395819 -0.0677176 -5.37927e-18)
(-0.431936 -0.0573235 -2.14501e-18)
(-0.461766 -0.0480409 8.40712e-18)
(-0.487937 -0.0402543 -1.16846e-17)
(-0.509994 -0.033473 -3.39384e-18)
(-0.528735 -0.0275988 1.99721e-17)
(-0.544318 -0.0224031 9.03872e-19)
(-0.55709 -0.0177598 1.56954e-17)
(-0.567251 -0.013545 -2.50636e-17)
(-0.575 -0.00967405 5.13189e-18)
(-0.580492 -0.00607823 1.06449e-17)
(-0.583856 -0.00271053 -1.06367e-17)
(-0.585216 0.000458162 -1.86257e-17)
(-0.584671 0.00346204 -2.49394e-17)
(-0.582308 0.00630412 -4.22013e-17)
(-0.578228 0.00899118 -1.74162e-17)
(-0.572519 0.0115231 -1.05461e-17)
(-0.565279 0.0138944 -5.74856e-18)
(-0.556607 0.0160973 -2.04221e-18)
(-0.546609 0.0181216 -2.10345e-17)
(-0.535398 0.0199563 9.69106e-18)
(-0.523095 0.0215897 3.19936e-19)
(-0.509827 0.0230107 1.30822e-17)
(-0.49573 0.0242093 2.40518e-18)
(-0.480944 0.0251771 -8.58187e-18)
(-0.465615 0.0259078 1.70154e-18)
(-0.449891 0.0263978 -1.61746e-17)
(-0.433923 0.0266467 1.36719e-17)
(-0.41786 0.0266575 -3.59514e-18)
(-0.401847 0.0264367 -9.47432e-18)
(-0.386027 0.0259945 -1.21825e-18)
(-0.370534 0.0253448 1.6296e-18)
(-0.355489 0.0245047 -1.26893e-17)
(-0.341007 0.0234941 -1.70104e-17)
(-0.327185 0.0223355 -2.14257e-17)
(-0.314108 0.021053 -2.09471e-17)
(-0.301845 0.0196721 -1.82399e-18)
(-0.290447 0.0182185 -5.2566e-18)
(-0.279951 0.0167182 2.77084e-18)
(-0.270377 0.0151961 9.39171e-18)
(-0.261731 0.0136761 -9.55734e-18)
(-0.254002 0.0121802 -1.84057e-17)
(-0.247168 0.0107288 -1.3118e-18)
(-0.241194 0.00933964 -7.73979e-19)
(-0.236034 0.00802827 1.17069e-17)
(-0.231633 0.00680746 1.00266e-17)
(-0.227929 0.00568727 3.55411e-19)
(-0.224856 0.00467477 -2.55302e-19)
(-0.222343 0.00377384 -3.41612e-18)
(-0.220319 0.00298532 -2.95222e-18)
(-0.218714 0.0023072 -1.2543e-17)
(-0.217461 0.00173485 8.81081e-18)
(-0.216497 0.0012615 3.61597e-18)
(-0.215764 0.000878766 1.98985e-18)
(-0.215211 0.000577223 -1.10449e-17)
(-0.214793 0.000346914 -6.95638e-18)
(-0.214471 0.000177457 -1.44295e-17)
(-0.214213 5.95797e-05 -1.46923e-17)
(-0.213993 -1.26663e-05 -6.26399e-18)
(-0.213789 -6.10476e-05 -7.83882e-18)
(-0.213582 -7.45364e-05 -2.94135e-18)
(-0.213359 -6.42389e-05 -2.00032e-18)
(-0.213108 -2.96676e-05 -2.32505e-18)
(-0.212819 1.41523e-05 2.64607e-18)
(-0.212482 7.04896e-05 -1.23582e-17)
(-0.212089 0.00014384 -9.57586e-18)
(-0.211632 0.000231495 2.25528e-18)
(-0.211102 0.000334956 -1.23792e-17)
(-0.210488 0.000456005 6.87988e-18)
(-0.20978 0.000597022 -1.10941e-17)
(-0.208964 0.000761142 1.3143e-17)
(-0.208026 0.000952481 -4.02497e-18)
(-0.206947 0.00117541 -1.45317e-17)
(-0.20571 0.0014363 7.76465e-18)
(-0.204288 0.00174105 -5.04462e-18)
(-0.202659 0.00210002 -1.88043e-17)
(-0.200781 0.00252066 -6.96875e-18)
(-0.19863 0.00302135 -8.73792e-19)
(-0.196138 0.00361001 2.60383e-18)
(-0.193291 0.00432256 -1.29519e-17)
(-0.189952 0.00516226 1.01207e-17)
(-0.18616 0.00620551 1.68579e-17)
(-0.181614 0.0074348 2.6728e-17)
(-0.176533 0.00901898 1.8078e-17)
(-0.170183 0.0108871 1.52122e-17)
(-0.163351 0.0133773 9.38339e-18)
(-0.154137 0.0164007 -5.20041e-18)
(-0.144951 0.0203122 -3.04956e-19)
(-0.131032 0.0257485 8.91027e-18)
(-0.118433 0.0312107 8.37049e-18)
(-0.0974942 0.0415405 -1.26173e-17)
(-0.0775724 0.0455011 -6.08153e-18)
(-0.0504757 0.0555633 -3.37465e-18)
(-0.0121611 0.0386017 -3.19596e-18)
(-0.0702392 -0.0407603 2.1728e-19)
(-0.137323 -0.0738877 1.53629e-18)
(-0.187527 -0.0969797 4.01747e-19)
(-0.260837 -0.0936634 1.65121e-18)
(-0.309938 -0.0840306 -1.83615e-19)
(-0.362749 -0.0727588 1.32131e-18)
(-0.402822 -0.0613636 2.05647e-19)
(-0.440052 -0.0518257 -4.37754e-19)
(-0.47062 -0.0433423 8.48144e-18)
(-0.497279 -0.0362418 2.17191e-18)
(-0.519624 -0.0300792 -1.17753e-17)
(-0.538518 -0.0247562 2.14777e-17)
(-0.554154 -0.0200604 6.16243e-18)
(-0.566911 -0.0158729 2.35041e-17)
(-0.577005 -0.0120785 -1.85799e-17)
(-0.584651 -0.00859829 1.52807e-17)
(-0.590011 -0.00536877 1.54687e-17)
(-0.593223 -0.00234613 -1.36782e-17)
(-0.594414 0.000497092 -1.56049e-17)
(-0.593687 0.00318942 -1.40378e-17)
(-0.59113 0.0057366 -3.06553e-17)
(-0.586848 0.00814481 -1.50042e-17)
(-0.580929 0.0104136 -1.91395e-17)
(-0.573473 0.0125384 2.85078e-18)
(-0.564578 0.014512 -1.35208e-18)
(-0.554353 0.0163255 -1.29502e-17)
(-0.542911 0.0179691 8.3534e-19)
(-0.530373 0.0194324 -2.90302e-18)
(-0.516868 0.0207054 1.38945e-17)
(-0.502532 0.0217792 -2.06369e-18)
(-0.487506 0.0226461 -1.04816e-17)
(-0.471936 0.0233007 4.15035e-18)
(-0.455971 0.0237397 -9.59095e-18)
(-0.439763 0.0239626 8.5438e-18)
(-0.42346 0.0239722 -5.75752e-19)
(-0.407211 0.0237741 -1.01687e-17)
(-0.391157 0.0233777 4.5033e-18)
(-0.375433 0.0227952 2.93661e-18)
(-0.360164 0.0220418 -1.32872e-17)
(-0.345461 0.0211355 -1.99662e-17)
(-0.331425 0.0200962 -2.22396e-17)
(-0.318142 0.0189456 -1.8155e-17)
(-0.305679 0.0177064 -4.63796e-18)
(-0.294091 0.0164019 2.58565e-18)
(-0.283415 0.015055 7.50229e-18)
(-0.273671 0.0136882 1.31698e-18)
(-0.264865 0.0123228 -7.44842e-18)
(-0.256988 0.0109787 -1.59786e-17)
(-0.250017 0.00967393 -4.83991e-18)
(-0.243919 0.00842457 -1.26396e-18)
(-0.238648 0.00724447 4.46029e-18)
(-0.23415 0.00614509 1.04884e-17)
(-0.230363 0.00513541 -9.53232e-19)
(-0.227221 0.00422175 -1.73708e-18)
(-0.224654 0.00340765 -6.26897e-18)
(-0.222591 0.00269403 -3.92503e-18)
(-0.220961 0.00207925 -8.58304e-18)
(-0.219697 0.0015593 1.44452e-17)
(-0.218736 0.00112826 2.48121e-18)
(-0.218018 0.000778738 -6.02026e-19)
(-0.217491 0.000502389 -6.91542e-18)
(-0.21711 0.00029038 -1.12473e-17)
(-0.216835 0.000133424 -1.16999e-17)
(-0.216631 2.36298e-05 -1.15673e-17)
(-0.216473 -4.99571e-05 -7.99849e-18)
(-0.216338 -9.01437e-05 -1.37826e-17)
(-0.216206 -0.000105353 -4.58414e-18)
(-0.216063 -9.9788e-05 1.85666e-18)
(-0.215897 -7.69601e-05 -5.30685e-18)
(-0.215698 -3.57171e-05 6.3146e-18)
(-0.215455 1.8695e-05 -1.22081e-17)
(-0.21516 7.85696e-05 -1.1155e-17)
(-0.214805 0.000154666 -4.65456e-18)
(-0.214381 0.000245316 -1.39183e-17)
(-0.213878 0.000351829 5.77192e-18)
(-0.213284 0.000476271 -6.86172e-18)
(-0.212586 0.000621474 1.29277e-17)
(-0.21177 0.000791151 -4.86013e-18)
(-0.210817 0.000989241 -1.31851e-17)
(-0.209709 0.00122152 2.89106e-19)
(-0.208417 0.00149331 -6.03899e-18)
(-0.206921 0.00181402 -2.1383e-17)
(-0.205176 0.00219037 -9.20018e-18)
(-0.203159 0.00263911 -7.63107e-18)
(-0.200796 0.00316734 3.90653e-18)
(-0.198075 0.00380787 -9.53672e-18)
(-0.194851 0.0045635 8.61169e-18)
(-0.191166 0.00550409 1.19826e-17)
(-0.186698 0.0066136 2.94812e-17)
(-0.18168 0.00804599 1.83274e-17)
(-0.175327 0.00973842 1.8174e-17)
(-0.168464 0.0119957 7.44513e-18)
(-0.159087 0.0147518 -4.889e-18)
(-0.149652 0.0183054 3.22179e-19)
(-0.135276 0.0232938 1.05153e-17)
(-0.121882 0.0282796 1.2352e-17)
(-0.100032 0.0377157 -1.58467e-17)
(-0.0783116 0.0414595 -4.64993e-18)
(-0.0497628 0.0500776 -3.01322e-18)
(-0.0116554 0.0346468 -4.34455e-18)
(-0.0710897 -0.0351225 2.79447e-19)
(-0.134464 -0.0646786 9.81183e-19)
(-0.186077 -0.0861817 1.35843e-19)
(-0.261107 -0.0836398 2.12749e-18)
(-0.312679 -0.075196 2.89773e-18)
(-0.367432 -0.0650573 1.61144e-18)
(-0.409018 -0.0547951 6.10064e-18)
(-0.44733 -0.0461854 1.60964e-18)
(-0.478614 -0.0385512 1.04485e-17)
(-0.505742 -0.0321754 4.14323e-18)
(-0.52836 -0.0266583 -8.95728e-18)
(-0.547397 -0.0219055 1.50741e-17)
(-0.56308 -0.0177226 1.1769e-17)
(-0.575818 -0.0139997 1.88301e-17)
(-0.585845 -0.0106316 -1.24962e-18)
(-0.593389 -0.00754604 1.30125e-17)
(-0.598623 -0.00468531 2.00681e-17)
(-0.60169 -0.00200943 -4.56054e-18)
(-0.602721 0.000505954 -1.51914e-17)
(-0.601822 0.00288759 -6.26583e-18)
(-0.599085 0.00514048 -2.36699e-17)
(-0.594614 0.00726996 -1.28587e-17)
(-0.588501 0.00927593 -1.08554e-17)
(-0.580844 0.0111544 1.37873e-17)
(-0.571745 0.0128991 -1.01194e-18)
(-0.561311 0.0145022 -7.86904e-18)
(-0.549658 0.015955 1.00519e-17)
(-0.536906 0.0172484 -5.41478e-18)
(-0.523186 0.0183735 1.76243e-17)
(-0.508632 0.0193225 5.89715e-18)
(-0.493388 0.0200887 3.54861e-19)
(-0.4776 0.020667 7.99367e-18)
(-0.461418 0.0210548 -5.06262e-18)
(-0.444992 0.0212515 6.34914e-18)
(-0.428475 0.0212595 7.11939e-19)
(-0.412013 0.021084 -1.22623e-17)
(-0.395749 0.020733 7.68179e-19)
(-0.379818 0.0202173 3.57231e-18)
(-0.364346 0.0195504 -1.73718e-17)
(-0.349446 0.0187482 -1.64416e-17)
(-0.335219 0.0178282 -1.71019e-17)
(-0.321749 0.0168096 -1.69753e-17)
(-0.309109 0.0157125 -6.45205e-18)
(-0.29735 0.0145573 1.07185e-17)
(-0.286512 0.0133644 1.33911e-17)
(-0.276615 0.0121537 -6.63993e-18)
(-0.267665 0.0109439 -7.65816e-18)
(-0.259655 0.00975267 -1.70518e-17)
(-0.252561 0.00859589 -8.01985e-18)
(-0.246352 0.00748777 -1.4188e-18)
(-0.24098 0.00644053 -1.34452e-18)
(-0.236394 0.00546431 3.91454e-18)
(-0.232532 0.00456705 -3.27612e-18)
(-0.229327 0.00375435 -2.96458e-18)
(-0.22671 0.0030295 -2.0236e-18)
(-0.22461 0.00239346 -5.27956e-18)
(-0.222957 0.00184484 -5.939e-18)
(-0.221682 0.0013802 1.54827e-17)
(-0.220721 0.000994427 9.97534e-19)
(-0.220014 0.000681077 4.39159e-18)
(-0.21951 0.00043287 -4.00215e-18)
(-0.219161 0.000242074 -9.26078e-18)
(-0.218925 0.000100571 -1.07024e-17)
(-0.218769 2.92098e-06 -1.04424e-17)
(-0.218666 -6.66648e-05 -1.08627e-17)
(-0.218591 -0.000106206 -1.36123e-17)
(-0.218525 -0.000122238 -6.47465e-18)
(-0.218452 -0.000119355 -2.27515e-18)
(-0.218361 -0.000100116 -9.22558e-18)
(-0.21824 -6.70602e-05 1.19546e-17)
(-0.218081 -1.88285e-05 -1.52494e-17)
(-0.217873 3.28656e-05 -5.08605e-18)
(-0.217608 9.73955e-05 -2.44789e-18)
(-0.217277 0.000175118 -1.79294e-17)
(-0.216871 0.000266985 6.619e-18)
(-0.216378 0.000374728 -4.64807e-18)
(-0.215785 0.00050085 1.57396e-17)
(-0.215076 0.000648638 -7.07255e-18)
(-0.214233 0.000821579 -4.55498e-18)
(-0.213237 0.00102481 3.51575e-18)
(-0.212061 0.00126307 1.74475e-18)
(-0.210681 0.00154476 -2.80297e-17)
(-0.209054 0.00187585 -1.19463e-17)
(-0.207154 0.00227135 -1.51141e-17)
(-0.204906 0.00273757 6.44222e-18)
(-0.202296 0.00330396 -8.33752e-18)
(-0.199173 0.00397297 9.34677e-18)
(-0.195581 0.00480733 9.27425e-18)
(-0.191181 0.0057929 2.76896e-17)
(-0.186218 0.00706732 2.07691e-17)
(-0.179863 0.00857695 1.33672e-17)
(-0.17297 0.0105898 5.43873e-18)
(-0.16345 0.0130628 -6.36044e-18)
(-0.153785 0.0162353 1.34058e-18)
(-0.139014 0.0207362 1.41933e-17)
(-0.124898 0.025202 7.71044e-18)
(-0.102257 0.0336773 -1.20102e-17)
(-0.0789767 0.0371361 -3.5156e-18)
(-0.049109 0.0444428 -2.41778e-18)
(-0.0112057 0.0307646 -6.32687e-18)
(-0.0715769 -0.0297896 3.97242e-19)
(-0.131591 -0.0556359 5.37995e-19)
(-0.184331 -0.0751502 -1.83239e-19)
(-0.260927 -0.0732664 3.18574e-18)
(-0.314793 -0.0660039 2.66379e-18)
(-0.371381 -0.0570679 -3.84651e-18)
(-0.414405 -0.0480106 6.5917e-18)
(-0.453742 -0.0403937 4.35948e-18)
(-0.485704 -0.0336583 1.47783e-17)
(-0.513272 -0.0280439 5.42797e-18)
(-0.536146 -0.0231988 -7.33101e-18)
(-0.555314 -0.0190348 1.36619e-17)
(-0.571038 -0.0153782 1.93107e-17)
(-0.583754 -0.0121296 1.61562e-17)
(-0.593717 -0.00919486 1.47118e-17)
(-0.601165 -0.00650926 1.58274e-17)
(-0.606281 -0.00402143 2.66548e-17)
(-0.609213 -0.00169563 -2.15366e-20)
(-0.610096 0.000489422 -1.77064e-17)
(-0.609039 0.00255757 5.13575e-19)
(-0.606137 0.00451396 -2.21676e-17)
(-0.601494 0.00636281 -1.10237e-17)
(-0.595204 0.00810424 -3.73291e-18)
(-0.587366 0.00973483 1.15519e-17)
(-0.578082 0.0112493 -3.27028e-18)
(-0.567461 0.0126408 1.28777e-17)
(-0.555617 0.0139018 4.74118e-18)
(-0.542674 0.0150245 -9.70741e-18)
(-0.52876 0.0160011 2.58974e-17)
(-0.514013 0.0168249 1.28081e-17)
(-0.498575 0.01749 -3.6241e-18)
(-0.482593 0.0179921 1.27952e-17)
(-0.466217 0.0183288 -2.5046e-18)
(-0.4496 0.0184997 5.74082e-18)
(-0.432891 0.0185067 1.52794e-18)
(-0.416241 0.0183544 -1.72245e-17)
(-0.399791 0.0180497 -1.99065e-18)
(-0.383678 0.0176019 4.33367e-18)
(-0.368027 0.0170228 -1.57166e-17)
(-0.352953 0.0163261 -1.53186e-17)
(-0.338556 0.0155269 -2.37754e-17)
(-0.324923 0.014642 -1.79341e-17)
(-0.312125 0.0136886 -8.10867e-18)
(-0.300216 0.0126846 1.25972e-17)
(-0.289235 0.0116476 1.17733e-17)
(-0.279203 0.0105948 -8.39869e-18)
(-0.270126 0.00954259 -8.92273e-18)
(-0.261998 0.00850618 -1.26008e-17)
(-0.254796 0.00749939 -1.17785e-17)
(-0.248488 0.00653454 -6.43736e-19)
(-0.243028 0.00562224 -7.48856e-18)
(-0.238363 0.00477129 -1.08846e-18)
(-0.234433 0.0039886 -5.80435e-18)
(-0.231172 0.00327908 -4.81151e-18)
(-0.228511 0.00264572 1.91922e-18)
(-0.226378 0.00208944 -7.45166e-18)
(-0.224702 0.00160908 -3.93137e-18)
(-0.223416 0.00120175 1.23143e-17)
(-0.222454 0.000863076 -1.39723e-18)
(-0.221757 0.000587524 1.04081e-17)
(-0.221271 0.000368811 -2.0737e-18)
(-0.220948 0.000200226 -9.02018e-18)
(-0.220747 7.46839e-05 -1.12402e-17)
(-0.220632 -1.34015e-05 -1.0389e-17)
(-0.220576 -7.65462e-05 -6.799e-18)
(-0.220553 -0.000112668 -1.58889e-17)
(-0.220543 -0.000128464 -8.40823e-18)
(-0.220532 -0.000127726 -6.51189e-18)
(-0.220505 -0.000112811 -1.46531e-17)
(-0.220453 -8.57089e-05 1.12078e-17)
(-0.220365 -4.86163e-05 -1.29311e-17)
(-0.220232 1.77325e-06 -9.11148e-18)
(-0.220046 5.53319e-05 -8.61613e-19)
(-0.219797 0.000120958 -1.5871e-17)
(-0.219475 0.000199147 7.43861e-19)
(-0.219069 0.000291102 -3.15038e-18)
(-0.218566 0.000398997 1.21958e-17)
(-0.21795 0.000525692 -2.59074e-18)
(-0.217203 0.000674212 -5.92281e-18)
(-0.216306 0.000849043 -1.80409e-18)
(-0.21523 0.0010543 -4.48222e-19)
(-0.213951 0.00129735 -3.06293e-17)
(-0.212425 0.00158337 -1.49888e-17)
(-0.210627 0.00192555 -1.51527e-17)
(-0.208478 0.00232934 1.04885e-18)
(-0.205965 0.00282067 -9.47987e-18)
(-0.202929 0.00340156 1.21528e-17)
(-0.199418 0.00412725 8.66953e-18)
(-0.195078 0.00498536 2.05108e-17)
(-0.190161 0.00609654 1.49672e-17)
(-0.183805 0.00741567 9.61607e-18)
(-0.176884 0.00917371 4.27608e-18)
(-0.167241 0.0113458 -8.85172e-18)
(-0.157371 0.0141181 2.67236e-18)
(-0.142262 0.0180912 2.01031e-17)
(-0.127507 0.0220036 4.00437e-18)
(-0.104183 0.0294637 -1.06517e-18)
(-0.0795629 0.0325908 -2.60638e-18)
(-0.0485057 0.0387635 -2.29657e-18)
(-0.0107939 0.0270049 -9.12016e-18)
(-0.0717715 -0.0247291 2.67612e-19)
(-0.128825 -0.046756 1.20198e-19)
(-0.182444 -0.0639192 -6.38176e-19)
(-0.260427 -0.0625757 2.1983e-18)
(-0.316364 -0.0564796 2.62192e-18)
(-0.374637 -0.048809 -4.72233e-18)
(-0.418986 -0.0410224 8.88705e-18)
(-0.459266 -0.0344596 8.42947e-18)
(-0.491853 -0.02867 2.226e-17)
(-0.519823 -0.0238516 5.4989e-18)
(-0.542928 -0.0197035 -7.13154e-18)
(-0.562213 -0.0161461 1.6565e-17)
(-0.577972 -0.0130282 1.59391e-17)
(-0.590668 -0.0102627 1.56968e-17)
(-0.60057 -0.00776753 3.33021e-17)
(-0.60793 -0.00548646 2.14404e-17)
(-0.612939 -0.00337492 2.02489e-17)
(-0.615749 -0.00140178 4.04218e-19)
(-0.616499 0.000451051 -6.30091e-18)
(-0.615302 0.00220374 8.43145e-18)
(-0.612252 0.00386205 -8.70802e-18)
(-0.607457 0.00542906 -1.00446e-17)
(-0.60101 0.0069049 5.28853e-18)
(-0.593012 0.00828673 1.14298e-17)
(-0.583565 0.00957013 -6.67716e-18)
(-0.572779 0.0107493 2.02924e-17)
(-0.560768 0.011818 3.21878e-19)
(-0.547657 0.0127694 4.60472e-19)
(-0.533575 0.0135971 2.64185e-17)
(-0.518659 0.0142953 1.87151e-17)
(-0.503051 0.0148591 -9.45784e-18)
(-0.4869 0.0152848 7.18813e-18)
(-0.470357 0.0155703 -8.87158e-19)
(-0.453572 0.0157153 6.63254e-18)
(-0.436699 0.0157216 1.19965e-18)
(-0.419885 0.0155927 -1.40194e-17)
(-0.403275 0.0153346 -2.96824e-18)
(-0.387003 0.0149553 5.80522e-18)
(-0.371198 0.0144646 -7.86648e-18)
(-0.355973 0.013874 -1.63533e-17)
(-0.34143 0.0131965 -2.4989e-17)
(-0.327656 0.0124461 -1.10571e-17)
(-0.314723 0.0116376 -9.98144e-18)
(-0.302684 0.0107859 9.18865e-18)
(-0.291579 0.00990607 1.13485e-17)
(-0.28143 0.00901267 -1.25856e-17)
(-0.272244 0.00811952 -1.09559e-17)
(-0.264014 0.00723953 -9.69558e-18)
(-0.256718 0.00638441 -1.70909e-17)
(-0.250324 0.00556459 4.77232e-19)
(-0.244787 0.00478906 -1.51448e-17)
(-0.240054 0.00406528 -5.70738e-18)
(-0.236066 0.00339912 -1.94279e-18)
(-0.232756 0.00279478 -6.84179e-18)
(-0.230055 0.00225487 -1.90627e-18)
(-0.227892 0.00178023 -3.15637e-18)
(-0.226197 0.00136995 -1.09144e-17)
(-0.2249 0.00102165 1.15452e-17)
(-0.223937 0.000731673 -5.34055e-18)
(-0.223247 0.000495378 9.90021e-18)
(-0.222776 0.00030748 -1.3475e-18)
(-0.222475 0.000162307 -1.9472e-18)
(-0.222302 5.39309e-05 -1.36463e-17)
(-0.222223 -2.40414e-05 -3.69655e-18)
(-0.222206 -7.83762e-05 -3.6424e-18)
(-0.222227 -0.000110625 -1.18772e-17)
(-0.222266 -0.000125487 -1.11696e-17)
(-0.222306 -0.000126174 -1.16029e-17)
(-0.222334 -0.000114718 -2.27765e-17)
(-0.22234 -9.27718e-05 4.91235e-18)
(-0.222313 -6.1485e-05 -1.42691e-17)
(-0.222245 -2.03489e-05 -1.36814e-17)
(-0.222125 2.50335e-05 -7.83618e-18)
(-0.221945 7.95144e-05 -1.72187e-17)
(-0.221695 0.000144546 -3.63123e-18)
(-0.221364 0.000221277 -2.51852e-18)
(-0.220937 0.000311539 1.12579e-17)
(-0.220401 0.00041774 2.98579e-19)
(-0.219735 0.000542433 -7.65274e-18)
(-0.218921 0.000689429 -6.93078e-18)
(-0.21793 0.000862218 -3.10975e-18)
(-0.216738 0.00106707 -2.91595e-17)
(-0.215299 0.0013084 -1.96402e-17)
(-0.213588 0.00159745 -1.72785e-17)
(-0.211523 0.00193884 -3.15775e-18)
(-0.209091 0.00235478 -1.23907e-17)
(-0.20613 0.00284691 8.28827e-18)
(-0.202689 0.00346254 -2.24057e-18)
(-0.198399 0.00419117 1.72171e-17)
(-0.193522 0.00513565 1.11291e-17)
(-0.187165 0.00625914 7.22347e-18)
(-0.180219 0.00775527 3.26144e-18)
(-0.170473 0.00961358 -1.41387e-17)
(-0.160425 0.011973 4.98237e-18)
(-0.145034 0.0153873 1.97961e-17)
(-0.129725 0.0187241 7.43176e-19)
(-0.105824 0.0251206 -1.28299e-18)
(-0.0800702 0.0278685 -2.36204e-18)
(-0.0479643 0.0330029 -2.28619e-18)
(-0.0104225 0.0231798 -1.40428e-17)
(-0.0717551 -0.0199042 1.72785e-19)
(-0.126288 -0.0380275 6.53818e-19)
(-0.180572 -0.0525218 -2.57322e-19)
(-0.259743 -0.0516063 1.59268e-18)
(-0.317486 -0.0466573 2.82809e-18)
(-0.377247 -0.040307 -6.44615e-18)
(-0.42277 -0.03385 6.73885e-18)
(-0.463886 -0.0283973 5.63239e-18)
(-0.497026 -0.023596 2.36146e-17)
(-0.525352 -0.0196055 3.73283e-18)
(-0.54866 -0.0161771 -7.18998e-18)
(-0.568047 -0.0132421 1.08633e-17)
(-0.583835 -0.010674 1.42545e-17)
(-0.596511 -0.00839929 1.86077e-17)
(-0.606359 -0.00634915 4.21376e-17)
(-0.613642 -0.00447642 1.10364e-17)
(-0.618557 -0.00274392 1.45923e-17)
(-0.621261 -0.0011255 -2.14716e-18)
(-0.621897 0.000393503 -1.28886e-17)
(-0.620577 0.00182954 -6.02236e-20)
(-0.6174 0.00318879 1.10121e-18)
(-0.612474 0.00447317 -9.08917e-18)
(-0.605893 0.00568274 -1.12227e-19)
(-0.597758 0.00681524 1.24832e-17)
(-0.588172 0.00786706 -1.10475e-17)
(-0.577245 0.00883352 1.61254e-17)
(-0.565093 0.00970937 8.57813e-18)
(-0.551839 0.0104892 1.23703e-17)
(-0.537614 0.0111677 1.79105e-17)
(-0.522555 0.01174 1.02673e-17)
(-0.506804 0.0122023 -1.79099e-17)
(-0.490511 0.0125514 4.35294e-18)
(-0.473826 0.0127856 -3.95178e-19)
(-0.456901 0.0129048 -3.31211e-18)
(-0.439888 0.0129101 -1.19523e-17)
(-0.422937 0.0128048 -1.34166e-17)
(-0.406191 0.0125935 -2.81418e-18)
(-0.389787 0.0122828 -1.90965e-18)
(-0.373852 0.0118807 -1.24128e-17)
(-0.3585 0.0113967 -1.06447e-17)
(-0.343835 0.0108413 -1.99458e-17)
(-0.329943 0.0102262 -1.39947e-17)
(-0.316895 0.00956317 -1.24513e-17)
(-0.304747 0.00886469 8.00933e-18)
(-0.293539 0.008143 4.16812e-18)
(-0.283292 0.00741001 -1.1225e-17)
(-0.274014 0.00667707 -1.45654e-17)
(-0.265699 0.00595475 -8.77989e-18)
(-0.258324 0.00525264 -1.69021e-17)
(-0.251858 0.00457927 -5.2271e-18)
(-0.246256 0.00394202 -1.75783e-17)
(-0.241466 0.00334701 -1.08933e-17)
(-0.237429 0.00279904 -6.49639e-18)
(-0.234077 0.00230158 -1.01581e-17)
(-0.231343 0.00185681 -5.31208e-18)
(-0.229155 0.00146551 7.44864e-19)
(-0.227442 0.00112698 -1.10403e-17)
(-0.226136 0.000839319 5.24382e-18)
(-0.225171 0.000599581 -2.48323e-18)
(-0.224486 0.000404001 3.0133e-18)
(-0.224027 0.000248282 -1.93724e-18)
(-0.223744 0.000127771 -3.9926e-18)
(-0.223595 3.76648e-05 -1.89146e-17)
(-0.223544 -2.78439e-05 3.60571e-18)
(-0.22356 -7.38513e-05 -1.07518e-18)
(-0.223617 -0.00010151 -1.91474e-17)
(-0.223695 -0.000114758 -6.88797e-18)
(-0.223778 -0.000116269 -9.95611e-18)
(-0.223852 -0.000107721 -2.5884e-17)
(-0.223906 -9.05253e-05 1.02464e-18)
(-0.22393 -6.59393e-05 -1.90343e-17)
(-0.223914 -3.37494e-05 -2.02765e-17)
(-0.22385 6.63868e-06 -1.55713e-17)
(-0.223727 4.88949e-05 -2.16525e-17)
(-0.223537 0.000101292 -8.12883e-18)
(-0.223267 0.000163297 -1.90427e-18)
(-0.222904 0.000236369 3.61356e-18)
(-0.222434 0.000322498 2.79448e-18)
(-0.221836 0.000423768 -1.13607e-17)
(-0.221091 0.000543307 -1.31729e-17)
(-0.22017 0.00068397 -5.9843e-18)
(-0.21905 0.00085092 -2.42635e-17)
(-0.217683 0.00104776 -2.6312e-17)
(-0.216043 0.00128379 -2.14701e-17)
(-0.214048 0.00156276 -6.84255e-18)
(-0.211685 0.00190301 -1.71869e-17)
(-0.208786 0.00230587 6.57392e-18)
(-0.205402 0.00281038 -3.25625e-18)
(-0.201154 0.00340804 1.72093e-17)
(-0.196311 0.00418326 8.69388e-18)
(-0.189953 0.00510731 5.45036e-18)
(-0.182987 0.00633633 2.71751e-18)
(-0.173156 0.00787091 -2.21068e-17)
(-0.162961 0.00980849 8.67973e-18)
(-0.147337 0.0126386 2.31654e-17)
(-0.131565 0.015383 -3.54775e-18)
(-0.107188 0.0206751 -1.76e-18)
(-0.0804998 0.0229975 -2.75198e-18)
(-0.0474976 0.0271524 -2.28974e-18)
(-0.0100977 0.0192501 -1.18247e-17)
(-0.0716124 -0.0152754 1.01948e-19)
(-0.124097 -0.0294313 1.338e-18)
(-0.178864 -0.0409903 8.95549e-20)
(-0.259007 -0.0404006 1.26527e-18)
(-0.318248 -0.0365789 3.37247e-18)
(-0.379258 -0.0315943 -3.91038e-18)
(-0.425771 -0.0265173 6.47552e-18)
(-0.467591 -0.0222232 3.84663e-18)
(-0.501198 -0.0184473 1.93571e-17)
(-0.529821 -0.0153124 -2.22664e-19)
(-0.553299 -0.0126233 -8.62633e-18)
(-0.57277 -0.0103246 9.17689e-18)
(-0.588582 -0.00831586 1.58925e-17)
(-0.601241 -0.00653847 2.60388e-17)
(-0.611044 -0.00493794 4.2025e-17)
(-0.618262 -0.00347682 1.53842e-17)
(-0.623098 -0.00212568 2.7648e-17)
(-0.625715 -0.000863774 -6.66464e-18)
(-0.626256 0.000320014 -3.92892e-18)
(-0.624836 0.00143837 -5.72192e-18)
(-0.621554 0.00249779 1.02999e-17)
(-0.616521 0.00349884 -9.59366e-18)
(-0.60983 0.00444152 -3.37922e-18)
(-0.601584 0.00532415 1.56132e-17)
(-0.591885 0.00614391 -1.88179e-17)
(-0.580843 0.00689718 1.76086e-17)
(-0.568576 0.00757988 1.78196e-17)
(-0.555206 0.00818775 1.08319e-17)
(-0.540865 0.0087167 1.23771e-17)
(-0.525689 0.00916297 1.57186e-17)
(-0.509823 0.00952345 -1.6963e-17)
(-0.493414 0.00979579 4.11945e-18)
(-0.476614 0.00997863 -7.0142e-19)
(-0.459575 0.0100718 -1.9685e-18)
(-0.44245 0.0100762 -1.51718e-17)
(-0.425388 0.00999438 -1.51727e-17)
(-0.408533 0.00982998 -2.00222e-18)
(-0.392022 0.00958805 -1.03878e-17)
(-0.375983 0.00927488 -9.35848e-18)
(-0.360529 0.00889781 -6.62384e-18)
(-0.345765 0.00846508 -9.2572e-18)
(-0.331777 0.00798562 -9.22566e-18)
(-0.318638 0.00746883 -1.5921e-17)
(-0.306403 0.00692427 9.83081e-18)
(-0.295111 0.00636152 5.77072e-18)
(-0.284785 0.00578986 -4.22725e-18)
(-0.275434 0.00521812 -1.2485e-17)
(-0.267049 0.00465452 -8.94974e-18)
(-0.259611 0.00410656 -1.90417e-17)
(-0.253087 0.00358086 -1.13007e-17)
(-0.247433 0.00308317 -2.30079e-17)
(-0.242597 0.00261825 -8.6876e-18)
(-0.238519 0.00218986 -1.11258e-17)
(-0.235134 0.00180069 -7.03806e-18)
(-0.232373 0.00145248 -8.43133e-19)
(-0.230164 0.00114597 4.79598e-18)
(-0.228437 0.000880641 -5.12911e-18)
(-0.227123 0.000655024 6.18241e-19)
(-0.226156 0.000466843 -2.24078e-19)
(-0.225476 0.00031319 -2.66202e-18)
(-0.225026 0.000190749 -2.89269e-18)
(-0.224757 9.59186e-05 -6.84845e-18)
(-0.224626 2.51848e-05 -1.89628e-17)
(-0.224598 -2.72806e-05 3.92805e-18)
(-0.22464 -6.4135e-05 7.28488e-19)
(-0.224726 -8.66092e-05 -2.13633e-17)
(-0.224835 -9.76946e-05 -2.3816e-18)
(-0.224952 -9.95311e-05 -1.03297e-18)
(-0.225063 -9.3427e-05 -2.43452e-17)
(-0.225155 -8.04751e-05 -1.37148e-18)
(-0.225218 -6.1623e-05 -1.85975e-17)
(-0.225245 -3.65917e-05 -2.03548e-17)
(-0.225225 -4.34035e-06 -1.54649e-17)
(-0.225148 2.80299e-05 -2.00324e-17)
(-0.225005 6.77292e-05 -1.24127e-17)
(-0.224784 0.000115207 -1.06313e-17)
(-0.224472 0.000171405 5.92974e-18)
(-0.224054 0.000237812 5.41026e-18)
(-0.223509 0.000316018 -1.81146e-17)
(-0.22282 0.000408447 -1.16289e-17)
(-0.221955 0.000517315 -9.11696e-18)
(-0.220892 0.000646645 -2.32774e-17)
(-0.219582 0.000799245 -2.68248e-17)
(-0.218 0.000982369 -1.83358e-17)
(-0.216061 0.00119896 -1.08478e-17)
(-0.213752 0.00146334 -2.56225e-17)
(-0.210902 0.00177659 -2.818e-18)
(-0.207565 0.00216919 -5.34584e-18)
(-0.203351 0.00263473 1.06785e-17)
(-0.198535 0.00323875 6.58302e-18)
(-0.192176 0.00396038 4.76386e-18)
(-0.185196 0.0049185 2.28411e-18)
(-0.175298 0.00612152 -2.37568e-17)
(-0.164984 0.00763091 4.55096e-18)
(-0.149179 0.00985615 1.99175e-17)
(-0.133036 0.011996 -9.45557e-18)
(-0.108281 0.0161507 -2.63762e-18)
(-0.080851 0.0180062 -3.452e-18)
(-0.047114 0.021224 -2.74172e-18)
(-0.0098255 0.015216 -1.27762e-17)
(-0.0714234 -0.0108011 3.65663e-20)
(-0.122353 -0.0209431 1.38459e-18)
(-0.177453 -0.0293564 4.17439e-19)
(-0.258338 -0.0290057 1.34e-18)
(-0.318735 -0.0262935 4.41159e-18)
(-0.380718 -0.0227103 -2.08625e-18)
(-0.428004 -0.0190542 8.13698e-18)
(-0.470374 -0.0159582 3.68053e-18)
(-0.504346 -0.013238 1.86935e-17)
(-0.5332 -0.0109812 3.97125e-18)
(-0.556811 -0.00904747 9.85578e-19)
(-0.576347 -0.00739607 1.14774e-17)
(-0.592177 -0.00595426 2.10175e-17)
(-0.604822 -0.00467944 2.44639e-17)
(-0.61459 -0.0035321 3.23659e-17)
(-0.621758 -0.00248507 2.02719e-17)
(-0.626534 -0.00151708 2.70453e-17)
(-0.629083 -0.000613009 -1.11448e-19)
(-0.629551 0.000234405 3.7041e-18)
(-0.628054 0.00103395 -1.24134e-17)
(-0.624693 0.00179304 2.14582e-17)
(-0.619578 0.00251033 -1.44546e-17)
(-0.612803 0.00318569 -4.89771e-18)
(-0.604471 0.00381801 2.11971e-17)
(-0.594685 0.00440533 -3.01945e-17)
(-0.583557 0.00494505 8.41136e-18)
(-0.571202 0.00543425 1.29136e-17)
(-0.557744 0.00586989 9.62044e-18)
(-0.543315 0.00624902 8.5791e-18)
(-0.528051 0.00656896 2.20258e-17)
(-0.512097 0.00682747 -2.09206e-17)
(-0.495601 0.00702286 6.27318e-18)
(-0.478714 0.00715415 -1.57033e-18)
(-0.461589 0.00722119 -1.23004e-18)
(-0.444379 0.00722472 -2.22171e-17)
(-0.427233 0.00716642 -6.6113e-18)
(-0.410295 0.00704896 -9.68433e-19)
(-0.393704 0.00687596 -1.00397e-17)
(-0.377585 0.00665189 -7.41883e-18)
(-0.362055 0.00638201 -3.72125e-18)
(-0.347216 0.00607222 -7.79379e-19)
(-0.333156 0.0057289 -5.69926e-18)
(-0.319948 0.00535878 -1.27368e-17)
(-0.307647 0.00496871 1.47338e-17)
(-0.296292 0.00456553 7.63171e-18)
(-0.285907 0.00415588 9.81686e-19)
(-0.2765 0.0037461 -1.22624e-17)
(-0.268064 0.00334206 -1.01427e-17)
(-0.260578 0.00294911 -1.601e-17)
(-0.25401 0.00257202 -1.04232e-17)
(-0.248317 0.00221487 -2.46932e-17)
(-0.243446 0.00188107 -7.03638e-18)
(-0.239338 0.0015733 -9.47932e-18)
(-0.235927 0.00129343 -4.71521e-18)
(-0.233145 0.00104288 3.45287e-18)
(-0.230921 0.000822342 9.61267e-18)
(-0.229183 0.000631417 -9.15617e-18)
(-0.227863 0.000469025 -3.14563e-18)
(-0.226895 0.000333514 1.87614e-18)
(-0.226217 0.000222781 -9.25222e-18)
(-0.225773 0.000134442 -4.22138e-18)
(-0.225515 6.58534e-05 -2.55274e-18)
(-0.225398 1.44482e-05 -1.37057e-17)
(-0.225386 -2.37897e-05 6.48564e-18)
(-0.225448 -5.083e-05 2.9581e-18)
(-0.225555 -6.75374e-05 -1.9034e-17)
(-0.225688 -7.59838e-05 2.85584e-18)
(-0.225831 -7.77602e-05 7.38788e-18)
(-0.225968 -7.3785e-05 -1.89335e-17)
(-0.226089 -6.4836e-05 -2.91692e-18)
(-0.226182 -5.1642e-05 -1.26737e-17)
(-0.22624 -3.41093e-05 -2.36021e-17)
(-0.226253 -1.21795e-05 -1.76358e-17)
(-0.226211 1.17379e-05 -2.17364e-17)
(-0.226103 4.02568e-05 -1.79324e-17)
(-0.225919 7.41074e-05 -1.13159e-17)
(-0.225645 0.000114084 1.01679e-17)
(-0.225265 0.000161323 8.77936e-18)
(-0.224761 0.000216962 -1.90949e-17)
(-0.224113 0.000282732 -1.15785e-17)
(-0.223291 0.00036021 -1.41297e-17)
(-0.22227 0.000452272 -1.73684e-17)
(-0.221003 0.000560922 -2.12874e-17)
(-0.219464 0.000691349 -1.72758e-17)
(-0.217566 0.000845667 -1.58123e-17)
(-0.215298 0.00103413 -2.83048e-17)
(-0.212486 0.00125757 -9.58002e-19)
(-0.209183 0.00153774 2.04858e-18)
(-0.204994 0.00187036 6.49759e-18)
(-0.200199 0.00230193 6.12266e-18)
(-0.19384 0.00281901 4.28284e-18)
(-0.18685 0.00350395 2.21232e-18)
(-0.176902 0.00437018 -1.96438e-17)
(-0.166502 0.00544798 2.63111e-18)
(-0.150562 0.00705324 9.95152e-18)
(-0.134141 0.00858144 -7.95143e-18)
(-0.109104 0.0115741 -3.42535e-18)
(-0.0811211 0.0129286 -4.60973e-18)
(-0.0468192 0.0152344 -3.05349e-18)
(-0.00961151 0.0110705 -1.66897e-17)
(-0.0712563 -0.00643825 -3.71166e-20)
(-0.121141 -0.0125351 8.2655e-19)
(-0.176448 -0.01765 8.06261e-19)
(-0.257833 -0.0174722 1.6468e-18)
(-0.319017 -0.0158555 6.23027e-18)
(-0.381667 -0.0136995 -7.39798e-19)
(-0.429484 -0.0114949 1.16625e-17)
(-0.472231 -0.00962639 3.64712e-18)
(-0.506453 -0.00798455 2.09347e-17)
(-0.535467 -0.00662284 6.41546e-18)
(-0.559168 -0.00545631 1.1522e-17)
(-0.578749 -0.00446047 1.72146e-17)
(-0.594591 -0.00359116 1.60289e-17)
(-0.607226 -0.00282263 2.69572e-17)
(-0.61697 -0.00213092 2.71235e-17)
(-0.624104 -0.00149959 2.72442e-17)
(-0.628839 -0.000915712 2.91623e-17)
(-0.631343 -0.000369924 3.79498e-18)
(-0.631761 0.000140637 -5.93052e-18)
(-0.630212 0.000620203 -2.12693e-17)
(-0.626796 0.00107885 1.94861e-17)
(-0.621626 0.00151242 -7.14297e-18)
(-0.614795 0.00192043 -3.60459e-18)
(-0.606405 0.00230243 2.90504e-17)
(-0.596562 0.00265728 -3.43775e-17)
(-0.585374 0.00298342 7.367e-18)