/*--------------------------------*- C++ -*----------------------------------*\
  =========                 |
  \\      /  F ield         | OpenFOAM: The Open Source CFD Toolbox
   \\    /   O peration     | Website:  https://openfoam.org
    \\  /    A nd           | Version:  7
     \\/     M anipulation  |
\*---------------------------------------------------------------------------*/
FoamFile
{
    version     2.0;
    format      ascii;
    class       surfaceScalarField;
    location    "80";
    object      phi;
}
// * * * * * * * * * * * * * * * * * * * * * * * * * * * * * * * * * * * * * //

dimensions      [0 3 -1 0 0 0 0];

internalField   nonuniform List<scalar> 
465
(
0.000400263
-0.00990155
0.000413324
-0.00923502
0.000364938
-0.00821623
0.000275203
-0.00705499
0.000163315
-0.00592068
4.51183e-05
-0.00485981
-7.10554e-05
-0.00389941
-0.000175614
-0.00301594
-0.000266707
-0.00218213
-0.00137017
0.00016211
-0.00997808
0.000178797
-0.00925171
0.000135582
-0.00817302
5.93856e-05
-0.00697879
-4.21158e-05
-0.00581918
-0.000148437
-0.00475349
-0.000255669
-0.00379218
-0.000352744
-0.00291886
-0.000436538
-0.00209833
-0.00130294
-0.000101639
-0.0100655
-7.02414e-05
-0.0092831
-9.74389e-05
-0.00814582
-0.000154038
-0.00692219
-0.000236686
-0.00573653
-0.000329252
-0.00466092
-0.000424933
-0.0036965
-0.000513961
-0.00282983
-0.000590545
-0.00202175
-0.00124287
-0.000379825
-0.0101758
-0.000330591
-0.00933234
-0.000330084
-0.00814633
-0.000362573
-0.0068897
-0.000420648
-0.00567846
-0.000495685
-0.00458588
-0.000577901
-0.00361428
-0.000657833
-0.0027499
-0.000727173
-0.00195241
-0.00118952
-0.000669096
-0.0103075
-0.00059603
-0.0094054
-0.000563998
-0.00817836
-0.000564968
-0.00688873
-0.000594332
-0.00564909
-0.00064725
-0.00453296
-0.000713467
-0.00354806
-0.000782675
-0.00268069
-0.000844383
-0.0018907
-0.00114262
-0.000967863
-0.010461
-0.000866118
-0.00950715
-0.000798029
-0.00824645
-0.000761416
-0.00692535
-0.00075711
-0.0056534
-0.000783237
-0.00450684
-0.000830221
-0.00350108
-0.000886585
-0.00262433
-0.000939841
-0.00183745
-0.00110207
-0.00127509
-0.010636
-0.00114177
-0.00964047
-0.00103335
-0.00835486
-0.00095388
-0.00700482
-0.000910544
-0.00569674
-0.000904581
-0.0045128
-0.000928066
-0.00347759
-0.000968612
-0.00258378
-0.00101188
-0.00179418
-0.00106817
-0.00159212
-0.0108324
-0.00142467
-0.00980792
-0.00127219
-0.00850734
-0.00114508
-0.00713193
-0.00105708
-0.00578473
-0.00101321
-0.00455668
-0.00100797
-0.00348284
-0.00102877
-0.00256298
-0.00105968
-0.00176326
-0.0010418
-0.00191869
-0.011049
-0.00171607
-0.0100105
-0.00151712
-0.00870629
-0.0013386
-0.00731045
-0.00120059
-0.00592274
-0.00111267
-0.0046446
-0.00107265
-0.00352285
-0.00106874
-0.00256689
-0.00108391
-0.00174809
-0.00102457
-0.00225379
-0.0112836
-0.00201651
-0.0102478
-0.00177044
-0.00895236
-0.00153814
-0.00754275
-0.00134553
-0.00611535
-0.0012076
-0.00478253
-0.00112634
-0.00360412
-0.00109188
-0.00260135
-0.00108691
-0.00175307
-0.00101904
-0.00259438
-0.0115326
-0.00232514
-0.010517
-0.00203359
-0.00924391
-0.0017471
-0.00782924
-0.00149676
-0.00636569
-0.00130362
-0.00497567
-0.00117472
-0.00373301
-0.00110334
-0.00267272
-0.00107291
-0.00178351
-0.00102881
-0.00293605
-0.0117909
-0.00263973
-0.0108134
-0.00230683
-0.00957681
-0.00196802
-0.00816805
-0.00165872
-0.00667499
-0.00140654
-0.00522785
-0.00122441
-0.00391515
-0.00110965
-0.00278748
-0.0010478
-0.00184535
-0.00105844
-0.0032731
-0.0120525
-0.00295666
-0.0111298
-0.00258902
-0.00994445
-0.00220226
-0.00855481
-0.00183508
-0.00704217
-0.00152187
-0.00554106
-0.001282
-0.00415502
-0.00111813
-0.00295135
-0.00101879
-0.0019447
-0.00111317
-0.00359926
-0.0123109
-0.00327124
-0.0114578
-0.00287766
-0.010338
-0.00244976
-0.00898271
-0.00202825
-0.00746367
-0.00165408
-0.00591523
-0.00135375
-0.00445535
-0.0011361
-0.003169
-0.00099361
-0.00208719
-0.00119858
-0.00390827
-0.0125596
-0.00357815
-0.0117879
-0.00316905
-0.0107471
-0.00270905
-0.00944271
-0.00223923
-0.00793349
-0.00180634
-0.00634812
-0.00144467
-0.00481702
-0.00117003
-0.00344364
-0.00097971
-0.00227751
-0.00131995
-0.00419444
-0.0127924
-0.00387184
-0.0121105
-0.00345857
-0.0111604
-0.0029773
-0.00992398
-0.00246751
-0.00844329
-0.00198029
-0.00683534
-0.00155819
-0.00523912
-0.0012249
-0.00377693
-0.000983338
-0.00251907
-0.00148179
-0.00445319
-0.0130045
-0.00414708
-0.0124167
-0.00374117
-0.0115663
-0.00325072
-0.0104144
-0.00271134
-0.00898267
-0.00217622
-0.00737046
-0.00169623
-0.0057191
-0.00130403
-0.00416913
-0.00100916
-0.00281395
-0.00168748
-0.00468137
-0.0131923
-0.00439938
-0.0126986
-0.00401166
-0.0119541
-0.00352467
-0.0109014
-0.00296756
-0.00953977
-0.00239308
-0.00794495
-0.00185922
-0.00625297
-0.00140887
-0.00461947
-0.0010596
-0.00316322
-0.00193936
-0.00487749
-0.0133537
-0.00462544
-0.0129507
-0.00426538
-0.0123141
-0.00379422
-0.0113726
-0.00323245
-0.0101015
-0.002629
-0.0085484
-0.00204692
-0.00683504
-0.00154009
-0.0051263
-0.00113603
-0.00356728
-0.0022388
-0.00504159
-0.0134882
-0.00482322
-0.0131691
-0.00449838
-0.012639
-0.00405445
-0.0118165
-0.00350155
-0.0106545
-0.00288116
-0.00916879
-0.00225816
-0.00745805
-0.00169712
-0.00568734
-0.00123781
-0.00402659
-0.0025872
-0.0051752
-0.0135967
-0.00499218
-0.0133521
-0.00470785
-0.0129233
-0.00430095
-0.0122234
-0.00377021
-0.0111852
-0.00314643
-0.00979257
-0.00249196
-0.00811252
-0.00188034
-0.00629896
-0.00136569
-0.00454124
-0.00298557
-0.00528088
-0.0136807
-0.00513298
-0.0135
-0.00489212
-0.0131641
-0.00452994
-0.0125856
-0.00403356
-0.0116816
-0.0034206
-0.0104055
-0.00274598
-0.00878714
-0.00208848
-0.00695646
-0.00151758
-0.00511214
-0.0034368
-0.00536198
-0.0137428
-0.00524747
-0.0136145
-0.00505083
-0.0133608
-0.00473862
-0.0128978
-0.00428733
-0.0121329
-0.00369986
-0.010993
-0.0030191
-0.00946789
-0.00232377
-0.0076518
-0.00169799
-0.00573792
-0.0039422
-0.00542215
-0.0137855
-0.0053382
-0.0136985
-0.00518453
-0.0135145
-0.00492493
-0.0131574
-0.00452706
-0.0125307
-0.00397869
-0.0115414
-0.00330659
-0.01014
-0.00258252
-0.00837587
-0.00190132
-0.00641911
-0.00450836
-0.00546509
-0.00540836
-0.00529512
-0.00508872
-0.00475052
-0.0042544
-0.00360863
-0.00287177
-0.00214307
)
;

boundaryField
{
    inlet
    {
        type            calculated;
        value           nonuniform 0();
    }
    outlet
    {
        type            calculated;
        value           nonuniform 0();
    }
    polygon
    {
        type            calculated;
        value           nonuniform 0();
    }
    top
    {
        type            symmetryPlane;
        value           uniform 0;
    }
    bottom
    {
        type            symmetryPlane;
        value           uniform 0;
    }
    outside
    {
        type            calculated;
        value           nonuniform List<scalar> 
25
(
-0.000321402
-8.55764e-05
0.000189081
0.000490111
0.000800807
0.00112136
0.00145009
0.0017885
0.0021353
0.0024884
0.00284332
0.00319435
0.00353475
0.00385768
0.0041569
0.00442727
0.00466528
0.00486915
0.00503892
0.00517614
0.00528362
0.00536493
0.00542406
0.00546489
0.00549097
)
;
    }
    procBoundary2to1
    {
        type            processor;
        value           nonuniform List<scalar> 9(-0.0138114 -0.0137552 -0.0136277 -0.0133638 -0.0128689 -0.0120375 -0.0107858 -0.00911273 -0.00714781);
    }
    procBoundary2to3
    {
        type            processor;
        value           nonuniform List<scalar> 10(0.00982269 0.00922196 0.00826462 0.00714472 0.00603257 0.004978 0.00401558 0.00312049 0.00227322 0.00144515);
    }
    procBoundary2to5
    {
        type            processor;
        value           uniform -0.00513474;
    }
    procBoundary2to6
    {
        type            processor;
        value           nonuniform List<scalar> 
25
(
-0.000341687
-0.00050377
-0.000650615
-0.000780525
-0.000891287
-0.000980392
-0.00104577
-0.00108606
-0.00110114
-0.00109243
-0.00106314
-0.00101818
-0.000964048
-0.000908202
-0.000858345
-0.000821497
-0.000803467
-0.000807719
-0.000836596
-0.000889409
-0.000967321
-0.00106635
-0.00119259
-0.00133516
-0.0015167
)
;
    }
}


// ************************************************************************* //
