/*--------------------------------*- C++ -*----------------------------------*\
  =========                 |
  \\      /  F ield         | OpenFOAM: The Open Source CFD Toolbox
   \\    /   O peration     | Website:  https://openfoam.org
    \\  /    A nd           | Version:  10
     \\/     M anipulation  |
\*---------------------------------------------------------------------------*/
FoamFile
{
    format      ascii;
    class       volScalarField;
    location    "15";
    object      p;
}
// * * * * * * * * * * * * * * * * * * * * * * * * * * * * * * * * * * * * * //

dimensions      [0 2 -2 0 0 0 0];

internalField   nonuniform List<scalar> 
1200
(
0.00231893
0.00256651
0.00521486
0.000345201
-0.00293067
-0.0208709
-0.0532818
-0.108038
-0.219739
-0.235284
0.00235136
0.00261399
0.00528348
0.000446916
-0.00276705
-0.020543
-0.0527998
-0.107086
-0.219223
-0.234686
0.00237912
0.00265654
0.00534411
0.000543176
-0.00261217
-0.0202293
-0.0523477
-0.106219
-0.218266
-0.234242
0.00240362
0.00269496
0.00539776
0.000629115
-0.00247412
-0.0199448
-0.0519233
-0.105348
-0.217403
-0.233898
0.0024249
0.00272856
0.00544507
0.000705955
-0.00234689
-0.019674
-0.0515032
-0.104463
-0.21655
-0.233586
0.00244275
0.00275674
0.00548581
0.000773709
-0.00223005
-0.0194177
-0.0510932
-0.103582
-0.215693
-0.23331
0.00245707
0.00277907
0.00551976
0.000831815
-0.00212442
-0.0191778
-0.0506951
-0.102714
-0.214909
-0.233069
0.00246779
0.00279519
0.00554698
0.00088029
-0.00203005
-0.0189556
-0.0503095
-0.101836
-0.213993
-0.232859
0.00247488
0.0028047
0.00556716
0.000918784
-0.00194468
-0.0187494
-0.0499518
-0.101086
-0.213526
-0.232688
0.00247837
0.00280804
0.00557726
0.000939107
-0.00187653
-0.0185485
-0.0495367
-0.100027
-0.212362
-0.23252
-0.196681
-0.198699
-0.206649
-0.217809
-0.2359
-0.263583
-0.302789
-0.377469
-0.450149
-0.939586
-0.198325
-0.200584
-0.208381
-0.219415
-0.237193
-0.264452
-0.302015
-0.379104
-0.445272
-0.794762
-0.199813
-0.2024
-0.210306
-0.221602
-0.239803
-0.268064
-0.306466
-0.386138
-0.465499
-0.679216
-0.201141
-0.204072
-0.212131
-0.223756
-0.242413
-0.271726
-0.311156
-0.390698
-0.479796
-0.634436
-0.202308
-0.205542
-0.213679
-0.225509
-0.244333
-0.274158
-0.313942
-0.39175
-0.485224
-0.604336
-0.203318
-0.206803
-0.214939
-0.226841
-0.245575
-0.275467
-0.31514
-0.390947
-0.487465
-0.582291
-0.204177
-0.207865
-0.215943
-0.227816
-0.246289
-0.275935
-0.315193
-0.388655
-0.488146
-0.569638
-0.204903
-0.208753
-0.21673
-0.228489
-0.246569
-0.275704
-0.314356
-0.385426
-0.487436
-0.563709
-0.205483
-0.209447
-0.217282
-0.228839
-0.246394
-0.274709
-0.312258
-0.38051
-0.482832
-0.561479
-0.205986
-0.210036
-0.217713
-0.22902
-0.245996
-0.27334
-0.309746
-0.376565
-0.479857
-0.566319
-0.166347
-0.162988
-0.17099
-0.177162
-0.192441
-0.21405
-0.235438
-0.271458
-0.295784
-0.290824
-0.173411
-0.17118
-0.180127
-0.188015
-0.205313
-0.229698
-0.255185
-0.295505
-0.330753
-0.325918
-0.177857
-0.176248
-0.185147
-0.193792
-0.211245
-0.236592
-0.26504
-0.309572
-0.358991
-0.365751
-0.180613
-0.179499
-0.188183
-0.197363
-0.21493
-0.241194
-0.272839
-0.322286
-0.385332
-0.410245
-0.183042
-0.182471
-0.191112
-0.200891
-0.218946
-0.246362
-0.281256
-0.335833
-0.411229
-0.459808
-0.185603
-0.1856
-0.194291
-0.204665
-0.223273
-0.251709
-0.289381
-0.348847
-0.435001
-0.514873
-0.188189
-0.188724
-0.197431
-0.208287
-0.227261
-0.256352
-0.296127
-0.360155
-0.455529
-0.579419
-0.190626
-0.19164
-0.200286
-0.211479
-0.230601
-0.260004
-0.301227
-0.369435
-0.469776
-0.650866
-0.192845
-0.194278
-0.202788
-0.214179
-0.233262
-0.262627
-0.304541
-0.376229
-0.478239
-0.74374
-0.194861
-0.196643
-0.20495
-0.216394
-0.235233
-0.264216
-0.30589
-0.379868
-0.469658
-0.834008
0.00158581
-0.00359022
0.00650176
-0.00383024
0.0166149
0.000787715
0.0516585
0.0255734
0.204004
0.213652
0.00157506
-0.00356579
0.00647463
-0.0037388
0.0165919
0.00117723
0.0517662
0.0276035
0.205976
0.209217
0.00156719
-0.00355346
0.00644833
-0.00368912
0.0165417
0.00139272
0.0516284
0.0285211
0.205493
0.201904
0.00155679
-0.00354077
0.00641215
-0.00363003
0.0164635
0.00163426
0.0513919
0.0294902
0.204447
0.191161
0.00154573
-0.00353129
0.00636977
-0.00357917
0.0163586
0.00183521
0.0510023
0.0301045
0.202071
0.176949
0.00153349
-0.00352444
0.0063204
-0.00353242
0.0162273
0.00200921
0.0504797
0.0304759
0.198568
0.159336
0.00152024
-0.00352025
0.00626436
-0.00349096
0.0160697
0.00215217
0.0498227
0.0305836
0.193856
0.138317
0.00150572
-0.00351892
0.00620104
-0.00345485
0.0158873
0.00226018
0.0490312
0.0304268
0.187825
0.113851
0.00149157
-0.00352259
0.00613542
-0.00342989
0.015685
0.00233084
0.048124
0.0300204
0.180436
0.0858642
0.00147157
-0.00351873
0.006051
-0.00338352
0.0154329
0.00243115
0.0470939
0.029582
0.17309
0.0545644
0.00147157
-0.00351873
0.006051
-0.00338352
0.0154329
0.00243115
0.0470939
0.029582
0.17309
0.0545644
0.00149158
-0.00352259
0.00613542
-0.00342989
0.015685
0.00233084
0.048124
0.0300204
0.180436
0.0858642
0.00150572
-0.00351892
0.00620104
-0.00345485
0.0158873
0.00226018
0.0490312
0.0304268
0.187825
0.113851
0.00152025
-0.00352025
0.00626436
-0.00349096
0.0160697
0.00215217
0.0498227
0.0305836
0.193856
0.138317
0.00153349
-0.00352444
0.0063204
-0.00353242
0.0162273
0.00200921
0.0504797
0.0304759
0.198568
0.159336
0.00154573
-0.00353129
0.00636977
-0.00357917
0.0163586
0.00183521
0.0510023
0.0301045
0.202071
0.176949
0.00155679
-0.00354077
0.00641215
-0.00363003
0.0164635
0.00163426
0.0513919
0.0294902
0.204447
0.191161
0.00156719
-0.00355346
0.00644833
-0.00368912
0.0165417
0.00139272
0.0516284
0.0285211
0.205493
0.201904
0.00157506
-0.00356579
0.00647463
-0.0037388
0.0165919
0.00117723
0.0517662
0.0276035
0.205976
0.209217
0.00158581
-0.00359022
0.00650176
-0.00383024
0.0166149
0.000787715
0.0516585
0.0255734
0.204004
0.213652
-0.194861
-0.196643
-0.20495
-0.216394
-0.235233
-0.264216
-0.30589
-0.379868
-0.469658
-0.834008
-0.192845
-0.194278
-0.202788
-0.214179
-0.233262
-0.262627
-0.304541
-0.376229
-0.478239
-0.74374
-0.190626
-0.19164
-0.200286
-0.211479
-0.230601
-0.260004
-0.301227
-0.369435
-0.469776
-0.650866
-0.188189
-0.188724
-0.197431
-0.208287
-0.227261
-0.256352
-0.296127
-0.360155
-0.455529
-0.579419
-0.185603
-0.1856
-0.194291
-0.204665
-0.223273
-0.251709
-0.289381
-0.348847
-0.435001
-0.514873
-0.183042
-0.182471
-0.191112
-0.200891
-0.218946
-0.246362
-0.281256
-0.335833
-0.411229
-0.459808
-0.180613
-0.179499
-0.188183
-0.197363
-0.21493
-0.241194
-0.272839
-0.322286
-0.385332
-0.410245
-0.177857
-0.176248
-0.185147
-0.193792
-0.211245
-0.236592
-0.26504
-0.309572
-0.358991
-0.365751
-0.173411
-0.17118
-0.180127
-0.188015
-0.205313
-0.229698
-0.255185
-0.295505
-0.330753
-0.325918
-0.166347
-0.162988
-0.17099
-0.177162
-0.192441
-0.21405
-0.235438
-0.271458
-0.295784
-0.290824
-0.205986
-0.210036
-0.217713
-0.22902
-0.245996
-0.27334
-0.309746
-0.376565
-0.479857
-0.566319
-0.205483
-0.209447
-0.217282
-0.228839
-0.246394
-0.274709
-0.312258
-0.38051
-0.482832
-0.561479
-0.204903
-0.208753
-0.21673
-0.228489
-0.246569
-0.275704
-0.314356
-0.385426
-0.487436
-0.563709
-0.204177
-0.207865
-0.215943
-0.227816
-0.246289
-0.275935
-0.315193
-0.388655
-0.488146
-0.569638
-0.203318
-0.206803
-0.214939
-0.226841
-0.245575
-0.275467
-0.31514
-0.390947
-0.487465
-0.582291
-0.202308
-0.205542
-0.213679
-0.225509
-0.244333
-0.274158
-0.313942
-0.39175
-0.485224
-0.604336
-0.201141
-0.204072
-0.212131
-0.223756
-0.242413
-0.271726
-0.311156
-0.390698
-0.479796
-0.634436
-0.199813
-0.2024
-0.210306
-0.221602
-0.239803
-0.268064
-0.306466
-0.386138
-0.465499
-0.679216
-0.198325
-0.200584
-0.208381
-0.219415
-0.237193
-0.264452
-0.302015
-0.379104
-0.445272
-0.794762
-0.196681
-0.198699
-0.206649
-0.217809
-0.2359
-0.263583
-0.302789
-0.377469
-0.450149
-0.939586
0.00247837
0.00280804
0.00557726
0.000939107
-0.00187653
-0.0185485
-0.0495367
-0.100027
-0.212362
-0.23252
0.00247488
0.0028047
0.00556716
0.000918784
-0.00194468
-0.0187494
-0.0499518
-0.101086
-0.213526
-0.232688
0.00246779
0.00279519
0.00554698
0.00088029
-0.00203005
-0.0189556
-0.0503095
-0.101836
-0.213993
-0.232859
0.00245707
0.00277907
0.00551976
0.000831815
-0.00212442
-0.0191778
-0.0506951
-0.102714
-0.214909
-0.233069
0.00244275
0.00275674
0.00548581
0.000773709
-0.00223005
-0.0194177
-0.0510932
-0.103582
-0.215693
-0.23331
0.0024249
0.00272856
0.00544507
0.000705955
-0.00234689
-0.019674
-0.0515032
-0.104463
-0.21655
-0.233586
0.00240362
0.00269496
0.00539776
0.000629115
-0.00247412
-0.0199448
-0.0519233
-0.105348
-0.217403
-0.233898
0.00237912
0.00265654
0.00534411
0.000543176
-0.00261217
-0.0202293
-0.0523477
-0.106219
-0.218266
-0.234242
0.00235136
0.00261399
0.00528348
0.000446916
-0.00276705
-0.020543
-0.0527998
-0.107086
-0.219223
-0.234686
0.00231893
0.00256651
0.00521486
0.000345201
-0.00293067
-0.0208709
-0.0532818
-0.108038
-0.219739
-0.235284
-0.000986252
-0.00368564
-0.001092
-0.00620461
-0.00642037
-0.014511
-0.0261375
-0.0377743
-0.0816617
-0.0985139
-0.000536574
-0.00388535
-9.98271e-05
-0.00600761
-0.00380105
-0.012146
-0.0190916
-0.0299909
-0.0721418
-0.0819944
-0.000289468
-0.00390864
0.000564666
-0.00577041
-0.00204034
-0.010867
-0.0151736
-0.0257233
-0.0646171
-0.0750749
5.32111e-05
-0.00394678
0.00144629
-0.00547939
0.000526339
-0.00895056
-0.0076294
-0.0194894
-0.0526445
-0.0631004
0.000354915
-0.00392898
0.00229681
-0.00514138
0.0030028
-0.00719298
-0.000753117
-0.0135813
-0.0383281
-0.0545125
0.000646739
-0.00389058
0.00315645
-0.00478456
0.00569763
-0.00533892
0.0080925
-0.00717499
-0.0186011
-0.0456326
0.000914933
-0.00383335
0.00396968
-0.00441077
0.00824568
-0.00340223
0.0166581
-0.000174705
0.00475116
-0.0350834
0.00112888
-0.00373852
0.00468098
-0.0040488
0.0107249
-0.00154378
0.0261768
0.00701588
0.0381732
-0.0397505
0.00132464
-0.00368735
0.00536599
-0.00376466
0.0129127
0.000201545
0.0350731
0.015618
0.0786597
-0.00314615
0.0014117
-0.0035056
0.00572864
-0.00337408
0.0145998
0.00192665
0.0430732
0.024656
0.124798
-0.0449165
0.0014117
-0.0035056
0.00572864
-0.00337408
0.0145998
0.00192665
0.0430732
0.024656
0.124798
-0.0449165
0.00132464
-0.00368735
0.00536599
-0.00376466
0.0129127
0.000201545
0.0350731
0.015618
0.0786597
-0.00314615
0.00112888
-0.00373852
0.00468098
-0.0040488
0.0107249
-0.00154378
0.0261768
0.00701588
0.0381732
-0.0397505
0.000914935
-0.00383335
0.00396968
-0.00441077
0.00824568
-0.00340223
0.0166581
-0.000174706
0.00475116
-0.0350834
0.00064674
-0.00389058
0.00315645
-0.00478456
0.00569763
-0.00533892
0.0080925
-0.00717499
-0.0186011
-0.0456326
0.000354916
-0.00392898
0.00229681
-0.00514138
0.0030028
-0.00719298
-0.000753117
-0.0135813
-0.0383281
-0.0545125
5.32117e-05
-0.00394678
0.00144629
-0.00547939
0.000526339
-0.00895056
-0.0076294
-0.0194894
-0.0526445
-0.0631004
-0.000289467
-0.00390864
0.000564666
-0.00577041
-0.00204034
-0.010867
-0.0151736
-0.0257233
-0.0646171
-0.0750749
-0.000536574
-0.00388535
-9.98271e-05
-0.00600761
-0.00380105
-0.012146
-0.0190916
-0.0299909
-0.0721418
-0.0819944
-0.000986252
-0.00368564
-0.001092
-0.00620461
-0.00642037
-0.014511
-0.0261375
-0.0377743
-0.0816617
-0.0985139
0.00221244
0.00241648
0.00500725
7.91374e-05
-0.00328236
-0.0214207
-0.0538397
-0.10918
-0.226927
-0.234462
0.00200723
0.00212393
0.00461116
-0.000422313
-0.00389896
-0.0221733
-0.0539379
-0.107907
-0.21623
-0.231248
0.00176687
0.00182255
0.00415143
-0.000965792
-0.00464989
-0.0230541
-0.0541671
-0.106609
-0.217315
-0.243572
0.00151319
0.00153636
0.00369161
-0.00147474
-0.00534678
-0.0237395
-0.0538464
-0.103435
-0.20294
-0.239799
0.00125787
0.00127009
0.00326059
-0.00192226
-0.00594639
-0.0242332
-0.0533416
-0.100381
-0.197787
-0.237221
0.0010067
0.0010241
0.00287863
-0.00228471
-0.00638658
-0.0244202
-0.0522501
-0.0959162
-0.184372
-0.230458
0.000759471
0.000795925
0.00255226
-0.00256223
-0.00668649
-0.0244314
-0.0512846
-0.0928448
-0.178495
-0.224487
0.000517778
0.000588067
0.002288
-0.00274361
-0.00678681
-0.02402
-0.0493157
-0.0867607
-0.166693
-0.218888
0.000297781
0.000394486
0.00207213
-0.00285959
-0.00683623
-0.0237674
-0.0484131
-0.0848818
-0.162504
-0.214483
-2.99735e-05
0.000157301
0.00191102
-0.00282641
-0.00650964
-0.0225113
-0.045109
-0.0762578
-0.150064
-0.210283
-2.99735e-05
0.000157301
0.00191102
-0.00282641
-0.00650964
-0.0225113
-0.045109
-0.0762578
-0.150064
-0.210283
0.000297781
0.000394486
0.00207213
-0.00285959
-0.00683623
-0.0237674
-0.0484131
-0.0848818
-0.162504
-0.214483
0.000517778
0.000588067
0.002288
-0.00274361
-0.00678681
-0.02402
-0.0493157
-0.0867607
-0.166693
-0.218888
0.000759471
0.000795925
0.00255226
-0.00256223
-0.00668649
-0.0244314
-0.0512846
-0.0928448
-0.178495
-0.224487
0.0010067
0.0010241
0.00287863
-0.00228471
-0.00638658
-0.0244202
-0.0522501
-0.0959162
-0.184372
-0.230458
0.00125787
0.00127009
0.00326059
-0.00192226
-0.00594639
-0.0242332
-0.0533416
-0.100381
-0.197787
-0.237221
0.00151319
0.00153636
0.00369161
-0.00147474
-0.00534678
-0.0237395
-0.0538464
-0.103435
-0.20294
-0.239799
0.00176687
0.00182255
0.00415143
-0.000965792
-0.00464989
-0.0230541
-0.0541671
-0.106609
-0.217315
-0.243572
0.00200723
0.00212393
0.00461116
-0.000422313
-0.00389896
-0.0221733
-0.0539379
-0.107907
-0.21623
-0.231248
0.00221244
0.00241648
0.00500725
7.91374e-05
-0.00328236
-0.0214207
-0.0538397
-0.10918
-0.226927
-0.234462
)
;

boundaryField
{
    inlet
    {
        type            zeroGradient;
    }
    outlet
    {
        type            fixedValue;
        value           uniform 0;
    }
    polygon
    {
        type            zeroGradient;
    }
    top
    {
        type            symmetryPlane;
    }
    bottom
    {
        type            symmetryPlane;
    }
    outside
    {
        type            slip;
    }
}


// ************************************************************************* //
