/*--------------------------------*- C++ -*----------------------------------*\
  =========                 |
  \\      /  F ield         | OpenFOAM: The Open Source CFD Toolbox
   \\    /   O peration     | Website:  https://openfoam.org
    \\  /    A nd           | Version:  10
     \\/     M anipulation  |
\*---------------------------------------------------------------------------*/
FoamFile
{
    format      ascii;
    class       surfaceScalarField;
    location    "15";
    object      phi;
}
// * * * * * * * * * * * * * * * * * * * * * * * * * * * * * * * * * * * * * //

dimensions      [0 3 -1 0 0 0 0];

internalField   nonuniform List<scalar> 
2280
(
-0.00291735
0.00165625
-0.00180944
-0.00273197
0.00203774
-0.00222312
-0.00256367
0.00190579
-0.0020741
-0.00232694
0.00268121
-0.00291793
-0.00208602
0.00277463
-0.00301555
-0.00174603
0.00388436
-0.00422436
-0.00136152
0.00432529
-0.0047098
-0.000920164
0.00451948
-0.00496084
-0.000548097
0.000891949
-0.00126402
0.00216811
-0.00271621
-0.00288671
0.0014952
-0.00269046
0.00184149
-0.00251122
0.00172656
-0.00225829
0.00242827
-0.00200005
0.00251639
-0.0016355
0.00351981
-0.0012238
0.00391359
-0.000760124
0.00405581
-0.000461799
0.000593624
0.00170631
-0.00285777
0.00132659
-0.00265156
0.00163528
-0.00246164
0.00153664
-0.00219385
0.00216048
-0.00191901
0.00224155
-0.00153186
0.00313266
-0.00109601
0.00347774
-0.000614692
0.00357449
-0.000384982
0.000363914
0.00132133
-0.00283117
0.00115101
-0.00261578
0.00141989
-0.002416
0.00133685
-0.00213451
0.00187899
-0.0018444
0.00195144
-0.00143668
0.00272493
-0.000979512
0.00302058
-0.000485486
0.00308046
-0.000317298
0.000195726
0.00100403
-0.00280736
0.000969175
-0.00258378
0.00119631
-0.00237513
0.0011282
-0.00208141
0.00158527
-0.00177766
0.0016477
-0.00135175
0.00229901
-0.000876198
0.00254503
-0.000373303
0.00257757
-0.000258734
8.11558e-05
0.000745296
-0.00278679
0.000781946
-0.00255615
0.000965681
-0.00233985
0.000911902
-0.00203559
0.00128101
-0.00172014
0.00133224
-0.00127873
0.00185761
-0.000787809
0.00205411
-0.000278854
0.00206861
-0.000209375
1.16768e-05
0.000535921
-0.00276985
0.000590297
-0.00253344
0.000729278
-0.00231088
0.000689336
-0.00199802
0.000968152
-0.00167303
0.00100725
-0.00121911
0.00140369
-0.000715914
0.00155091
-0.000202838
0.00155553
-0.000169437
-2.17243e-05
0.000366484
-0.00275688
0.000395307
-0.00251611
0.000488515
-0.00228882
0.000462042
-0.00196949
0.000648824
-0.00163738
0.000675139
-0.00117417
0.000940482
-0.000661899
0.00103864
-0.000145771
0.00103941
-0.000139081
-2.84135e-05
0.000227402
-0.00274816
0.000198136
-0.00250454
0.000244897
-0.00227418
0.000231681
-0.00195066
0.000325308
-0.00161399
0.000338471
-0.00114489
0.00047138
-0.00062679
0.000520538
-0.000108344
0.000520959
-0.000118788
-1.79698e-05
0.000108615
-0.00274388
-7.18394e-12
-0.00249898
-1.20304e-11
-0.0022673
-1.31664e-11
-0.00194199
-2.35594e-12
-0.00160352
-1.82431e-11
-0.00113214
-5.24723e-12
-0.000611604
3.09996e-12
-9.0645e-05
2.54807e-11
-0.000108615
1.85715e-11
-1.32362e-11
-0.000554271
0.01774
-0.0175447
-0.000754451
0.0178186
-0.0176185
-0.000959796
0.01788
-0.0176747
-0.00117405
0.0180273
-0.017813
-0.00140169
0.0182483
-0.0180207
-0.00165465
0.0185766
-0.0183236
-0.00193978
0.0191285
-0.0188433
-0.00227587
0.0199947
-0.0196587
-0.00230866
0.020472
-0.0204392
0.0173227
-0.0196313
-0.000553014
0.0179335
-0.000751045
0.0180167
-0.00095361
0.0180826
-0.00116404
0.0182377
-0.00138548
0.0184698
-0.00163067
0.0188218
-0.00189711
0.0193949
-0.00215078
0.0202484
-0.00204558
0.0203668
0.0152771
-0.00055156
0.0181251
-0.000747437
0.0182125
-0.000947366
0.0182825
-0.00115417
0.0184445
-0.00137016
0.0186858
-0.00160671
0.0190583
-0.00185648
0.0196447
-0.00204423
0.0204362
-0.00183264
0.0201552
0.0134445
-0.000549861
0.018315
-0.00074357
0.0184063
-0.000940889
0.0184798
-0.00114412
0.0186478
-0.00135477
0.0188964
-0.00158193
0.0192855
-0.00181255
0.0198753
-0.00194616
0.0205698
-0.0016549
0.0198639
0.0117896
-0.000547955
0.018503
-0.000739468
0.0185978
-0.000934082
0.0186744
-0.0011336
0.0188473
-0.00133851
0.0191013
-0.00155536
0.0195023
-0.0017647
0.0200846
-0.00184826
0.0206533
-0.00149287
0.0195086
0.0102967
-0.000545834
0.0186893
-0.000735102
0.018787
-0.000926843
0.0188662
-0.00112228
0.0190427
-0.00132084
0.0192999
-0.00152594
0.0197074
-0.00171237
0.0202711
-0.00174681
0.0206878
-0.0013391
0.0191008
0.00895758
-0.000543662
0.0188739
-0.000730707
0.0189741
-0.000919567
0.019055
-0.00111083
0.019234
-0.00130306
0.0194921
-0.00149628
0.0199007
-0.0016598
0.0204346
-0.00164931
0.0206773
-0.00119318
0.0186447
0.0077644
-0.000541111
0.0190568
-0.000725811
0.0191588
-0.000911548
0.0192408
-0.00109808
0.0194205
-0.00128285
0.0196769
-0.00146174
0.0200795
-0.00159736
0.0205702
-0.00154503
0.0206249
-0.00104833
0.018148
0.00671607
-0.00053921
0.0192382
-0.000721849
0.0193414
-0.000904963
0.0194239
-0.0010876
0.0196031
-0.00126647
0.0198558
-0.00143432
0.0202474
-0.00154696
0.0206828
-0.00145753
0.0205355
-0.000912542
0.017603
0.00580352
-0.000535286
0.0194181
-0.000715091
0.0195212
-0.000894119
0.0196029
-0.00107014
0.0197792
-0.00123854
0.0200242
-0.00138517
0.020394
-0.00145756
0.0207552
-0.0013213
0.0203992
-0.000756839
0.0170386
0.00504669
-0.000226979
0.0187521
-0.018868
-0.000120377
0.0187609
-0.0188675
-1.47185e-05
0.018807
-0.0189127
7.34175e-05
0.0188754
-0.0189636
0.000148699
0.0190267
-0.0191019
0.000203999
0.0192413
-0.0192966
0.000206237
0.0195038
-0.019506
0.000155409
0.0197917
-0.0197408
-3.45306e-06
0.0199398
-0.019781
0.0160536
-0.0160571
-0.00022485
0.0186299
-0.000113668
0.0186497
-3.84801e-06
0.0186972
9.07448e-05
0.0187808
0.000173767
0.0189436
0.000237189
0.0191779
0.000248801
0.0194922
0.000199853
0.0198406
4.30477e-05
0.0200966
0.0160967
-0.000223822
0.0185044
-0.000108264
0.0185341
5.24186e-06
0.0185837
0.000105826
0.0186803
0.000195419
0.018854
0.000266148
0.0191072
0.000288276
0.0194701
0.000245243
0.0198836
9.65524e-05
0.0202453
0.0161932
-0.000222874
0.018376
-0.00010345
0.0184147
1.3753e-05
0.0184665
0.000120031
0.018574
0.000216126
0.018758
0.0002953
0.019028
0.000330288
0.0194351
0.000297334
0.0199166
0.000161015
0.0203816
0.0163543
-0.000221794
0.0182447
-9.85899e-05
0.0182915
2.26731e-05
0.0183453
0.000134645
0.018462
0.000237836
0.0186548
0.000326842
0.018939
0.000377209
0.0193847
0.00035803
0.0199358
0.000237428
0.0205022
0.0165917
-0.000220442
0.0181105
-9.34073e-05
0.0181645
3.21174e-05
0.0182197
0.000150026
0.0183441
0.0002609
0.0185439
0.000360651
0.0188393
0.000428254
0.0193171
0.000426806
0.0199372
0.000329492
0.0205995
0.0169212
-0.000218834
0.0179732
-8.7964e-05
0.0180336
4.18598e-05
0.0180899
0.000165752
0.0182202
0.000284521
0.0184251
0.000395467
0.0187283
0.000482026
0.0192305
0.000503329
0.0199159
0.00043753
0.0206653
0.0173587
-0.000216971
0.0178331
-8.22772e-05
0.0178989
5.18826e-05
0.0179557
0.000181784
0.0180903
0.000308631
0.0182983
0.000431465
0.0186055
0.000538266
0.0191237
0.000587752
0.0198664
0.00057527
0.0206778
0.017934
-0.00021504
0.0176903
-7.67194e-05
0.0177606
6.15863e-05
0.0178174
0.000197148
0.0179547
0.000331721
0.0181637
0.000466048
0.0184711
0.000593868
0.0189959
0.000678062
0.0197822
0.00074048
0.0206154
0.0186745
-0.000212677
-7.05464e-05
7.22342e-05
0.000213934
0.000356943
0.00050447
0.00065707
0.00078066
0.000956871
0.0035372
-1.6614e-06
7.6412e-13
0.0035298
7.39138e-06
-3.83563e-12
0.0035337
-3.89712e-06
4.35066e-12
0.00351771
1.59928e-05
-1.44638e-12
0.00351252
5.1896e-06
4.679e-12
0.00342963
8.28929e-05
-4.7079e-12
0.00341113
1.84985e-05
2.88177e-12
0.00304536
0.000365764
-5.24082e-12
0.00272085
0.000324512
3.19904e-12
0.00272085
-3.94336e-12
0.0035371
-3.22581e-06
0.00352987
1.46177e-05
0.00353351
-7.5358e-06
0.00351775
3.17495e-05
0.00351147
1.14736e-05
0.00342921
0.000165149
0.003406
4.17143e-05
0.00304048
0.000731279
0.00269462
0.00067038
0.00541547
0.00353694
-4.63182e-06
0.00352999
2.15627e-05
0.00353323
-1.07694e-05
0.00351797
4.70126e-05
0.00351011
1.93243e-05
0.00342939
0.000245873
0.00340013
7.09711e-05
0.00303832
0.0010931
0.00267545
0.00103325
0.00809092
0.00353673
-5.82597e-06
0.00353017
2.8117e-05
0.00353287
-1.34621e-05
0.00351833
6.15525e-05
0.0035085
2.91487e-05
0.00343009
0.00032428
0.00339383
0.000107238
0.00303913
0.0014478
0.00266332
0.00140906
0.0107542
0.00353648
-6.77401e-06
0.0035304
3.42002e-05
0.00353246
-1.55244e-05
0.00351881
7.51999e-05
0.00350675
4.12125e-05
0.0034313
0.000399727
0.00338742
0.000151124
0.00304316
0.00179206
0.00265753
0.00179469
0.0134118
0.00353622
-7.46183e-06
0.00353066
3.97612e-05
0.00353205
-1.69094e-05
0.0035194
8.78496e-05
0.00350496
5.56521e-05
0.00343292
0.000471761
0.0033811
0.000202945
0.00305062
0.00212254
0.00265772
0.00218759
0.0160695
0.00353597
-7.8981e-06
0.00353095
4.47828e-05
0.00353166
-1.76211e-05
0.00352003
9.9475e-05
0.00350324
7.2443e-05
0.00343484
0.00054017
0.00337518
0.000262604
0.0030616
0.00243612
0.00266315
0.00258603
0.0187326
0.00353575
-8.11527e-06
0.00353125
4.92815e-05
0.00353135
-1.77148e-05
0.00352069
0.000110129
0.00350174
9.13921e-05
0.00343689
0.000605021
0.00337007
0.000329422
0.00307602
0.00273017
0.00267279
0.00298927
0.0214054
0.00353559
-8.17045e-06
0.00353156
5.33094e-05
0.00353114
-1.72968e-05
0.00352133
0.000119941
0.00350057
0.000112149
0.00343892
0.000666673
0.00336641
0.000401936
0.00309309
0.00300349
0.00268531
0.00339705
0.0240907
0.00353607
-8.70755e-06
0.00353098
5.83988e-05
0.00353223
-1.85429e-05
0.00352066
0.000131507
0.00350152
0.000131291
0.00343919
0.000729003
0.00336749
0.00047364
0.00310957
0.00326141
0.0027044
0.00380223
0.0267951
0.00353607
8.17044e-06
-8.70755e-06
0.00353098
-5.33094e-05
5.83988e-05
0.00353223
1.72968e-05
-1.85429e-05
0.00352066
-0.000119941
0.000131507
0.00350152
-0.000112149
0.000131291
0.00343919
-0.000666673
0.000729003
0.00336749
-0.000401936
0.00047364
0.00310957
-0.00300349
0.00326141
0.0027044
-0.00339705
0.00380223
-0.0240907
0.0267951
0.00353559
8.11526e-06
0.00353156
-4.92815e-05
0.00353114
1.77148e-05
0.00352133
-0.000110129
0.00350057
-9.13922e-05
0.00343892
-0.000605021
0.00336641
-0.000329422
0.00309309
-0.00273017
0.00268531
-0.00298927
-0.0214054
0.00353575
7.89809e-06
0.00353125
-4.47828e-05
0.00353135
1.76211e-05
0.00352069
-9.9475e-05
0.00350174
-7.2443e-05
0.00343689
-0.000540169
0.00337007
-0.000262604
0.00307602
-0.00243612
0.00267279
-0.00258603
-0.0187326
0.00353597
7.46182e-06
0.00353095
-3.97612e-05
0.00353166
1.69094e-05
0.00352003
-8.78496e-05
0.00350324
-5.56521e-05
0.00343484
-0.000471761
0.00337518
-0.000202945
0.0030616
-0.00212254
0.00266315
-0.00218759
-0.0160695
0.00353622
6.77401e-06
0.00353066
-3.42002e-05
0.00353205
1.55244e-05
0.0035194
-7.51999e-05
0.00350496
-4.12125e-05
0.00343292
-0.000399727
0.0033811
-0.000151124
0.00305062
-0.00179206
0.00265772
-0.00179469
-0.0134118
0.00353648
5.82597e-06
0.0035304
-2.8117e-05
0.00353246
1.34621e-05
0.00351881
-6.15525e-05
0.00350675
-2.91487e-05
0.0034313
-0.00032428
0.00338742
-0.000107238
0.00304316
-0.0014478
0.00265753
-0.00140906
-0.0107542
0.00353673
4.63181e-06
0.00353017
-2.15627e-05
0.00353287
1.07694e-05
0.00351833
-4.70126e-05
0.0035085
-1.93243e-05
0.00343009
-0.000245873
0.00339383
-7.09711e-05
0.00303913
-0.0010931
0.00266332
-0.00103325
-0.00809092
0.00353694
3.22581e-06
0.00352999
-1.46177e-05
0.00353323
7.53579e-06
0.00351797
-3.17495e-05
0.00351011
-1.14736e-05
0.00342939
-0.000165149
0.00340013
-4.17143e-05
0.00303832
-0.000731279
0.00267545
-0.00067038
-0.00541547
0.0035371
1.6614e-06
0.00352987
-7.39138e-06
0.00353351
3.89711e-06
0.00351775
-1.59928e-05
0.00351147
-5.18961e-06
0.00342921
-8.28929e-05
0.003406
-1.84985e-05
0.00304048
-0.000365764
0.00269462
-0.000324512
-0.00272085
0.0035372
0.0035298
0.0035337
0.00351771
0.00351252
0.00342963
0.00341113
0.00304536
0.00272085
-0.000212677
-0.0176903
0.0175447
-7.05463e-05
-0.0177606
0.0176185
7.22342e-05
-0.0178174
0.0176747
0.000213934
-0.0179547
0.017813
0.000356943
-0.0181637
0.0180207
0.00050447
-0.0184711
0.0183236
0.00065707
-0.0189959
0.0188433
0.00078066
-0.0197822
0.0196587
0.000956871
-0.0206154
0.0204392
-0.0186745
0.0196313
-0.00021504
-0.0178331
-7.67194e-05
-0.0178989
6.15862e-05
-0.0179557
0.000197148
-0.0180903
0.000331721
-0.0182983
0.000466048
-0.0186055
0.000593868
-0.0191237
0.000678062
-0.0198664
0.00074048
-0.0206778
-0.017934
-0.000216971
-0.0179732
-8.22773e-05
-0.0180336
5.18826e-05
-0.0180899
0.000181784
-0.0182202
0.000308632
-0.0184251
0.000431465
-0.0187283
0.000538266
-0.0192305
0.000587752
-0.0199159
0.00057527
-0.0206653
-0.0173587
-0.000218834
-0.0181105
-8.79639e-05
-0.0181645
4.18599e-05
-0.0182197
0.000165752
-0.0183441
0.000284521
-0.0185439
0.000395467
-0.0188393
0.000482026
-0.0193171
0.000503329
-0.0199372
0.00043753
-0.0205995
-0.0169212
-0.000220442
-0.0182447
-9.34073e-05
-0.0182915
3.21174e-05
-0.0183453
0.000150027
-0.018462
0.000260901
-0.0186548
0.000360651
-0.018939
0.000428254
-0.0193847
0.000426806
-0.0199358
0.000329492
-0.0205022
-0.0165917
-0.000221794
-0.018376
-9.85899e-05
-0.0184147
2.2673e-05
-0.0184665
0.000134645
-0.018574
0.000237836
-0.018758
0.000326842
-0.019028
0.000377209
-0.0194351
0.00035803
-0.0199166
0.000237428
-0.0203816
-0.0163543
-0.000222874
-0.0185044
-0.00010345
-0.0185341
1.37531e-05
-0.0185837
0.000120031
-0.0186803
0.000216126
-0.018854
0.0002953
-0.0191072
0.000330288
-0.0194701
0.000297334
-0.0198836
0.000161015
-0.0202453
-0.0161932
-0.000223822
-0.0186299
-0.000108264
-0.0186497
5.2419e-06
-0.0186972
0.000105826
-0.0187808
0.000195419
-0.0189436
0.000266148
-0.0191779
0.000288276
-0.0194922
0.000245243
-0.0198406
9.65524e-05
-0.0200966
-0.0160967
-0.00022485
-0.0187521
-0.000113668
-0.0187609
-3.8481e-06
-0.018807
9.07449e-05
-0.0188754
0.000173767
-0.0190267
0.000237189
-0.0192413
0.000248801
-0.0195038
0.000199853
-0.0197917
4.30477e-05
-0.0199398
-0.0160536
-0.000226979
-0.018868
-0.000120377
-0.0188675
-1.47185e-05
-0.0189127
7.34174e-05
-0.0189636
0.000148699
-0.0191019
0.000203999
-0.0192966
0.000206237
-0.019506
0.000155409
-0.0197408
-3.45306e-06
-0.019781
-0.0160571
-0.000535286
-0.0192382
0.0194181
-0.000715091
-0.0193414
0.0195212
-0.000894119
-0.0194239
0.0196029
-0.00107014
-0.0196031
0.0197792
-0.00123854
-0.0198558
0.0200242
-0.00138517
-0.0202474
0.020394
-0.00145756
-0.0206828
0.0207552
-0.0013213
-0.0205355
0.0203992
-0.000756839
-0.017603
0.0170386
-0.00580352
0.00504669
-0.00053921
-0.0190568
-0.000721849
-0.0191588
-0.000904963
-0.0192408
-0.0010876
-0.0194205
-0.00126647
-0.0196769
-0.00143432
-0.0200795
-0.00154696
-0.0205702
-0.00145753
-0.0206249
-0.000912542
-0.018148
-0.00671607
-0.000541111
-0.0188739
-0.000725811
-0.0189741
-0.000911548
-0.019055
-0.00109808
-0.019234
-0.00128285
-0.0194921
-0.00146174
-0.0199007
-0.00159736
-0.0204346
-0.00154503
-0.0206773
-0.00104833
-0.0186447
-0.0077644
-0.000543662
-0.0186893
-0.000730707
-0.018787
-0.000919567
-0.0188662
-0.00111083
-0.0190427
-0.00130306
-0.0192999
-0.00149628
-0.0197074
-0.0016598
-0.0202711
-0.00164931
-0.0206878
-0.00119318
-0.0191008
-0.00895758
-0.000545834
-0.018503
-0.000735102
-0.0185978
-0.000926843
-0.0186744
-0.00112228
-0.0188473
-0.00132084
-0.0191013
-0.00152594
-0.0195023
-0.00171237
-0.0200846
-0.00174681
-0.0206533
-0.0013391
-0.0195086
-0.0102967
-0.000547955
-0.018315
-0.000739468
-0.0184063
-0.000934082
-0.0184798
-0.0011336
-0.0186478
-0.00133851
-0.0188964
-0.00155536
-0.0192855
-0.0017647
-0.0198753
-0.00184826
-0.0205698
-0.00149287
-0.0198639
-0.0117896
-0.000549861
-0.0181251
-0.00074357
-0.0182125
-0.000940889
-0.0182825
-0.00114412
-0.0184445
-0.00135477
-0.0186858
-0.00158193
-0.0190583
-0.00181255
-0.0196447
-0.00194616
-0.0204362
-0.0016549
-0.0201552
-0.0134445
-0.00055156
-0.0179335
-0.000747437
-0.0180167
-0.000947366
-0.0180826
-0.00115417
-0.0182377
-0.00137016
-0.0184698
-0.00160671
-0.0188218
-0.00185648
-0.0193949
-0.00204423
-0.0202484
-0.00183264
-0.0203668
-0.0152771
-0.000553014
-0.01774
-0.000751045
-0.0178186
-0.00095361
-0.01788
-0.00116404
-0.0180273
-0.00138548
-0.0182483
-0.00163067
-0.0185766
-0.00189711
-0.0191285
-0.00215078
-0.0199947
-0.00204558
-0.020472
-0.0173227
-0.000554271
-0.000754451
-0.000959796
-0.00117405
-0.00140169
-0.00165465
-0.00193978
-0.00227587
-0.00230866
-0.00274388
-0.000198136
-0.00249898
-0.000244897
-0.0022673
-0.000231681
-0.00194199
-0.000325308
-0.00160352
-0.000338471
-0.00113214
-0.00047138
-0.000611604
-0.000520538
-9.0645e-05
-0.000520959
-0.000108615
1.79698e-05
-0.000108615
-0.00274816
-0.000395307
-0.00250454
-0.000488515
-0.00227418
-0.000462042
-0.00195066
-0.000648824
-0.00161399
-0.000675139
-0.00114489
-0.000940482
-0.00062679
-0.00103864
-0.000108344
-0.00103941
-0.000118788
2.84136e-05
-0.000227402
-0.00275688
-0.000590297
-0.00251611
-0.000729278
-0.00228882
-0.000689336
-0.00196949
-0.000968152
-0.00163738
-0.00100725
-0.00117417
-0.00140369
-0.000661899
-0.00155091
-0.000145771
-0.00155553
-0.000139081
2.17243e-05
-0.000366484
-0.00276985
-0.000781946
-0.00253344
-0.000965681
-0.00231088
-0.000911902
-0.00199802
-0.00128101
-0.00167303
-0.00133224
-0.00121911
-0.00185761
-0.000715914
-0.00205411
-0.000202838
-0.00206861
-0.000169437
-1.16768e-05
-0.000535921
-0.00278679
-0.000969175
-0.00255615
-0.00119631
-0.00233985
-0.0011282
-0.00203559
-0.00158527
-0.00172014
-0.0016477
-0.00127873
-0.00229901
-0.000787809
-0.00254503
-0.000278854
-0.00257757
-0.000209375
-8.11558e-05
-0.000745296
-0.00280736
-0.00115101
-0.00258378
-0.00141989
-0.00237513
-0.00133685
-0.00208141
-0.00187899
-0.00177766
-0.00195144
-0.00135175
-0.00272493
-0.000876198
-0.00302058
-0.000373303
-0.00308046
-0.000258734
-0.000195726
-0.00100403
-0.00283117
-0.00132659
-0.00261578
-0.00163528
-0.002416
-0.00153664
-0.00213451
-0.00216048
-0.0018444
-0.00224155
-0.00143668
-0.00313266
-0.000979512
-0.00347774
-0.000485486
-0.00357449
-0.000317298
-0.000363914
-0.00132133
-0.00285777
-0.0014952
-0.00265156
-0.00184149
-0.00246164
-0.00172656
-0.00219385
-0.00242827
-0.00191901
-0.00251639
-0.00153186
-0.00351981
-0.00109601
-0.00391359
-0.000614692
-0.00405581
-0.000384982
-0.000593624
-0.00170631
-0.00288671
-0.00165625
-0.00269046
-0.00203774
-0.00251122
-0.00190579
-0.00225829
-0.00268121
-0.00200005
-0.00277463
-0.0016355
-0.00388436
-0.0012238
-0.00432529
-0.000760124
-0.00451948
-0.000461799
-0.000891949
-0.00216811
-0.00291735
-0.00180944
-0.00273197
-0.00222312
-0.00256367
-0.0020741
-0.00232694
-0.00291793
-0.00208602
-0.00301555
-0.00174603
-0.00422436
-0.00136152
-0.0047098
-0.000920164
-0.00496084
-0.000548097
-0.00126402
-0.00271621
0.0165026
0.000385761
0.0164641
-0.000645055
0.0165319
0.000692298
0.0165312
-0.000849254
0.0166253
0.000435054
0.0167661
-0.00189505
0.0168941
0.000140375
0.0174106
-0.00354264
0.0177056
-0.00180807
-0.0062217
0.0165074
0.000342778
0.0164601
-0.000597744
0.0165315
0.000620939
0.0165105
-0.000828213
0.0166056
0.000339898
0.0166908
-0.00198027
0.0168199
1.12551e-05
0.0173156
-0.00403831
0.0175449
-0.00203739
-0.00754424
0.0165106
0.000296655
0.0164564
-0.000543565
0.016531
0.000546364
0.0164938
-0.000790983
0.0165863
0.000247398
0.0166345
-0.00202856
0.0167445
-9.86733e-05
0.0172009
-0.00449478
0.0173989
-0.0022354
-0.00905799
0.0165136
0.000247498
0.0164515
-0.00048143
0.0165296
0.000468272
0.0164723
-0.000733732
0.016561
0.00015877
0.016552
-0.00201965
0.0166585
-0.000205132
0.0170529
-0.00488922
0.0172027
-0.00238511
-0.0108189
0.0165154
0.00019656
0.0164457
-0.000411689
0.016528
0.000385904
0.0164511
-0.00065681
0.0165352
7.46993e-05
0.0164711
-0.00195554
0.0165786
-0.000312655
0.0168643
-0.00517488
0.0169936
-0.00251447
-0.0129272
0.0165157
0.0001453
0.0164393
-0.000335221
0.0165253
0.000299898
0.0164288
-0.000560298
0.0165074
-3.95531e-06
0.0163733
-0.00182148
0.0164794
-0.000418754
0.0165925
-0.00528798
0.0167443
-0.00266628
-0.0154795
0.0165134
9.63845e-05
0.0164328
-0.00025461
0.0165207
0.000211976
0.0164074
-0.000446973
0.0164794
-7.60067e-05
0.016274
-0.00161606
0.0163675
-0.00051222
0.016288
-0.00520852
0.0164336
-0.00281186
-0.018552
0.0165057
5.51394e-05
0.0164285
-0.000177426
0.0165106
0.000129865
0.0163912
-0.000327546
0.0164479
-0.000132676
0.0161748
-0.00134299
0.0162473
-0.000584666
0.015897
-0.00485828
0.0161501
-0.00306498
-0.0221427
0.0164939
2.56736e-05
0.0164271
-0.000110632
0.0164942
6.27598e-05
0.0163839
-0.000217199
0.0164116
-0.000160342
0.0160918
-0.00102319
0.0161259
-0.000618847
0.0153866
-0.00411891
0.015664
-0.00334238
-0.0262597
0.0164814
0.0164292
0.0164734
0.0163877
0.0163587
0.0160645
0.0159193
0.0150618
0.0155216
0.0164814
-2.56736e-05
0.0164292
0.000110632
0.0164734
-6.27598e-05
0.0163877
0.000217199
0.0163587
0.000160342
0.0160645
0.00102319
0.0159193
0.000618847
0.0150618
0.00411891
0.0155216
0.00334238
0.0262597
0.0164939
-5.51394e-05
0.0164271
0.000177426
0.0164942
-0.000129865
0.0163839
0.000327546
0.0164116
0.000132676
0.0160918
0.00134299
0.0161259
0.000584666
0.0153866
0.00485828
0.015664
0.00306498
0.0221427
0.0165057
-9.63845e-05
0.0164285
0.00025461
0.0165106
-0.000211976
0.0163912
0.000446973
0.0164479
7.60066e-05
0.0161748
0.00161606
0.0162473
0.00051222
0.015897
0.00520852
0.0161501
0.00281186
0.018552
0.0165134
-0.0001453
0.0164328
0.000335221
0.0165207
-0.000299898
0.0164074
0.000560298
0.0164794
3.95531e-06
0.016274
0.00182148
0.0163675
0.000418754
0.016288
0.00528798
0.0164336
0.00266628
0.0154795
0.0165157
-0.00019656
0.0164393
0.000411689
0.0165253
-0.000385904
0.0164288
0.00065681
0.0165074
-7.46993e-05
0.0163733
0.00195554
0.0164794
0.000312655
0.0165925
0.00517488
0.0167443
0.00251447
0.0129272
0.0165154
-0.000247498
0.0164457
0.00048143
0.016528
-0.000468272
0.0164511
0.000733732
0.0165352
-0.00015877
0.0164711
0.00201965
0.0165786
0.000205132
0.0168643
0.00488922
0.0169936
0.00238511
0.0108189
0.0165136
-0.000296655
0.0164515
0.000543565
0.0165296
-0.000546364
0.0164723
0.000790983
0.016561
-0.000247398
0.016552
0.00202856
0.0166585
9.86733e-05
0.0170529
0.00449478
0.0172027
0.0022354
0.00905799
0.0165106
-0.000342778
0.0164564
0.000597744
0.016531
-0.000620939
0.0164938
0.000828213
0.0165863
-0.000339898
0.0166345
0.00198027
0.0167445
-1.12551e-05
0.0172009
0.00403831
0.0173989
0.00203739
0.00754424
0.0165074
-0.000385761
0.0164601
0.000645055
0.0165315
-0.000692298
0.0165105
0.000849254
0.0166056
-0.000435054
0.0166908
0.00189505
0.0168199
-0.000140375
0.0173156
0.00354264
0.0175449
0.00180807
0.0062217
0.0165026
0.0164641
0.0165319
0.0165312
0.0166253
0.0167661
0.0168941
0.0174106
0.0177056
-0.0140174
-0.00240495
-0.0133251
-0.00291543
-0.0127007
-0.00269849
-0.0118526
-0.00376601
-0.0109942
-0.00387397
-0.00980051
-0.00541802
-0.00842655
-0.00608375
-0.00666039
-0.006727
-0.00396712
-0.00395729
-0.00163664
-0.0147379
-0.00281992
-0.0142881
-0.00336524
-0.0139136
-0.00307297
-0.0134274
-0.00425218
-0.0129844
-0.00431697
-0.0124184
-0.005984
-0.0119032
-0.00659896
-0.0114365
-0.00719377
-0.0115859
-0.00380786
0.00381604
-0.0153213
-0.00309776
-0.0150539
-0.00363266
-0.0148634
-0.00326347
-0.0146475
-0.00446806
-0.0145164
-0.00444802
-0.0144351
-0.0060653
-0.0145977
-0.0064364
-0.0151268
-0.00666466
-0.0164702
-0.0024645
0.00774512
-0.0157116
-0.00329177
-0.015551
-0.00379321
-0.0154631
-0.00335143
-0.0154004
-0.00453067
-0.0154397
-0.00440876
-0.0156267
-0.00587834
-0.0161469
-0.00591619
-0.0170955
-0.00571607
-0.0185904
-0.000969579
0.00990995
-0.0159375
-0.00344234
-0.0158265
-0.00390423
-0.0157824
-0.00339557
-0.0157878
-0.00452524
-0.015897
-0.00429955
-0.0161916
-0.00558371
-0.0168293
-0.00527854
-0.0178791
-0.00466627
-0.0193007
0.000451998
0.0110033
-0.0160587
-0.00357165
-0.0159662
-0.00399665
-0.015936
-0.00342579
-0.0159668
-0.00449447
-0.0161015
-0.00416488
-0.0164372
-0.00524799
-0.0171053
-0.00461043
-0.0181351
-0.00363642
-0.0194219
0.00173878
0.0116055
-0.0161247
-0.00368878
-0.0160387
-0.00408266
-0.0160103
-0.00345415
-0.016048
-0.00445675
-0.0161876
-0.00402535
-0.0165278
-0.00490772
-0.0171782
-0.00396008
-0.018162
-0.00265263
-0.0193756
0.00295239
0.0120091
-0.0161642
-0.00379642
-0.0160819
-0.00416494
-0.0160527
-0.00348332
-0.0160929
-0.0044165
-0.0162334
-0.00388494
-0.0165709
-0.00457021
-0.0171939
-0.00333704
-0.0181056
-0.001741
-0.0192496
0.00409649
0.0123624
-0.0161883
-0.00389573
-0.0161102
-0.00424307
-0.0160806
-0.00351285
-0.0161224
-0.00437469
-0.0162603
-0.00374703
-0.0165845
-0.00424609
-0.0171695
-0.00275201
-0.0180323
-0.000878198
-0.0191703
0.00523452
0.0127133
-0.0161999
-0.0161273
-0.0160973
-0.0161469
-0.0162892
-0.0166156
-0.0171719
-0.0179436
-0.0190308
-0.0161999
0.00389573
-0.0161273
0.00424307
-0.0160973
0.00351285
-0.0161469
0.00437469
-0.0162892
0.00374703
-0.0166156
0.00424609
-0.0171719
0.00275201
-0.0179436
0.000878198
-0.0190308
-0.00523452
-0.0127133
-0.0161883
0.00379642
-0.0161102
0.00416494
-0.0160806
0.00348332
-0.0161224
0.0044165
-0.0162603
0.00388494
-0.0165845
0.00457021
-0.0171695
0.00333704
-0.0180323
0.001741
-0.0191703
-0.00409649
-0.0123624
-0.0161642
0.00368878
-0.0160819
0.00408266
-0.0160527
0.00345415
-0.0160929
0.00445675
-0.0162334
0.00402535
-0.0165709
0.00490772
-0.0171939
0.00396008
-0.0181056
0.00265263
-0.0192496
-0.00295239
-0.0120091
-0.0161247
0.00357165
-0.0160387
0.00399665
-0.0160103
0.00342579
-0.016048
0.00449447
-0.0161876
0.00416488
-0.0165278
0.00524799
-0.0171782
0.00461043
-0.018162
0.00363642
-0.0193756
-0.00173878
-0.0116055
-0.0160587
0.00344234
-0.0159662
0.00390423
-0.015936
0.00339557
-0.0159668
0.00452524
-0.0161015
0.00429955
-0.0164372
0.00558371
-0.0171053
0.00527854
-0.0181351
0.00466627
-0.0194219
-0.000451998
-0.0110033
-0.0159375
0.00329177
-0.0158265
0.00379321
-0.0157824
0.00335143
-0.0157878
0.00453067
-0.015897
0.00440876
-0.0161916
0.00587834
-0.0168293
0.00591619
-0.0178791
0.00571607
-0.0193007
0.000969579
-0.00990995
-0.0157116
0.00309776
-0.015551
0.00363266
-0.0154631
0.00326347
-0.0154004
0.00446806
-0.0154397
0.00444802
-0.0156267
0.0060653
-0.0161469
0.0064364
-0.0170955
0.00666466
-0.0185904
0.0024645
-0.00774512
-0.0153213
0.00281992
-0.0150539
0.00336524
-0.0148634
0.00307297
-0.0146475
0.00425218
-0.0145164
0.00431697
-0.0144351
0.005984
-0.0145977
0.00659896
-0.0151268
0.00719377
-0.0164702
0.00380786
-0.00381604
-0.0147379
0.00240495
-0.0142881
0.00291543
-0.0139136
0.00269849
-0.0134274
0.00376601
-0.0129844
0.00387397
-0.0124184
0.00541802
-0.0119032
0.00608375
-0.0114365
0.006727
-0.0115859
0.00395729
0.00163664
-0.0140174
-0.0133251
-0.0127007
-0.0118526
-0.0109942
-0.00980051
-0.00842655
-0.00666039
-0.00396712
)
;

boundaryField
{
    inlet
    {
        type            calculated;
        value           nonuniform List<scalar> 
40
(
-0.00353553
-0.00353553
-0.00353553
-0.00353553
-0.00353553
-0.00353553
-0.00353553
-0.00353553
-0.00353553
-0.00353553
-0.00353553
-0.00353553
-0.00353553
-0.00353553
-0.00353553
-0.00353553
-0.00353553
-0.00353553
-0.00353553
-0.00353553
-0.0164645
-0.0164645
-0.0164645
-0.0164645
-0.0164645
-0.0164645
-0.0164645
-0.0164645
-0.0164645
-0.0164645
-0.0164645
-0.0164645
-0.0164645
-0.0164645
-0.0164645
-0.0164645
-0.0164645
-0.0164645
-0.0164645
-0.0164645
)
;
    }
    outlet
    {
        type            calculated;
        value           nonuniform List<scalar> 
40
(
0.00307054
0.00304776
0.00302638
0.00300675
0.00298919
0.00297402
0.0029615
0.00295187
0.00294533
0.00294202
0.00294202
0.00294533
0.00295187
0.0029615
0.00297402
0.00298919
0.00300675
0.00302638
0.00304776
0.00307054
0.0146129
0.0151528
0.0155991
0.0159056
0.0160881
0.016188
0.0162418
0.0162718
0.0162876
0.0162928
0.0162928
0.0162876
0.0162718
0.0162418
0.016188
0.0160881
0.0159056
0.0155991
0.0151528
0.0146129
)
;
    }
    polygon
    {
        type            calculated;
        value           uniform 0;
    }
    top
    {
        type            symmetryPlane;
        value           uniform 0;
    }
    bottom
    {
        type            symmetryPlane;
        value           uniform 0;
    }
    outside
    {
        type            calculated;
        value           nonuniform List<scalar> 
80
(
0.000358997
0.000359546
0.000359896
0.000360007
0.000359892
0.000359537
0.000359072
0.000358229
0.000357845
0.00035535
0.000342917
0.000347015
0.000349272
0.000351278
0.000353095
0.000354711
0.000356061
0.000357074
0.000357894
0.000358238
0.000358238
0.000357894
0.000357074
0.000356061
0.000354711
0.000353095
0.000351278
0.000349272
0.000347015
0.000342917
0.00035535
0.000357845
0.000358229
0.000359072
0.000359537
0.000359892
0.000360007
0.000359896
0.000359546
0.000358997
-0.000423872
0.000683564
-0.000760133
0.000849921
-0.000529126
0.00175421
-0.000268341
0.00302617
0.00151308
0.00505928
-0.000423872
0.000683564
-0.000760133
0.000849921
-0.000529126
0.00175421
-0.000268341
0.00302617
0.00151308
0.00505928
-0.00398856
-0.00431571
-0.0035429
-0.00432509
-0.00360469
-0.00391967
-0.00219575
-0.000106444
0.00632163
0.0131006
-0.00398856
-0.00431571
-0.0035429
-0.00432509
-0.00360469
-0.00391967
-0.00219575
-0.000106444
0.00632163
0.0131006
)
;
    }
}


// ************************************************************************* //
