/*--------------------------------*- C++ -*----------------------------------*\
  =========                 |
  \\      /  F ield         | OpenFOAM: The Open Source CFD Toolbox
   \\    /   O peration     | Website:  https://openfoam.org
    \\  /    A nd           | Version:  10
     \\/     M anipulation  |
\*---------------------------------------------------------------------------*/
FoamFile
{
    format      ascii;
    class       volVectorField;
    location    "15";
    object      U;
}
// * * * * * * * * * * * * * * * * * * * * * * * * * * * * * * * * * * * * * //

dimensions      [0 1 -1 0 0 0 0];

internalField   nonuniform List<vector> 
1200
(
(0.868478 -0.0149056 1.42872e-20)
(0.783443 -0.0183217 -2.03787e-21)
(0.764611 -0.0171344 4.30402e-19)
(0.691108 -0.0241263 -3.69299e-20)
(0.632858 -0.0250189 2.76808e-19)
(0.559797 -0.0351371 3.40924e-18)
(0.446257 -0.0392947 -4.20201e-18)
(0.346498 -0.0414704 -3.01119e-18)
(0.194085 -0.00886246 1.9463e-17)
(0.125994 -0.0211794 1.91747e-17)
(0.862035 -0.0135713 3.5394e-20)
(0.772357 -0.0167019 -3.42232e-21)
(0.752046 -0.0156559 1.98625e-19)
(0.673457 -0.0220381 -1.0286e-19)
(0.611121 -0.0228753 2.7163e-19)
(0.531794 -0.0320817 4.39036e-18)
(0.410245 -0.0357931 3.31357e-18)
(0.302748 -0.0374141 -6.94653e-18)
(0.14449 -0.00650183 1.06406e-17)
(0.124239 -0.0165569 -1.77224e-17)
(0.855989 -0.0121684 7.47464e-20)
(0.761909 -0.0149892 -1.49151e-20)
(0.740217 -0.014084 8.67217e-21)
(0.656765 -0.0198164 -8.51282e-20)
(0.590609 -0.0205956 2.45185e-19)
(0.505307 -0.0288603 3.17319e-18)
(0.376383 -0.0321579 2.43516e-18)
(0.262057 -0.0333661 1.03221e-17)
(0.100644 -0.00413955 7.97873e-18)
(0.122474 -0.01293 -1.10081e-17)
(0.850437 -0.0106984 1.55406e-19)
(0.752276 -0.0131883 -3.31073e-20)
(0.729325 -0.0124198 -1.89544e-19)
(0.641334 -0.01747 -1.05088e-19)
(0.571682 -0.0181819 2.43112e-19)
(0.480812 -0.0254629 3.4866e-18)
(0.345235 -0.0283363 2.76268e-18)
(0.224964 -0.0291739 1.05448e-17)
(0.0624958 -0.0024329 8.29117e-18)
(0.120621 -0.00996134 -1.17543e-17)
(0.845471 -0.00916706 3.24912e-19)
(0.743633 -0.0113074 -5.21517e-20)
(0.719562 -0.0106697 -5.40199e-19)
(0.627453 -0.0150051 -1.96084e-20)
(0.554688 -0.0156349 2.5951e-19)
(0.458772 -0.0218832 1.13698e-18)
(0.317344 -0.0243229 3.70205e-18)
(0.191988 -0.0248686 1.69757e-17)
(0.0299665 -0.0011739 1.43587e-17)
(0.118694 -0.00750312 -1.98426e-17)
(0.841178 -0.00758118 1.58813e-19)
(0.736142 -0.00935552 -7.64955e-20)
(0.71111 -0.00884305 -1.1565e-18)
(0.615399 -0.0124344 4.18623e-20)
(0.539955 -0.0129699 3.6851e-19)
(0.439628 -0.0181457 3.47883e-18)
(0.293215 -0.0201506 7.00354e-18)
(0.163619 -0.020489 9.20103e-18)
(0.00297035 -0.000382628 2.87669e-17)
(0.11678 -0.00550389 -3.94249e-17)
(0.837636 -0.00594859 7.81215e-20)
(0.72995 -0.007343 -7.97089e-20)
(0.704131 -0.00695117 -1.20015e-18)
(0.60542 -0.00977353 7.39704e-20)
(0.527776 -0.0102048 1.342e-19)
(0.423775 -0.0142753 3.35498e-18)
(0.273308 -0.0158452 3.34118e-18)
(0.140302 -0.0160432 5.45952e-18)
(-0.0185696 0.000123538 8.55385e-18)
(0.115002 -0.00388581 -2.72181e-17)
(0.834913 -0.004278 3.7874e-20)
(0.725182 -0.00528123 -8.14254e-20)
(0.698762 -0.00500689 -6.26123e-19)
(0.597728 -0.00704056 1.02989e-19)
(0.518402 -0.0073582 2.69706e-19)
(0.411556 -0.0102957 4.93737e-18)
(0.258012 -0.0114331 1.21337e-18)
(0.122434 -0.0115817 4.31054e-18)
(-0.0347102 0.000164259 -6.73806e-18)
(0.113493 -0.00257085 2.45606e-17)
(0.833064 -0.002579 1.67901e-20)
(0.721941 -0.00318241 -9.20562e-20)
(0.695114 -0.00302428 -3.72394e-19)
(0.592496 -0.00425594 3.72408e-19)
(0.512033 -0.00445514 4.04341e-19)
(0.403245 -0.00623469 4.96411e-18)
(0.247635 -0.00691637 -5.69685e-19)
(0.110322 -0.00695783 5.6344e-18)
(-0.0454807 0.000259447 2.29128e-17)
(0.112395 -0.00145834 3.65258e-17)
(0.832127 -0.000861967 -2.5943e-21)
(0.720299 -0.00106038 -1.35975e-19)
(0.693268 -0.00101264 -3.05116e-19)
(0.589845 -0.00142695 3.27397e-19)
(0.508811 -0.00151139 2.67926e-19)
(0.399038 -0.00214474 3.51362e-18)
(0.242396 -0.00242839 -2.94695e-18)
(0.104214 -0.00258388 1.01611e-17)
(-0.0508869 -4.36567e-05 1.65582e-17)
(0.111796 -0.0005084 1.57408e-17)
(1.17048 0.101256 -3.36624e-18)
(1.17551 0.114696 1.53653e-17)
(1.17933 0.117793 -1.73792e-18)
(1.18869 0.130756 2.0276e-17)
(1.20267 0.13711 -7.05936e-18)
(1.2233 0.152914 -1.44876e-17)
(1.2582 0.162128 -1.16242e-17)
(1.31389 0.192466 -1.36988e-17)
(1.35053 0.183915 -2.23408e-17)
(1.26047 0.184593 -5.49884e-17)
(1.17197 0.101387 1.09942e-18)
(1.17716 0.113806 1.77903e-17)
(1.18105 0.116417 -5.01814e-18)
(1.19054 0.128329 2.74689e-17)
(1.2046 0.133587 -7.33373e-18)
(1.22576 0.147501 -1.35949e-17)
(1.26044 0.153512 8.1129e-19)
(1.31569 0.179029 -1.04537e-17)
(1.325 0.142417 1.17927e-17)
(1.06907 0.138618 -2.13761e-18)
(1.17333 0.101454 -9.30829e-18)
(1.17874 0.112866 3.97279e-19)
(1.18289 0.114975 8.97025e-18)
(1.19275 0.1258 3.1927e-17)
(1.20737 0.129853 -4.93695e-18)
(1.2299 0.141756 -1.12571e-17)
(1.26556 0.144138 1.50664e-17)
(1.31825 0.163148 -1.11533e-17)
(1.30819 0.113169 -1.35671e-17)
(0.912356 0.106827 -1.78434e-18)
(1.17455 0.101453 -1.05727e-17)
(1.18019 0.111863 1.14199e-17)
(1.18459 0.113442 6.10793e-18)
(1.19485 0.123134 3.86949e-17)
(1.20998 0.125849 -9.8288e-18)
(1.23372 0.135571 -7.36624e-18)
(1.26988 0.134116 1.8826e-17)
(1.31664 0.145637 -4.81234e-18)
(1.28333 0.0882502 -1.3417e-17)
(0.800847 0.0807817 1.73172e-18)
(1.17563 0.101394 2.01091e-18)
(1.18147 0.110812 9.69224e-18)
(1.18606 0.111846 1.61802e-17)
(1.19659 0.120381 3.32935e-17)
(1.21202 0.121686 3.39354e-18)
(1.2365 0.129136 -6.5496e-18)
(1.2723 0.123835 2.40562e-19)
(1.31104 0.12766 -2.49896e-17)
(1.25091 0.0659829 -1.00451e-17)
(0.697256 0.058199 -1.33187e-18)
(1.17657 0.101273 -1.12811e-19)
(1.18256 0.109712 1.13879e-17)
(1.18729 0.110187 2.36116e-17)
(1.19799 0.117543 2.8485e-17)
(1.21352 0.117358 6.41892e-18)
(1.2383 0.122393 -5.68233e-18)
(1.27287 0.113074 -6.41524e-18)
(1.30203 0.109121 -2.39212e-17)
(1.21454 0.0455398 -1.66941e-17)
(0.601753 0.0381902 4.47988e-17)
(1.17741 0.101126 1.09028e-17)
(1.18351 0.108616 2.23885e-18)
(1.18832 0.108542 3.12479e-17)
(1.19911 0.114749 2.52255e-17)
(1.21462 0.113102 -8.10203e-18)
(1.23939 0.115783 -1.00988e-17)
(1.27227 0.102646 1.06141e-17)
(1.29117 0.0911614 -1.83061e-17)
(1.17721 0.0263593 1.45953e-17)
(0.517526 0.0192646 3.70217e-17)
(1.17807 0.100877 9.55291e-18)
(1.18424 0.107417 -8.8756e-18)
(1.18911 0.10676 3.1237e-17)
(1.19991 0.111752 1.78497e-17)
(1.21526 0.108474 -1.08728e-17)
(1.23966 0.108432 8.30782e-18)
(1.26982 0.0908584 9.00127e-18)
(1.27642 0.0712116 -1.7256e-17)
(1.1352 0.00624594 1.70455e-17)
(0.443856 6.78988e-06 2.68424e-17)
(1.17876 0.100761 5.61395e-18)
(1.18499 0.106442 -7.3554e-18)
(1.18987 0.105299 1.69247e-17)
(1.2006 0.109279 2.4944e-17)
(1.21566 0.104734 2.70348e-18)
(1.23936 0.102638 2.6336e-18)
(1.26669 0.0819053 7.1776e-18)
(1.26269 0.0558491 -1.3668e-17)
(1.09746 -0.011277 1.62393e-17)
(0.381856 -0.020631 1.68217e-17)
(1.17899 0.10014 1.34461e-17)
(1.18521 0.104817 -5.4569e-18)
(1.1901 0.102964 1.4468e-17)
(1.20075 0.105482 3.12228e-17)
(1.21557 0.0987984 2.75518e-18)
(1.23835 0.0929835 1.57155e-17)
(1.26118 0.066016 3.93831e-18)
(1.24151 0.0291488 -1.25948e-17)
(1.0434 -0.0399111 1.46646e-17)
(0.317141 -0.0390995 1.40859e-17)
(1.14511 0.0977848 1.68949e-17)
(1.14536 0.123345 -8.81984e-18)
(1.14813 0.134286 4.12918e-18)
(1.15204 0.159174 -6.6724e-18)
(1.16152 0.181004 -7.95448e-18)
(1.17443 0.215879 -4.26748e-17)
(1.19008 0.251859 3.61611e-17)
(1.20707 0.322078 -1.48837e-17)
(1.21222 0.386805 7.99672e-19)
(0.982748 0.432521 2.88466e-18)
(1.15065 0.0984378 1.47012e-17)
(1.15184 0.122731 -7.36662e-18)
(1.15525 0.132908 6.60445e-18)
(1.1606 0.156747 -9.3366e-18)
(1.17156 0.177111 -8.16363e-18)
(1.18649 0.211041 -7.54757e-18)
(1.20562 0.245837 3.11267e-17)
(1.22621 0.315046 -1.50406e-19)
(1.23721 0.384045 -1.82101e-20)
(0.991841 0.419407 2.60807e-18)
(1.15407 0.0990102 1.18961e-17)
(1.15585 0.122039 -6.91157e-18)
(1.15926 0.131428 -1.32614e-18)
(1.16538 0.15419 2.52399e-18)
(1.1767 0.173072 -3.24013e-18)
(1.19264 0.205791 -2.41753e-17)
(1.21473 0.239112 3.15928e-17)
(1.23941 0.306321 1.1101e-17)
(1.25807 0.378928 7.3561e-19)
(1.00542 0.405643 1.5429e-18)
(1.15637 0.0995193 1.02502e-17)
(1.15866 0.121312 -4.89595e-18)
(1.16204 0.129902 -1.18999e-17)
(1.16882 0.151557 1.99816e-18)
(1.18062 0.168923 -1.4822e-17)
(1.19767 0.200125 -3.43091e-18)
(1.22293 0.231583 1.52118e-17)
(1.25244 0.29586 2.8892e-17)
(1.27882 0.370985 2.19567e-18)
(1.02395 0.39059 1.83857e-18)
(1.15853 0.0999599 5.38545e-18)
(1.16135 0.120529 -8.41816e-18)
(1.16486 0.128306 -1.0223e-17)
(1.17233 0.148798 2.6162e-18)
(1.18486 0.164592 -1.28637e-17)
(1.20319 0.194 -1.77563e-17)
(1.23157 0.223211 7.70679e-18)
(1.26617 0.283715 1.9214e-17)
(1.29952 0.359779 1.07816e-18)
(1.04632 0.373762 1.33398e-18)
(1.16079 0.100325 1.73326e-17)
(1.16414 0.119669 4.74081e-18)
(1.16783 0.126619 -8.84353e-18)
(1.17595 0.145888 -2.14151e-18)
(1.18922 0.160054 -1.09643e-17)
(1.20868 0.18743 -1.04724e-17)
(1.23975 0.213995 2.15509e-17)
(1.27934 0.270038 3.50262e-17)
(1.32064 0.345345 3.48989e-18)
(1.07674 0.354885 -2.46464e-18)
(1.16305 0.10062 7.2917e-18)
(1.16688 0.118741 1.28506e-18)
(1.17072 0.124863 -6.68876e-18)
(1.17939 0.142874 1.0842e-17)
(1.19321 0.155398 -9.85671e-18)
(1.21355 0.180577 -2.33583e-17)
(1.24684 0.204174 2.18512e-17)
(1.29132 0.254987 3.29244e-17)
(1.33849 0.326087 -3.58433e-19)
(1.10934 0.332474 4.21291e-18)
(1.16515 0.100838 -4.4314e-18)
(1.16941 0.11774 1.06436e-17)
(1.17335 0.123022 -7.09408e-18)
(1.18241 0.13973 5.61426e-18)
(1.19662 0.150569 -9.06336e-18)
(1.21749 0.173367 -2.13007e-17)
(1.25243 0.193474 7.47752e-18)
(1.30139 0.238752 2.74039e-17)
(1.3582 0.302881 1.07647e-17)
(1.16184 0.306981 -1.95508e-17)
(1.16709 0.101015 -3.67856e-18)
(1.1717 0.116728 1.0187e-17)
(1.17569 0.121226 -4.81318e-18)
(1.18506 0.13666 1.6731e-17)
(1.1995 0.145919 -8.18175e-18)
(1.22079 0.166356 -1.92773e-17)
(1.25696 0.182979 -1.1551e-17)
(1.3098 0.222299 2.8574e-17)
(1.36585 0.271411 -1.69856e-17)
(1.201 0.274059 -6.18641e-17)
(1.16884 0.101068 -3.24029e-18)
(1.17374 0.115578 5.29104e-18)
(1.17769 0.119181 -4.27074e-18)
(1.18716 0.133218 1.20042e-17)
(1.20157 0.140677 -7.20733e-18)
(1.2226 0.158457 -1.56803e-17)
(1.25876 0.170424 -9.40849e-18)
(1.31421 0.204695 1.10741e-17)
(1.38391 0.235448 -6.27551e-18)
(1.29637 0.238113 -4.75708e-17)
(1.0333 -1.81856e-05 -2.51446e-20)
(0.966653 7.66401e-05 3.99416e-20)
(1.03181 -4.2336e-05 -6.60495e-19)
(0.964789 0.000172431 5.95733e-19)
(1.0282 4.47307e-05 -3.0063e-18)
(0.954567 0.000874126 -6.09781e-19)
(0.991601 0.000197472 -1.87747e-18)
(0.929452 0.00392014 4.68625e-18)
(0.807456 0.00357695 -1.61924e-17)
(0.7352 0.0242761 2.28066e-18)
(1.03329 -4.59848e-05 2.65358e-21)
(0.966623 0.000205167 -1.70112e-20)
(1.03187 -0.000107631 -1.16409e-18)
(0.964666 0.000445744 2.89835e-19)
(1.02839 0.000148465 -4.02292e-18)
(0.954149 0.00231192 -4.47974e-19)
(0.992177 0.000540343 -2.59352e-18)
(0.928035 0.0102337 5.57986e-18)
(0.810278 0.00914048 -6.73418e-18)
(0.736792 0.0744113 -4.75466e-18)
(1.03326 -7.44261e-05 1.24709e-21)
(0.966571 0.000337232 -3.14864e-19)
(1.03199 -0.000173154 -5.23255e-19)
(0.964435 0.000739962 4.83154e-19)
(1.02877 0.000274264 -3.18864e-18)
(0.953364 0.00384156 -2.10234e-19)
(0.993428 0.00104243 -3.90856e-18)
(0.925573 0.0171141 2.28466e-18)
(0.815687 0.0160079 -6.97273e-19)
(0.739664 0.122745 -1.66006e-17)
(1.03321 -9.77774e-05 -2.22474e-20)
(0.966511 0.000458782 -4.07948e-19)
(1.03214 -0.000226428 1.94109e-20)
(0.964124 0.00100746 5.99164e-19)
(1.02932 0.000433277 -3.93689e-18)
(0.952281 0.00527177 -6.98685e-20)
(0.995284 0.00163104 -6.65166e-18)
(0.922274 0.0235487 2.98857e-19)
(0.823613 0.0225801 3.61607e-18)
(0.74379 0.170583 -5.18707e-17)
(1.03313 -0.000117175 -9.04914e-20)
(0.966462 0.000572386 -2.43074e-19)
(1.03231 -0.000269413 6.24385e-19)
(0.963773 0.00126212 5.8329e-19)
(1.02998 0.000629386 -2.76175e-18)
(0.951004 0.00665805 -2.30273e-19)
(0.997634 0.00236071 -6.54773e-19)
(0.918411 0.029868 -5.58131e-19)
(0.833917 0.0294807 5.11328e-18)
(0.749104 0.21806 -3.1691e-17)
(1.03301 -0.000131649 -1.81305e-19)
(0.966449 0.00067599 -1.97993e-19)
(1.03246 -0.000299845 1.54837e-18)
(0.963433 0.00149653 4.34206e-19)
(1.03068 0.00086676 -3.00209e-18)
(0.949656 0.00797276 -2.8568e-19)
(1.0003 0.00322297 5.01653e-18)
(0.914272 0.0358962 -1.38647e-18)
(0.846389 0.0364024 7.65639e-18)
(0.75556 0.265207 -1.94387e-17)
(1.03283 -0.000141295 8.92284e-20)
(0.966499 0.000769368 -1.8715e-20)
(1.03256 -0.000317657 1.59835e-18)
(0.963157 0.00171116 6.09964e-19)
(1.03135 0.00114532 -1.05059e-18)
(0.948382 0.00921581 3.25678e-19)
(1.00307 0.00422556 1.64877e-18)
(0.910217 0.0416126 -2.86628e-18)
(0.860687 0.0434102 1.43664e-17)
(0.763107 0.312132 -1.24713e-17)
(1.03257 -0.000146893 -7.59482e-20)
(0.966638 0.000852779 -2.10361e-19)
(1.03259 -0.000324499 8.1176e-19)
(0.963002 0.00190692 2.07299e-19)
(1.03192 0.00146327 4.42535e-19)
(0.947331 0.0103838 5.9599e-19)
(1.00571 0.00535431 -1.24866e-18)
(0.906713 0.0469512 -5.0563e-18)
(0.876243 0.0503876 2.85902e-17)
(0.771717 0.358934 -7.41758e-18)
(1.03223 -0.000147183 -2.94991e-19)
(0.966893 0.000923063 -4.14124e-19)
(1.0325 -0.000315766 4.19965e-19)
(0.963022 0.00207701 -5.57087e-20)
(1.03231 0.00182534 2.14988e-18)
(0.94665 0.0114719 1.04009e-19)
(1.00799 0.0066049 5.57146e-18)
(0.904349 0.051858 -7.4167e-18)
(0.892112 0.0571124 1.52204e-17)
(0.781612 0.405519 -4.61659e-18)
(1.0318 -0.000149778 -1.84932e-19)
(0.96729 0.000996614 -2.02275e-19)
(1.03227 -0.000309046 2.1388e-19)
(0.963265 0.00226478 -9.75901e-20)
(1.03245 0.00218716 1.25797e-18)
(0.946464 0.0126037 -1.12075e-19)
(1.00971 0.00796577 3.69337e-18)
(0.903832 0.0567188 -5.73091e-18)
(0.906746 0.066399 8.25612e-18)
(0.796249 0.452715 -2.93844e-18)
(1.0318 0.000149778 -2.36018e-19)
(0.96729 -0.000996614 -6.26316e-20)
(1.03227 0.000309046 -1.97207e-20)
(0.963265 -0.00226478 3.11913e-21)
(1.03245 -0.00218716 -1.2811e-20)
(0.946464 -0.0126037 1.26082e-19)
(1.00971 -0.00796577 -1.96045e-18)
(0.903832 -0.0567188 -5.24738e-19)
(0.906746 -0.066399 -2.89096e-17)
(0.796249 -0.452715 -1.21255e-17)
(1.03223 0.000147183 -3.93399e-19)
(0.966893 -0.000923063 -7.84726e-20)
(1.0325 0.000315765 1.87934e-21)
(0.963022 -0.00207701 -3.77297e-21)
(1.03231 -0.00182534 3.605e-20)
(0.94665 -0.0114719 6.28094e-21)
(1.00799 -0.0066049 -3.60908e-18)
(0.904349 -0.051858 -2.97634e-18)
(0.892112 -0.0571124 -1.62548e-17)
(0.781612 -0.405519 -1.44901e-17)
(1.03257 0.000146893 -2.02904e-19)
(0.966638 -0.000852779 -1.23101e-19)
(1.03259 0.000324499 -8.08319e-21)
(0.963002 -0.00190692 5.60241e-21)
(1.03192 -0.00146327 8.83533e-21)
(0.947331 -0.0103838 -4.39302e-19)
(1.00571 -0.00535431 3.60116e-18)
(0.906713 -0.0469512 -1.20909e-18)
(0.876243 -0.0503876 -1.4387e-17)
(0.771717 -0.358934 -1.92264e-17)
(1.03283 0.000141295 -7.47053e-20)
(0.966499 -0.000769368 -2.58953e-19)
(1.03256 0.000317657 -2.13116e-20)
(0.963157 -0.00171116 1.57748e-20)
(1.03135 -0.00114532 -9.52703e-21)
(0.948382 -0.00921581 -6.27243e-19)
(1.00307 -0.00422556 1.27058e-18)
(0.910217 -0.0416126 4.9763e-18)
(0.860687 -0.0434102 -2.13896e-17)
(0.763107 -0.312132 -1.05558e-17)
(1.03301 0.000131649 5.74817e-21)
(0.966449 -0.00067599 1.7307e-21)
(1.03246 0.000299845 -1.11899e-20)
(0.963433 -0.00149653 2.91329e-20)
(1.03068 -0.00086676 -1.08533e-19)
(0.949656 -0.00797276 -2.64272e-19)
(1.0003 -0.00322297 3.57237e-19)
(0.914272 -0.0358962 4.00405e-18)
(0.846389 -0.0364024 -3.91169e-17)
(0.75556 -0.265207 -1.05243e-17)
(1.03313 0.000117174 7.94667e-20)
(0.966462 -0.000572386 2.5848e-19)
(1.03231 0.000269413 -1.26264e-20)
(0.963773 -0.00126212 6.24617e-20)
(1.02998 -0.000629386 -2.18289e-19)
(0.951004 -0.00665805 2.01365e-20)
(0.997634 -0.00236071 -1.60274e-19)
(0.918411 -0.029868 1.50296e-18)
(0.833917 -0.0294807 -3.32049e-17)
(0.749104 -0.21806 1.31465e-17)
(1.03321 9.77773e-05 1.60797e-19)
(0.966511 -0.000458782 9.82585e-20)
(1.03214 0.000226427 -5.68318e-20)
(0.964124 -0.00100746 1.06762e-19)
(1.02932 -0.000433277 -4.75239e-19)
(0.952281 -0.00527177 2.70398e-19)
(0.995284 -0.00163104 -6.0997e-19)
(0.922274 -0.0235487 3.84289e-18)
(0.823613 -0.0225801 -4.38577e-17)
(0.74379 -0.170583 3.03499e-17)
(1.03326 7.4426e-05 -1.81278e-19)
(0.966571 -0.000337232 1.59789e-20)
(1.03199 0.000173154 -9.73019e-20)
(0.964435 -0.000739962 1.719e-19)
(1.02877 -0.000274264 -8.53319e-19)
(0.953364 -0.00384156 4.07409e-20)
(0.993428 -0.00104243 -6.86721e-19)
(0.925573 -0.0171141 4.31217e-18)
(0.815687 -0.0160079 -2.75522e-17)
(0.739664 -0.122745 2.17606e-17)
(1.03329 4.59848e-05 -1.09765e-19)
(0.966623 -0.000205167 2.1611e-20)
(1.03187 0.000107631 -1.95077e-19)
(0.964666 -0.000445743 2.51887e-19)
(1.02839 -0.000148465 -1.72008e-18)
(0.954149 -0.00231192 -2.13405e-19)
(0.992177 -0.000540343 -1.00431e-18)
(0.928035 -0.0102337 4.56397e-18)
(0.810278 -0.00914048 -2.61233e-17)
(0.736792 -0.0744113 2.9779e-17)
(1.0333 1.81856e-05 -6.04025e-20)
(0.966653 -7.664e-05 3.57041e-20)
(1.03181 4.23358e-05 -3.80046e-19)
(0.964789 -0.000172431 2.00731e-19)
(1.0282 -4.47308e-05 -3.51063e-18)
(0.954567 -0.000874126 -4.73492e-19)
(0.991601 -0.000197472 -1.1615e-18)
(0.929452 -0.00392014 4.95395e-18)
(0.807456 -0.00357695 -3.55575e-17)
(0.7352 -0.0242761 9.17798e-18)
(1.16884 -0.101068 -6.08898e-18)
(1.17374 -0.115578 -1.53863e-17)
(1.17769 -0.119181 -7.36754e-18)
(1.18716 -0.133218 -1.39029e-17)
(1.20157 -0.140677 -4.37407e-18)
(1.2226 -0.158457 -1.80403e-17)
(1.25876 -0.170424 3.41118e-17)
(1.31421 -0.204695 6.55681e-18)
(1.38391 -0.235448 -6.00351e-18)
(1.29637 -0.238113 6.30587e-18)
(1.16709 -0.101015 4.4908e-18)
(1.1717 -0.116728 -5.64019e-18)
(1.17569 -0.121226 -2.35385e-18)
(1.18506 -0.13666 -1.66377e-17)
(1.1995 -0.145919 -1.00544e-17)
(1.22079 -0.166356 1.96796e-17)
(1.25696 -0.182979 3.28714e-17)
(1.3098 -0.222299 -2.53269e-17)
(1.36585 -0.271411 -3.26761e-18)
(1.201 -0.274059 1.55656e-18)
(1.16515 -0.100838 1.52107e-18)
(1.16941 -0.11774 -9.62189e-18)
(1.17335 -0.123022 -5.73525e-18)
(1.18241 -0.13973 -1.87871e-17)
(1.19662 -0.150569 6.05291e-18)
(1.21749 -0.173367 9.52887e-18)
(1.25243 -0.193474 2.05906e-17)
(1.30139 -0.238752 4.11251e-18)
(1.3582 -0.302881 -3.28627e-18)
(1.16184 -0.306981 6.36592e-18)
(1.16305 -0.10062 3.56955e-18)
(1.16688 -0.118741 -1.01575e-17)
(1.17072 -0.124863 -4.86161e-18)
(1.17939 -0.142874 -2.1723e-17)
(1.19321 -0.155398 1.99696e-18)
(1.21355 -0.180577 -2.13847e-18)
(1.24684 -0.204174 9.68358e-18)
(1.29132 -0.254987 -3.01903e-17)
(1.33849 -0.326087 2.39246e-17)
(1.10934 -0.332474 5.01765e-17)
(1.16079 -0.100325 1.5422e-17)
(1.16414 -0.119669 -2.39953e-17)
(1.16783 -0.126619 -1.76354e-17)
(1.17595 -0.145888 -2.44844e-17)
(1.18922 -0.160054 -9.726e-18)
(1.20868 -0.18743 4.23753e-19)
(1.23975 -0.213995 1.58418e-17)
(1.27934 -0.270038 2.15117e-17)
(1.32064 -0.345345 1.60766e-17)
(1.07674 -0.354885 5.59623e-18)
(1.15853 -0.0999599 3.14013e-18)
(1.16135 -0.120529 -1.22601e-17)
(1.16486 -0.128306 -2.00159e-18)
(1.17233 -0.148798 -2.68924e-17)
(1.18486 -0.164592 -2.18405e-17)
(1.20319 -0.194 -9.16877e-19)
(1.23157 -0.223211 1.62983e-17)
(1.26617 -0.283715 2.54006e-17)
(1.29952 -0.359779 2.15253e-17)
(1.04632 -0.373762 5.77827e-17)
(1.15637 -0.0995193 8.62175e-18)
(1.15866 -0.121312 -6.99009e-18)
(1.16204 -0.129902 -6.32004e-18)
(1.16882 -0.151557 -3.1228e-17)
(1.18062 -0.168923 -2.05567e-17)
(1.19767 -0.200125 -9.52092e-19)
(1.22293 -0.231583 1.87853e-17)
(1.25244 -0.29586 2.87409e-17)
(1.27882 -0.370985 2.32703e-17)
(1.02395 -0.39059 5.3368e-17)
(1.15407 -0.0990102 8.30472e-18)
(1.15585 -0.122039 1.0193e-18)
(1.15926 -0.131428 -5.25204e-18)
(1.16538 -0.15419 -2.22128e-17)
(1.1767 -0.173072 -2.48436e-17)
(1.19264 -0.205791 -5.34721e-19)
(1.21473 -0.239112 3.80078e-17)
(1.23941 -0.306321 5.14035e-17)
(1.25807 -0.378928 2.36205e-17)
(1.00542 -0.405643 3.89908e-17)
(1.15065 -0.0984378 -1.24868e-18)
(1.15184 -0.122731 -1.07665e-18)
(1.15525 -0.132908 -7.14453e-18)
(1.1606 -0.156747 -3.00004e-17)
(1.17156 -0.177111 -2.80373e-17)
(1.18649 -0.211041 4.46202e-20)
(1.20562 -0.245837 3.76094e-17)
(1.22621 -0.315046 5.08681e-17)
(1.23721 -0.384045 5.16772e-18)
(0.991841 -0.419407 5.26458e-17)
(1.14511 -0.0977848 -9.02545e-18)
(1.14536 -0.123345 9.547e-18)
(1.14813 -0.134286 -8.83196e-18)
(1.15204 -0.159174 -3.2345e-17)
(1.16152 -0.181004 -1.95803e-17)
(1.17443 -0.215879 1.89406e-19)
(1.19008 -0.251859 5.90503e-17)
(1.20707 -0.322078 5.93004e-17)
(1.21222 -0.386805 -8.52867e-18)
(0.982748 -0.432521 3.89247e-17)
(1.17899 -0.10014 1.49073e-17)
(1.18521 -0.104817 -6.01323e-18)
(1.1901 -0.102964 -5.81972e-18)
(1.20075 -0.105482 -3.69779e-18)
(1.21557 -0.0987984 -1.11479e-17)
(1.23835 -0.0929835 1.13156e-17)
(1.26118 -0.066016 -3.29644e-17)
(1.24151 -0.0291488 -3.9798e-18)
(1.0434 0.0399111 -5.46112e-17)
(0.317141 0.0390995 2.79124e-17)
(1.17876 -0.100761 1.67861e-17)
(1.18499 -0.106442 -7.18414e-18)
(1.18987 -0.105299 -5.0868e-18)
(1.2006 -0.109279 1.12381e-17)
(1.21566 -0.104734 -1.28285e-17)
(1.23936 -0.102638 1.44786e-17)
(1.26669 -0.0819053 -1.97008e-17)
(1.26269 -0.0558491 -4.19529e-19)
(1.09746 0.011277 -3.32176e-17)
(0.381856 0.020631 3.71148e-17)
(1.17807 -0.100877 1.98877e-17)
(1.18424 -0.107417 -8.15197e-18)
(1.18911 -0.10676 2.02269e-17)
(1.19991 -0.111752 8.65195e-18)
(1.21526 -0.108474 -2.39473e-19)
(1.23966 -0.108432 1.59075e-17)
(1.26982 -0.0908584 -2.83012e-17)
(1.27642 -0.0712116 -1.06987e-18)
(1.1352 -0.00624594 -5.03767e-17)
(0.443856 -6.78984e-06 -1.3906e-17)
(1.17741 -0.101126 1.09011e-17)
(1.18351 -0.108616 -9.48573e-18)
(1.18832 -0.108542 2.05433e-18)
(1.19911 -0.114749 -2.10139e-18)
(1.21462 -0.113102 -2.11403e-17)
(1.23939 -0.115783 3.89714e-18)
(1.27227 -0.102646 -1.07452e-17)
(1.29117 -0.0911614 1.06363e-18)
(1.17721 -0.0263593 -5.31958e-17)
(0.517526 -0.0192646 -2.52859e-17)
(1.17657 -0.101273 1.68921e-17)
(1.18256 -0.109712 -1.02314e-17)
(1.18729 -0.110187 8.74804e-18)
(1.19799 -0.117543 1.67277e-17)
(1.21352 -0.117358 -1.81713e-17)
(1.2383 -0.122393 -6.82868e-18)
(1.27287 -0.113074 -3.05122e-19)
(1.30203 -0.109121 3.61301e-18)
(1.21454 -0.0455398 -2.98096e-17)
(0.601753 -0.0381902 2.53396e-17)
(1.17563 -0.101394 1.89151e-17)
(1.18147 -0.110812 1.1995e-18)
(1.18606 -0.111846 -5.96923e-18)
(1.19659 -0.120381 9.22006e-19)
(1.21202 -0.121686 -2.2775e-17)
(1.2365 -0.129136 -4.54223e-18)
(1.2723 -0.123835 -5.56159e-18)
(1.31104 -0.12766 -1.79723e-17)
(1.25091 -0.0659829 -1.49951e-17)
(0.697256 -0.058199 2.86159e-17)
(1.17455 -0.101453 8.44815e-18)
(1.18019 -0.111863 -2.67506e-18)
(1.18459 -0.113442 -2.05877e-18)
(1.19485 -0.123134 8.06039e-18)
(1.20998 -0.125849 -9.16647e-18)
(1.23372 -0.135571 -6.69064e-18)
(1.26988 -0.134116 -3.72949e-18)
(1.31664 -0.145637 -1.23354e-17)
(1.28333 -0.0882502 -2.82633e-17)
(0.800847 -0.0807817 3.32446e-17)
(1.17333 -0.101454 1.17596e-18)
(1.17874 -0.112866 -2.24966e-18)
(1.18289 -0.114975 -3.8732e-18)
(1.19275 -0.1258 7.4507e-18)
(1.20737 -0.129853 -1.51396e-17)
(1.2299 -0.141756 -2.41568e-17)
(1.26556 -0.144138 -5.01949e-18)
(1.31825 -0.163148 -1.40153e-17)
(1.30819 -0.113169 -3.24479e-17)
(0.912356 -0.106827 3.62212e-17)
(1.17197 -0.101387 4.61984e-18)
(1.17716 -0.113806 -2.42138e-18)
(1.18105 -0.116417 -4.66058e-18)
(1.19054 -0.128329 -3.79416e-18)
(1.2046 -0.133587 -1.38618e-17)
(1.22576 -0.147501 -5.83779e-18)
(1.26044 -0.153512 1.30024e-17)
(1.31569 -0.179029 -1.38535e-17)
(1.325 -0.142417 -1.3498e-17)
(1.06907 -0.138618 4.11346e-17)
(1.17048 -0.101256 -9.39661e-18)
(1.17551 -0.114696 -1.61029e-17)
(1.17933 -0.117793 8.4112e-18)
(1.18869 -0.130756 -1.56363e-17)
(1.20267 -0.13711 -1.7089e-17)
(1.2233 -0.152914 2.39226e-18)
(1.2582 -0.162128 9.77235e-18)
(1.31389 -0.192466 -1.53391e-17)
(1.35053 -0.183915 -2.85585e-19)
(1.26047 -0.184593 -1.16877e-17)
(0.832127 0.000861967 -2.03732e-21)
(0.720299 0.00106039 -2.39556e-19)
(0.693268 0.00101264 -4.21622e-19)
(0.589845 0.00142695 1.66852e-19)
(0.508811 0.00151139 1.99547e-19)
(0.399038 0.00214474 3.92806e-18)
(0.242396 0.00242839 -6.37011e-18)
(0.104214 0.00258388 1.87389e-17)
(-0.0508869 4.36564e-05 1.96061e-17)
(0.111796 0.0005084 6.50966e-18)
(0.833064 0.002579 -9.69356e-22)
(0.721941 0.00318241 1.52443e-19)
(0.695114 0.00302428 -7.29238e-19)
(0.592496 0.00425594 5.65445e-20)
(0.512033 0.00445514 1.36155e-19)
(0.403245 0.00623469 2.44389e-18)
(0.247635 0.00691637 -2.68297e-18)
(0.110322 0.00695783 1.5243e-17)
(-0.0454807 -0.000259447 3.33712e-17)
(0.112395 0.00145834 -3.54485e-19)
(0.834913 0.004278 -1.93344e-20)
(0.725182 0.00528123 3.81899e-20)
(0.698762 0.00500689 -2.01935e-19)
(0.597728 0.00704056 -3.65057e-20)
(0.518402 0.0073582 7.89586e-20)
(0.411556 0.0102957 2.29224e-18)
(0.258012 0.0114331 -7.79901e-19)
(0.122434 0.0115817 1.93191e-17)
(-0.0347102 -0.000164259 1.70134e-17)
(0.113493 0.00257085 -8.53949e-18)
(0.837636 0.00594859 -5.7243e-20)
(0.72995 0.007343 -5.90278e-20)
(0.704131 0.00695117 2.25697e-19)
(0.60542 0.00977353 6.40798e-20)
(0.527776 0.0102048 -1.04506e-20)
(0.423775 0.0142753 -7.31193e-19)
(0.273308 0.0158452 2.71823e-19)
(0.140302 0.0160432 1.19439e-17)
(-0.0185696 -0.000123538 9.14417e-18)
(0.115002 0.00388581 -2.0474e-17)
(0.841178 0.00758118 -9.90071e-20)
(0.736142 0.00935552 -1.84207e-19)
(0.71111 0.00884305 7.34624e-19)
(0.615399 0.0124344 -8.35207e-22)
(0.539955 0.0129699 -1.12843e-19)
(0.439628 0.0181457 2.6495e-20)
(0.293215 0.0201506 1.37664e-18)
(0.163619 0.020489 1.06416e-17)
(0.00297035 0.000382627 6.35576e-18)
(0.11678 0.00550389 -4.29415e-17)
(0.845471 0.00916706 -2.01072e-19)
(0.743633 0.0113074 -4.17161e-19)
(0.719562 0.0106697 3.99287e-19)
(0.627453 0.0150051 -4.95472e-20)
(0.554688 0.0156349 1.17328e-19)
(0.458772 0.0218832 7.13096e-19)
(0.317344 0.0243229 3.02185e-18)
(0.191988 0.0248686 1.52015e-17)
(0.0299665 0.0011739 7.583e-18)
(0.118694 0.00750312 -3.47999e-17)
(0.850437 0.0106984 -3.85063e-19)
(0.752276 0.0131883 -2.97274e-19)
(0.729325 0.0124198 2.41454e-19)
(0.641334 0.01747 -1.05317e-19)
(0.571682 0.0181819 3.67642e-19)
(0.480812 0.0254629 1.66783e-18)
(0.345235 0.0283363 5.54269e-18)
(0.224964 0.0291739 2.61916e-17)
(0.0624958 0.0024329 1.40293e-17)
(0.120621 0.00996134 -4.39819e-17)
(0.855989 0.0121684 -2.5519e-19)
(0.761909 0.0149892 -3.40473e-19)
(0.740217 0.014084 1.7821e-19)
(0.656765 0.0198164 -3.80034e-20)
(0.590609 0.0205956 2.9011e-19)
(0.505307 0.0288603 -7.78268e-19)
(0.376383 0.0321579 1.04666e-17)
(0.262057 0.0333661 2.75371e-17)
(0.100644 0.00413955 2.66421e-17)
(0.122474 0.01293 -2.45239e-17)
(0.862035 0.0135713 -2.64246e-19)
(0.772357 0.0167019 -3.58932e-21)
(0.752046 0.0156559 1.92192e-19)
(0.673457 0.0220381 1.15958e-20)
(0.611121 0.0228753 4.30339e-19)
(0.531794 0.0320817 -3.6271e-18)
(0.410245 0.0357931 8.63612e-18)
(0.302748 0.0374141 1.93001e-17)
(0.14449 0.00650183 6.23317e-18)
(0.124239 0.0165569 -1.90391e-17)
(0.868478 0.0149056 -3.98528e-19)
(0.783443 0.0183217 2.85316e-19)
(0.764611 0.0171344 -8.22015e-19)
(0.691108 0.0241263 5.30543e-20)
(0.632858 0.0250189 4.20704e-19)
(0.559797 0.0351371 -4.16221e-18)
(0.446257 0.0392947 1.12785e-17)
(0.346498 0.0414704 2.17468e-17)
(0.194085 0.00886246 -1.05248e-17)
(0.125994 0.0211794 -2.41042e-17)
(1.00057 0.00744023 2.60331e-21)
(1.00228 -0.012051 1.21487e-20)
(1.0003 0.0133252 -1.03265e-21)
(1.00532 -0.0151131 1.74312e-20)
(1.00538 0.00918233 -2.68903e-20)
(1.01288 -0.0313867 4.62491e-20)
(1.02291 0.00452858 -5.72756e-19)
(1.0338 -0.0543646 3.77968e-18)
(1.07462 -0.0274071 -2.30782e-17)
(1.08682 -0.0910742 -2.48876e-18)
(1.00125 0.00633037 -4.058e-22)
(1.00196 -0.0109002 2.22959e-21)
(1.00046 0.011407 -2.53206e-21)
(1.00463 -0.0148971 1.15578e-20)
(1.00409 0.00650476 -9.82594e-20)
(1.01068 -0.0351784 2.31328e-19)
(1.01822 0.000719002 7.01709e-19)
(1.02895 -0.0697128 -4.6135e-18)
(1.06779 -0.0356092 2.00613e-17)
(1.07543 -0.126412 -4.05397e-18)
(1.00216 0.00574567 8.28997e-22)
(1.00127 -0.0102046 5.65548e-21)
(1.00092 0.0104631 -4.05843e-20)
(1.00379 -0.014444 1.20234e-19)
(1.0033 0.00536693 -5.83037e-19)
(1.00851 -0.0353541 3.08999e-18)
(1.01441 -0.000385043 -2.19921e-18)
(1.02307 -0.0743437 -7.66627e-18)
(1.06017 -0.0373587 1.14488e-18)
(1.0661 -0.143164 -1.93998e-17)
(1.0036 0.00480127 6.36439e-22)
(0.99998 -0.00908491 5.30357e-21)
(1.00189 0.00896532 -3.18068e-20)
(1.00223 -0.0135666 7.32552e-20)
(1.00279 0.0035003 -1.84195e-19)
(1.00505 -0.0362407 6.27139e-19)
(1.00928 -0.00296225 -2.49006e-18)
(1.01609 -0.0842003 3.53972e-18)
(1.05005 -0.0413584 -1.90715e-17)
(1.05325 -0.175746 1.7691e-17)
(1.0057 0.00395048 5.64218e-21)
(0.997939 -0.0079453 -1.4755e-20)
(1.00346 0.00759692 -1.9384e-19)
(1.00012 -0.0124004 9.08261e-20)
(1.00277 0.00207518 -2.06328e-19)
(1.00121 -0.0354307 2.58745e-19)
(1.00428 -0.004469 -1.2433e-18)
(1.00786 -0.0893583 4.5508e-18)
(1.03735 -0.0437069 -5.09182e-18)
(1.04126 -0.208813 2.75116e-17)
(1.00876 0.0030194 -2.65876e-21)
(0.994767 -0.00663359 -2.53069e-19)
(1.00607 0.00609974 -1.8447e-18)
(0.996831 -0.0108609 8.93071e-19)
(1.0038 0.000606859 -2.3016e-18)
(0.996003 -0.033811 2.29577e-19)
(0.998798 -0.0064177 -3.33229e-18)
(0.998606 -0.0940378 8.2337e-19)
(1.02018 -0.0449109 3.83983e-19)
(1.0287 -0.249924 3.1205e-18)
(1.01311 0.00213923 -7.39093e-19)
(0.990001 -0.0052538 -1.33496e-19)
(1.01024 0.00454757 -1.71362e-19)
(0.991813 -0.00896311 4.88704e-20)
(1.0066 -0.000751518 -1.1361e-19)
(0.989153 -0.0306123 -2.21606e-20)
(0.99448 -0.00857309 1.33643e-19)
(0.98753 -0.0930107 -1.6922e-18)
(0.997687 -0.0504422 8.66108e-18)
(1.01383 -0.294785 -3.48478e-17)
(1.01882 0.00126344 -6.19498e-20)
(0.983271 -0.0037358 -1.63845e-20)
(1.0166 0.00293534 3.37663e-21)
(0.983979 -0.00683681 1.95757e-20)
(1.01282 -0.00191156 1.66777e-20)
(0.978454 -0.0265964 -5.89258e-20)
(0.994071 -0.00937152 3.35156e-19)
(0.971317 -0.0919724 -1.56362e-18)
(0.970445 -0.0485323 6.29287e-18)
(1.00529 -0.369644 -2.0787e-17)
(1.02515 0.000704475 -6.55078e-22)
(0.975413 -0.0025861 7.70142e-21)
(1.02443 0.00170777 -3.06888e-20)
(0.973915 -0.00481641 8.5073e-21)
(1.02229 -0.0027513 -1.21351e-20)