/*--------------------------------*- C++ -*----------------------------------*\
  =========                 |
  \\      /  F ield         | OpenFOAM: The Open Source CFD Toolbox
   \\    /   O peration     | Website:  https://openfoam.org
    \\  /    A nd           | Version:  7
     \\/     M anipulation  |
\*---------------------------------------------------------------------------*/
FoamFile
{
    version     2.0;
    format      ascii;
    class       volVectorField;
    location    "78";
    object      U;
}
// * * * * * * * * * * * * * * * * * * * * * * * * * * * * * * * * * * * * * //

dimensions      [0 1 -1 0 0 0 0];

internalField   nonuniform List<vector> 
125
(
(1.24714 0.223033 1.48554e-17)
(1.2465 0.235631 3.02779e-18)
(1.24665 0.248986 6.37385e-18)
(1.24779 0.263211 8.8289e-18)
(1.25031 0.278638 7.15679e-18)
(1.25257 0.224153 1.37314e-17)
(1.25218 0.236538 4.36254e-18)
(1.25261 0.249639 5.04906e-18)
(1.2541 0.263576 7.86947e-18)
(1.25712 0.278643 6.36209e-18)
(1.25794 0.225098 7.77022e-18)
(1.25791 0.237243 -1.65961e-18)
(1.25878 0.250057 9.01362e-18)
(1.26085 0.263661 6.06406e-18)
(1.2647 0.278313 2.17218e-18)
(1.26319 0.225854 4.16144e-18)
(1.26353 0.237725 6.71898e-18)
(1.26484 0.25021 5.33207e-18)
(1.26751 0.263426 5.64983e-18)
(1.27218 0.277588 4.35158e-18)
(1.26829 0.226433 2.5572e-18)
(1.26895 0.238003 2.19502e-18)
(1.27067 0.250127 3.69911e-18)
(1.27388 0.262918 3.84734e-18)
(1.2793 0.276545 1.4957e-18)
(1.27316 0.216176 5.05644e-18)
(1.27321 0.226864 4.72321e-18)
(1.27417 0.238115 4.74278e-18)
(1.27626 0.249856 6.29302e-18)
(1.27996 0.262185 5.58149e-18)
(1.28602 0.275209 2.8027e-18)
(1.27769 0.216735 4.92252e-18)
(1.27799 0.227129 5.03585e-18)
(1.27922 0.238039 4.21006e-18)
(1.28166 0.249378 3.78267e-18)
(1.28582 0.261229 3.11839e-18)
(1.29248 0.273639 1.11943e-18)
(1.28206 0.217217 3.36733e-18)
(1.28258 0.227317 2.45833e-18)
(1.28409 0.237886 3.55837e-18)
(1.28685 0.248816 2.81873e-18)
(1.29143 0.260162 2.66402e-18)
(1.2985 0.271857 1.34104e-18)
(1.2863 0.21747 -6.93517e-19)
(1.28705 0.22724 2.43297e-18)
(1.2888 0.237431 3.62822e-18)
(1.29187 0.247918 3.54142e-18)
(1.29683 0.258742 2.29324e-18)
(1.30428 0.269768 8.53886e-19)
(1.29036 0.217896 -3.41792e-19)
(1.2913 0.227394 2.22693e-18)
(1.29329 0.237271 1.99362e-18)
(1.29666 0.247378 2.9611e-18)
(1.30196 0.257698 1.32568e-18)
(1.30947 0.267899 4.6403e-19)
(1.18346 0.203161 5.96612e-18)
(1.17798 0.219158 1.44855e-17)
(1.1726 0.236432 2.85058e-17)
(1.16729 0.255235 1.7031e-19)
(1.16201 0.275878 5.66126e-18)
(1.15685 0.298802 4.75436e-18)
(1.19211 0.204566 2.28918e-18)
(1.1875 0.220239 1.07554e-17)
(1.18315 0.237142 2.20937e-17)
(1.17906 0.25551 8.35037e-18)
(1.17522 0.275641 3.84258e-18)
(1.17176 0.297979 1.48384e-17)
(1.19942 0.205748 1.18715e-17)
(1.19533 0.221061 1.55651e-17)
(1.19155 0.237562 2.6614e-17)
(1.1881 0.255466 1.0304e-17)
(1.18498 0.275059 8.86722e-18)
(1.18236 0.296787 7.23963e-18)
(1.20596 0.206793 6.02847e-18)
(1.20226 0.221727 2.2031e-17)
(1.19894 0.237804 2.29688e-17)
(1.19602 0.255219 2.79602e-18)
(1.19355 0.274244 1.6715e-17)
(1.19173 0.295318 2.77079e-18)
(1.21236 0.207708 -2.6337e-18)
(1.20907 0.222236 1.67777e-17)
(1.20624 0.237857 1.85722e-17)
(1.20393 0.254741 3.12891e-18)
(1.2022 0.273142 6.58607e-18)
(1.20131 0.293489 -5.89377e-18)
(1.21593 0.222543 2.14483e-17)
(1.21361 0.237666 1.82418e-17)
(1.21192 0.253968 4.25917e-18)
(1.21092 0.271678 6.09033e-18)
(1.21095 0.291218 3.15865e-18)
(1.22269 0.222715 1.72785e-17)
(1.22084 0.237319 9.70955e-18)
(1.2197 0.253014 2.33009e-18)
(1.21936 0.270008 3.56695e-18)
(1.22017 0.28871 -3.41082e-18)
(1.22925 0.222609 1.92897e-17)
(1.22783 0.236644 8.12829e-18)
(1.22716 0.251675 7.11927e-18)
(1.22738 0.26788 7.95823e-18)
(1.22885 0.285656 7.85102e-19)
(1.23552 0.22268 2.17617e-17)
(1.23444 0.236204 9.32235e-18)
(1.23416 0.250641 8.30311e-18)
(1.23484 0.266144 8.12172e-18)
(1.23687 0.283098 5.7899e-18)
(1.24166 0.221808 1.85163e-17)
(1.2409 0.234621 3.85681e-18)
(1.24096 0.248234 1.18471e-18)
(1.24202 0.262754 5.59113e-18)
(1.24442 0.278546 4.14592e-18)
(1.02644 0.183186 7.02852e-18)
(1.08077 0.165169 -8.14878e-19)
(1.09122 0.272879 6.94752e-18)
(1.03845 0.172443 3.05248e-18)
(1.09193 0.15889 -1.65867e-18)
(1.1062 0.250661 3.99664e-18)
(1.04982 0.161525 6.21353e-17)
(1.10181 0.152087 5.7409e-18)
(1.11947 0.230492 4.99483e-17)
(1.06043 0.150506 1.69899e-17)
(1.11073 0.144852 1.47529e-18)
(1.13137 0.212038 1.72628e-17)
(1.07027 0.13945 5.7656e-18)
(1.11884 0.137239 -2.33563e-18)
(1.14216 0.194996 1.72445e-18)
)
;

boundaryField
{
    inlet
    {
        type            uniformFixedValue;
        uniformValue    constant (1 0 0);
        value           nonuniform 0();
    }
    outlet
    {
        type            pressureInletOutletVelocity;
        value           nonuniform 0();
    }
    polygon
    {
        type            fixedValue;
        value           nonuniform 0();
    }
    top
    {
        type            symmetryPlane;
    }
    bottom
    {
        type            symmetryPlane;
    }
    outside
    {
        type            zeroGradient;
    }
    procBoundary49to41
    {
        type            processor;
        value           nonuniform List<vector> 
24
(
(1.25514 0.295392 3.80694e-18)
(1.2627 0.295007 6.12417e-19)
(1.27142 0.294181 4.55911e-18)
(1.27998 0.292822 8.88349e-19)
(1.28802 0.291053 1.18679e-18)
(1.29535 0.288836 3.30416e-19)
(1.3023 0.286359 -2.49573e-19)
(1.3082 0.283389 -5.33374e-19)
(1.31383 0.280295 -1.18667e-18)
(1.31775 0.276805 -1.2443e-18)
(1.15216 0.324579 1.8258e-17)
(1.07428 0.297568 1.8297e-17)
(1.1691 0.323089 1.20236e-17)
(1.18067 0.321188 1.66362e-17)
(1.19105 0.318937 1.28079e-17)
(1.20181 0.316226 9.79837e-18)
(1.21257 0.31297 8.24105e-18)
(1.22276 0.309444 5.06536e-18)
(1.23223 0.305248 8.00501e-18)
(1.24093 0.301701 6.43644e-18)
(1.24893 0.295694 5.36968e-18)
(1.014 0.193645 2.84407e-17)
(1.06767 0.170772 9.87016e-19)
(1.07428 0.297568 1.8297e-17)
)
;
    }
    procBoundary49to48
    {
        type            processor;
        value           nonuniform List<vector> 2((1.02407 0.0851344 -1.26411e-17) (1.03387 0.083171 -1.04971e-17));
    }
    procBoundary49to50
    {
        type            processor;
        value           nonuniform List<vector> 4((1.30277 0.234494 1.63987e-18) (1.30666 0.243396 2.13791e-18) (1.31239 0.25232 8.70942e-19) (1.31975 0.260859 9.6355e-20));
    }
    procBoundary49to56
    {
        type            processor;
        value           nonuniform List<vector> 3((1.04269 0.0807144 -2.56857e-17) (1.0507 0.0777527 -1.52327e-17) (1.05805 0.0742982 -8.42473e-18));
    }
    procBoundary49to57
    {
        type            processor;
        value           nonuniform List<vector> 
25
(
(1.24848 0.211172 8.90724e-18)
(1.25368 0.21248 3.71665e-18)
(1.25874 0.213636 7.54677e-18)
(1.26368 0.21463 6.59518e-18)
(1.26849 0.215469 5.79669e-18)
(1.26849 0.215469 5.79669e-18)
(1.27389 0.205776 2.18794e-19)
(1.2782 0.206588 4.00654e-19)
(1.28236 0.207323 9.01994e-19)
(1.28639 0.207862 6.3317e-19)
(1.29026 0.208518 5.26495e-19)
(1.18909 0.188183 -4.30886e-18)
(1.19701 0.189856 -6.89016e-18)
(1.20388 0.191337 4.12565e-18)
(1.21009 0.192703 -2.79788e-18)
(1.21613 0.193963 -3.66811e-18)
(1.21878 0.208456 4.00881e-18)
(1.21878 0.208456 4.00881e-18)
(1.22513 0.209086 9.00965e-18)
(1.23132 0.209482 1.3464e-17)
(1.23728 0.210005 1.44711e-17)
(1.24313 0.209756 7.17125e-18)
(1.07938 0.128424 1.68792e-17)
(1.12626 0.129263 -4.36395e-17)
(1.15204 0.179176 -1.42226e-17)
)
;
    }
    procBoundary49to58
    {
        type            processor;
        value           nonuniform List<vector> 2((1.29895 0.217102 -1.11472e-20) (1.30031 0.225677 1.72364e-18));
    }
}


// ************************************************************************* //
