/*--------------------------------*- C++ -*----------------------------------*\
  =========                 |
  \\      /  F ield         | OpenFOAM: The Open Source CFD Toolbox
   \\    /   O peration     | Website:  https://openfoam.org
    \\  /    A nd           | Version:  7
     \\/     M anipulation  |
\*---------------------------------------------------------------------------*/
FoamFile
{
    version     2.0;
    format      ascii;
    class       volVectorField;
    location    "58";
    object      U;
}
// * * * * * * * * * * * * * * * * * * * * * * * * * * * * * * * * * * * * * //

dimensions      [0 1 -1 0 0 0 0];

internalField   nonuniform List<vector> 
115
(
(1.00494 4.93103e-06 1.73104e-17)
(0.994467 1.03537e-05 -5.84888e-17)
(1.00595 2.11696e-05 5.24076e-17)
(0.992352 4.46431e-05 4.74367e-17)
(1.00496 -1.58876e-05 -6.94573e-17)
(0.994432 -2.92028e-05 -5.71711e-17)
(1.00599 -6.52126e-05 -6.06737e-18)
(0.992303 -0.00012846 6.89696e-17)
(1.00691 -0.000116208 -7.99125e-18)
(0.98921 -0.000305021 -3.98858e-18)
(1.00727 -0.000219505 -2.20172e-17)
(0.984406 -0.000643602 -1.15979e-16)
(1.00621 -0.000436715 -1.10141e-18)
(0.976597 -0.00130856 1.92751e-17)
(1.00181 -0.0009061 5.60726e-17)
(0.963193 -0.0026624 5.18852e-18)
(0.989746 -0.00194608 2.25425e-17)
(0.938702 -0.00562317 3.08695e-17)
(0.959463 -0.00440475 4.94481e-17)
(0.890223 -0.0130219 5.8115e-17)
(0.880594 -0.0113734 -6.30198e-18)
(1.00494 -4.93113e-06 -9.21131e-17)
(0.994467 -1.03538e-05 -1.10244e-16)
(1.00595 -2.117e-05 5.28318e-17)
(0.992352 -4.46435e-05 -1.61505e-17)
(1.00686 -3.90231e-05 8.34748e-17)
(0.989276 -0.000106532 5.22986e-18)
(1.00719 -7.64055e-05 4.12375e-17)
(0.984497 -0.000226641 -1.29839e-16)
(1.00609 -0.000156494 4.89572e-17)
(0.976729 -0.000465547 7.29445e-17)
(1.00163 -0.000332182 1.06942e-16)
(0.963402 -0.000958285 -2.17517e-18)
(0.989443 -0.000726353 4.89613e-17)
(0.939086 -0.00204866 8.65549e-17)
(0.958826 -0.0016678 6.09599e-17)
(0.891047 -0.00479492 1.05309e-16)
(0.878756 -0.00435436 -3.56223e-17)
(1.00508 -4.4542e-05 -5.26588e-18)
(0.994268 -5.07758e-05 -2.63526e-17)
(1.00617 -0.000170393 -1.171e-17)
(0.992073 -0.000271627 -9.76115e-19)
(1.00718 -0.000296642 1.83549e-17)
(0.988895 -0.000671326 -7.29049e-17)
(1.00767 -0.000551087 2.40098e-17)
(0.983966 -0.00144517 -3.79299e-17)
(1.00679 -0.00108358 4.84713e-17)
(0.975961 -0.00297593 5.07726e-18)
(1.00268 -0.00223555 9.5753e-17)
(0.962203 -0.00610528 -7.65609e-18)
(0.991163 -0.0048072 7.1864e-17)
(0.936957 -0.0129528 3.17008e-17)
(0.962297 -0.0109626 7.40567e-17)
(0.886626 -0.0300232 3.19861e-17)
(0.888577 -0.0284271 -7.58855e-18)
(1.00501 -2.84322e-05 -1.81177e-17)
(0.994364 -4.36681e-05 -3.0582e-17)
(1.00606 -0.000113984 -1.77539e-17)
(0.992208 -0.000207529 6.90174e-17)
(1.00703 -0.000202867 1.70144e-17)
(0.989081 -0.000502709 -2.44656e-17)
(1.00743 -0.000384596 4.72345e-18)
(0.984227 -0.00107362 -5.24777e-17)
(1.00644 -0.000768437 7.65057e-18)
(0.97634 -0.00220349 3.28179e-18)
(1.00216 -0.00160275 5.08319e-17)
(0.962789 -0.00451834 2.86319e-18)
(0.990318 -0.00346614 2.99857e-17)
(0.937969 -0.00960205 1.21499e-17)
(0.96063 -0.00791211 9.80982e-17)
(0.888642 -0.0223262 4.39219e-17)
(0.8839 -0.0205336 -7.41209e-18)
(1.00525 -8.78635e-05 -3.81387e-17)
(0.994027 -3.60628e-05 -1.19917e-16)
(1.00645 -0.000311219 -4.98705e-18)
(0.991719 -0.000353879 -2.6304e-17)
(1.00761 -0.000524735 1.75025e-17)
(0.988395 -0.000944143 -2.24132e-17)
(1.00832 -0.000952128 6.01001e-17)
(0.983247 -0.00210403 1.05192e-17)
(1.00777 -0.00183705 -2.55319e-17)
(0.974903 -0.00442487 8.33657e-17)
(1.00417 -0.00374553 8.33303e-17)
(0.96058 -0.00920324 1.32086e-17)
(0.993547 -0.00803154 6.30353e-17)
(0.934309 -0.0196839 2.08356e-16)
(0.966681 -0.0184356 8.87071e-17)
(0.881936 -0.0457307 3.58776e-17)
(0.8999 -0.0481958 1.05619e-16)
(1.00516 -6.39074e-05 -8.152e-18)
(0.994153 -4.88679e-05 -5.46566e-17)
(1.0063 -0.000235825 -5.08706e-18)
(0.991906 -0.000323065 -6.14756e-17)
(1.00738 -0.000405728 1.09669e-17)
(0.988662 -0.000826962 -4.17401e-17)
(1.00796 -0.000748823 8.13998e-17)
(0.983636 -0.00181107 -4.86236e-17)
(1.00723 -0.00146418 -3.18558e-18)
(0.975481 -0.00377127 2.34976e-17)
(1.00334 -0.00301209 7.19363e-17)
(0.961466 -0.00779742 -4.51365e-17)
(0.992215 -0.00648182 3.3423e-17)
(0.935726 -0.0166246 7.28184e-17)
(0.964259 -0.0148475 1.24172e-16)
(0.884286 -0.0386034 2.08719e-17)
(0.893773 -0.038654 1.60508e-16)
(1.00838 -0.00227028 -4.72363e-17)
(0.974267 -0.00505775 1.05327e-16)
(1.00513 -0.00458571 1.33398e-16)
(0.9596 -0.0106091 7.0153e-17)
(0.995127 -0.0097807 5.67449e-17)
(0.932776 -0.0228027 2.23158e-16)
(0.969527 -0.0224264 6.78233e-17)
(0.879625 -0.0530561 8.68387e-17)
(0.906553 -0.0587908 1.29519e-16)
)
;

boundaryField
{
    inlet
    {
        type            uniformFixedValue;
        uniformValue    constant (1 0 0);
        value           uniform (1 0 0);
    }
    outlet
    {
        type            pressureInletOutletVelocity;
        value           nonuniform 0();
    }
    polygon
    {
        type            fixedValue;
        value           nonuniform 0();
    }
    top
    {
        type            symmetryPlane;
    }
    bottom
    {
        type            symmetryPlane;
    }
    outside
    {
        type            zeroGradient;
    }
    procBoundary24to16
    {
        type            processor;
        value           nonuniform List<vector> 
18
(
(1.00534 -0.000115264 -1.20288e-17)
(0.9939 -1.53233e-05 -6.41264e-18)
(1.0066 -0.000401764 2.46146e-17)
(0.991526 -0.000368488 -6.37645e-18)
(1.00786 -0.000665978 4.42886e-17)
(0.988113 -0.00104011 -8.14045e-18)
(1.0087 -0.0011922 9.87668e-17)
(0.982827 -0.0023727 4.93781e-17)
(1.00907 -0.00274722 -8.54804e-17)
(0.973571 -0.00563695 1.16197e-16)
(1.00629 -0.0055359 1.22404e-16)
(0.958501 -0.0119809 1.47787e-16)
(0.997107 -0.011817 -1.62599e-17)
(0.931058 -0.0260118 9.65965e-17)
(0.973264 -0.0272205 4.27157e-17)
(0.877286 -0.0609543 4.72886e-17)
(0.915568 -0.0717408 5.91123e-17)
(0.982827 -0.0023727 4.93781e-17)
)
;
    }
    procBoundary24to25
    {
        type            processor;
        value           nonuniform List<vector> 7((0.780467 -0.0362717 6.39543e-18) (0.782029 -0.0133895 -2.19554e-17) (0.773372 -0.0836764 -3.14415e-17) (0.777158 -0.0622763 6.00171e-17) (0.765425 -0.127121 -8.14068e-18) (0.768786 -0.107477 6.02696e-17) (0.763186 -0.146963 9.25748e-17));
    }
    procBoundary24to32
    {
        type            processor;
        value           nonuniform List<vector> 
18
(
(1.00496 1.58875e-05 -3.05163e-17)
(0.994432 2.92026e-05 -5.3067e-17)
(1.00599 6.52122e-05 -1.79486e-18)
(1.00686 3.90225e-05 1.0315e-16)
(0.992303 0.00012846 1.63101e-17)
(1.00686 3.90225e-05 1.0315e-16)
(0.989276 0.000106531 -2.95666e-19)
(1.00719 7.64047e-05 9.26136e-17)
(0.984497 0.00022664 -1.2095e-16)
(1.00609 0.000156493 -7.86944e-17)
(0.976729 0.000465545 6.73747e-17)
(1.00163 0.000332181 7.3356e-17)
(0.963402 0.000958283 -4.48451e-17)
(0.989443 0.000726352 -6.02924e-18)
(0.939086 0.00204865 6.28576e-17)
(0.958826 0.0016678 -4.47485e-17)
(0.891047 0.00479491 4.43327e-17)
(0.878756 0.00435435 5.4412e-17)
)
;
    }
}


// ************************************************************************* //
