/*--------------------------------*- C++ -*----------------------------------*\
  =========                 |
  \\      /  F ield         | OpenFOAM: The Open Source CFD Toolbox
   \\    /   O peration     | Website:  https://openfoam.org
    \\  /    A nd           | Version:  7
     \\/     M anipulation  |
\*---------------------------------------------------------------------------*/
FoamFile
{
    version     2.0;
    format      ascii;
    class       surfaceScalarField;
    location    "20";
    object      phi;
}
// * * * * * * * * * * * * * * * * * * * * * * * * * * * * * * * * * * * * * //

dimensions      [0 3 -1 0 0 0 0];

internalField   nonuniform List<scalar> 
222
(
-0.000234564
-0.0179698
0.018019
-0.00028421
-0.0180939
0.0181436
-0.000333055
-0.0181787
0.0182276
-0.000380953
-0.0183643
0.0184122
-0.000425732
-0.0185888
0.0186336
-0.018953
0.0189922
-0.000235486
-0.0179201
-0.000285912
-0.0180435
-0.000335746
-0.0181289
-0.000385154
-0.0183149
-0.000432116
-0.0185418
-0.0189103
-0.000236395
-0.0178699
-0.000287614
-0.0179923
-0.000338448
-0.018078
-0.000389392
-0.018264
-0.000438571
-0.0184926
-0.0188638
-0.000237291
-0.0178191
-0.000289311
-0.0179403
-0.000341148
-0.0180262
-0.000393623
-0.0182115
-0.000444989
-0.0184413
-0.0188137
-0.000238171
-0.0177678
-0.000290998
-0.0178874
-0.000343837
-0.0179734
-0.000397835
-0.0181575
-0.000451357
-0.0183878
-0.0187599
-0.000239032
-0.0177159
-0.00029267
-0.0178338
-0.000346508
-0.0179195
-0.000402012
-0.018102
-0.00045765
-0.0183321
-0.0187025
-0.000239871
-0.0176634
-0.000294323
-0.0177794
-0.000349153
-0.0178647
-0.000406141
-0.018045
-0.000463844
-0.0182744
-0.0186415
-0.000240683
-0.0176103
-0.000295952
-0.0177241
-0.000351764
-0.0178089
-0.00041021
-0.0179866
-0.000469929
-0.0182147
-0.0185771
-0.000241467
-0.0175567
-0.000297554
-0.017668
-0.000354343
-0.0177521
-0.000414229
-0.0179267
-0.000475946
-0.018153
-0.0185093
-0.000242222
-0.000299131
-0.000356897
-0.000418214
-0.000481942
-0.000281926
-0.0191857
0.0193137
-0.000409027
-0.0193117
0.0194388
-0.000534978
-0.0193953
0.0195212
-0.000657383
-0.0195733
0.0196957
-0.0197747
0.01989
-0.000282518
-0.0190573
-0.000410153
-0.0191841
-0.000536893
-0.0192685
-0.000660718
-0.0194495
-0.0196568
-0.000283163
-0.0189286
-0.000411338
-0.0190559
-0.00053885
-0.019141
-0.000664031
-0.0193243
-0.0195365
-0.000283813
-0.0187996
-0.000412529
-0.0189272
-0.000540805
-0.0190127
-0.00066732
-0.0191978
-0.0194139
-0.000284464
-0.0186703
-0.00041372
-0.0187979
-0.000542755
-0.0188837
-0.000670577
-0.01907
-0.019289
-0.000285114
-0.0185407
-0.00041491
-0.0186681
-0.000544692
-0.0187539
-0.000673792
-0.0189409
-0.000800861
-0.0191619
-0.0195123
-0.000285761
-0.0184107
-0.000416094
-0.0185378
-0.000546609
-0.0186234
-0.00067695
-0.0188105
-0.00080609
-0.0190328
-0.0193875
-0.000286403
-0.0182805
-0.00041727
-0.0184069
-0.000548502
-0.0184922
-0.000680047
-0.018679
-0.000811157
-0.0189017
-0.0192591
-0.00028704
-0.0181499
-0.000418441
-0.0182755
-0.000550387
-0.0183602
-0.000683133
-0.0185463
-0.000816192
-0.0187686
-0.0191274
-0.000287662
-0.000419618
-0.000552285
-0.000686296
-0.000821352
-0.0190986
0.000348069
0.0143003
-0.0192297
0.00142951
0.0147664
-0.0192077
0.00243289
0.0150799
-0.0191863
0.00342521
0.0153324
-0.019068
)
;

boundaryField
{
    inlet
    {
        type            calculated;
        value           nonuniform 0();
    }
    outlet
    {
        type            calculated;
        value           nonuniform 0();
    }
    polygon
    {
        type            calculated;
        value           nonuniform 0();
    }
    top
    {
        type            symmetryPlane;
        value           uniform 0;
    }
    bottom
    {
        type            symmetryPlane;
        value           uniform 0;
    }
    outside
    {
        type            calculated;
        value           nonuniform List<scalar> 
22
(
0.000185398
0.000185797
0.000186173
0.000186522
0.000186843
0.000187132
0.000187388
0.000187606
0.000187787
0.000187931
0.000153833
0.000154124
0.000154472
0.000154818
0.000155159
0.000155495
0.000155823
0.000156141
0.000156449
0.000156773
0.00433991
0.0155782
)
;
    }
    procBoundary2to1
    {
        type            processor;
        value           nonuniform List<scalar> 6(-0.0175024 -0.0176111 -0.0176943 -0.0178654 -0.0180893 -0.0184381);
    }
    procBoundary2to3
    {
        type            processor;
        value           nonuniform List<scalar> 5(0.0179597 0.0181482 0.0182043 0.018194 0.0181533);
    }
    procBoundary2to6
    {
        type            processor;
        value           nonuniform List<scalar> 
23
(
-0.000464904
-0.000474858
-0.000485026
-0.000495131
-0.000505161
-0.00051507
-0.000524809
-0.000534351
-0.000543747
-0.000553058
-0.000772656
-0.000778607
-0.000784329
-0.000789955
-0.000795472
0.0196334
-0.000921995
-0.000930937
-0.000939473
-0.00094789
-0.000956605
0.000790792
-0.0135089
)
;
    }
}


// ************************************************************************* //
