/*--------------------------------*- C++ -*----------------------------------*\
  =========                 |
  \\      /  F ield         | OpenFOAM: The Open Source CFD Toolbox
   \\    /   O peration     | Website:  https://openfoam.org
    \\  /    A nd           | Version:  7
     \\/     M anipulation  |
\*---------------------------------------------------------------------------*/
FoamFile
{
    version     2.0;
    format      ascii;
    class       surfaceScalarField;
    location    "20";
    object      phi;
}
// * * * * * * * * * * * * * * * * * * * * * * * * * * * * * * * * * * * * * //

dimensions      [0 3 -1 0 0 0 0];

internalField   nonuniform List<scalar> 
85
(
-0.00684159
-0.0217383
-0.0081313
-0.0213871
-0.00943929
-0.021076
-0.0106
-0.0206416
-0.0201565
-0.00356522
-0.0210388
-0.00417966
-0.0207726
-0.00472826
-0.0205274
-0.00517517
-0.0201947
-0.0198381
-0.00270987
-0.0205571
-0.00307925
-0.0204033
-0.00333837
-0.0202683
-0.00343605
-0.020097
-0.019907
-0.00110203
-0.0203055
-0.00130471
-0.0202006
-0.0014588
-0.0201142
-0.00155643
-0.0199994
-0.0198911
-0.00100302
-0.0201629
-0.00108259
-0.020121
-0.00111705
-0.0200797
-0.00108927
-0.0200272
-0.019971
-0.000253417
-0.0200778
-0.000329329
-0.0200451
-0.000386702
-0.0200224
-0.000422682
-0.0199912
-0.0199647
-0.000329772
-0.0200461
-0.000335609
-0.0200393
-0.000328455
-0.0200295
-0.00030248
-0.0200171
-0.020002
-2.19994e-05
-0.0200157
-5.47502e-05
-0.0200065
-8.18117e-05
-0.0200024
-0.000103746
-0.0199952
-0.0199904
-0.000138567
-0.0200138
-0.00012944
-0.0200157
-0.000117016
-0.0200149
-9.82532e-05
-0.020014
-0.0200105
2.77056e-05
1.20553e-05
-2.81441e-06
-1.67876e-05
)
;

boundaryField
{
    inlet
    {
        type            calculated;
        value           nonuniform List<scalar> 5(-0.02 -0.02 -0.02 -0.02 -0.02);
    }
    outlet
    {
        type            calculated;
        value           nonuniform 0();
    }
    polygon
    {
        type            calculated;
        value           nonuniform 0();
    }
    top
    {
        type            symmetryPlane;
        value           uniform 0;
    }
    bottom
    {
        type            symmetryPlane;
        value           uniform 0;
    }
    outside
    {
        type            calculated;
        value           nonuniform List<scalar> 10(0.00553707 0.00286568 0.00222815 0.000850471 0.000860459 0.00016824 0.000298141 -8.47847e-06 0.000136714 -4.15032e-05);
    }
    procBoundary0to1
    {
        type            processor;
        value           nonuniform List<scalar> 4(0.0230428 0.0226768 0.022384 0.0218023);
    }
    procBoundary0to4
    {
        type            processor;
        value           nonuniform List<scalar> 10(-0.0116422 -0.0054936 -0.00336712 -0.00157229 -0.00100938 -0.000429045 -0.00026511 -0.000115362 -7.82096e-05 -2.7242e-05);
    }
    procBoundary0to5
    {
        type            processor;
        value           uniform 0.0211986;
    }
}


// ************************************************************************* //
