/*--------------------------------*- C++ -*----------------------------------*\
  =========                 |
  \\      /  F ield         | OpenFOAM: The Open Source CFD Toolbox
   \\    /   O peration     | Website:  https://openfoam.org
    \\  /    A nd           | Version:  7
     \\/     M anipulation  |
\*---------------------------------------------------------------------------*/
FoamFile
{
    version     2.0;
    format      ascii;
    class       volVectorField;
    location    "20";
    object      U;
}
// * * * * * * * * * * * * * * * * * * * * * * * * * * * * * * * * * * * * * //

dimensions      [0 1 -1 0 0 0 0];

internalField   nonuniform List<vector> 
50
(
(1.11012 -0.102426 3.5767e-17)
(1.08947 -0.143037 2.61717e-17)
(1.07147 -0.155488 1.16395e-17)
(1.04404 -0.185679 1.47169e-17)
(1.01328 -0.201896 3.32418e-18)
(1.06828 -0.0532199 -2.07525e-17)
(1.05418 -0.0743915 1.55908e-18)
(1.04132 -0.0792579 -6.89598e-18)
(1.02438 -0.0914186 -1.52493e-18)
(1.00648 -0.0977856 7.87605e-18)
(1.03588 -0.0412845 4.52368e-18)
(1.02483 -0.0558543 3.63177e-19)
(1.01422 -0.0571899 2.09146e-18)
(0.999162 -0.0634498 6.7342e-18)
(0.982384 -0.0618448 7.34385e-18)
(1.02191 -0.0158626 -5.80067e-19)
(1.01676 -0.0234566 -1.02627e-18)
(1.01323 -0.024587 -1.83975e-19)
(1.00921 -0.027969 6.16271e-18)
(1.00628 -0.0289603 7.11065e-18)
(1.00975 -0.015927 3.63738e-18)
(1.00503 -0.0200437 -4.3781e-18)
(1.00016 -0.0196838 -1.71274e-19)
(0.993229 -0.0206862 -7.14036e-19)
(0.985469 -0.0189905 -9.46361e-19)
(1.00707 -0.00316508 -4.66001e-19)
(1.00629 -0.00582958 7.29202e-19)
(1.00668 -0.00633157 1.37465e-19)
(1.00768 -0.00756963 1.339e-18)
(1.00956 -0.00791182 1.88611e-18)
(1.00149 -0.00550796 7.87363e-20)
(0.999497 -0.00633475 2.14255e-20)
(0.996941 -0.00597046 2.81655e-19)
(0.993168 -0.00590314 6.85353e-18)
(0.988695 -0.00510209 7.10089e-18)
(1.00296 0.000139429 -1.08032e-19)
(1.00351 -0.000898591 -1.35579e-19)
(1.00492 -0.00114137 -4.78723e-20)
(1.00705 -0.00178475 -1.14202e-18)
(1.00987 -0.00202666 -8.94772e-19)
(0.999274 -0.00251512 -1.79118e-19)
(0.998207 -0.00247691 -1.59118e-19)
(0.996477 -0.00225961 -4.51433e-20)
(0.993881 -0.00197611 6.37802e-20)
(0.99066 -0.0015902 5.24172e-20)
(1.00166 0.000734364 3.09493e-20)
(1.00265 0.000301715 1.05674e-19)
(1.00422 0.000121928 2.99983e-20)
(1.00653 -0.000217984 -6.29733e-20)
(1.00932 -0.000403621 8.89214e-20)
)
;

boundaryField
{
    inlet
    {
        type            uniformFixedValue;
        uniformValue    constant (1 0 0);
        value           uniform (1 0 0);
    }
    outlet
    {
        type            pressureInletOutletVelocity;
        value           nonuniform 0();
    }
    polygon
    {
        type            fixedValue;
        value           nonuniform 0();
    }
    top
    {
        type            symmetryPlane;
    }
    bottom
    {
        type            symmetryPlane;
    }
    outside
    {
        type            zeroGradient;
    }
    procBoundary0to1
    {
        type            processor;
        value           nonuniform List<vector> 4((1.15315 -0.121803 -6.26464e-18) (1.13523 -0.163857 -4.59657e-17) (1.12001 -0.178764 1.85492e-17) (1.09132 -0.214227 -4.26527e-18));
    }
    procBoundary0to4
    {
        type            processor;
        value           nonuniform List<vector> 10((0.968944 -0.22153 -3.27499e-18) (0.986376 -0.100912 -1.19462e-18) (0.962666 -0.0607233 -1.15444e-17) (1.00423 -0.0278515 -8.37037e-18) (0.976596 -0.0176949 2.12948e-18) (1.01228 -0.00757855 8.17953e-18) (0.983497 -0.00453286 5.56388e-19) (1.01325 -0.00213123 6.9687e-18) (0.9869 -0.00125617 -1.01345e-18) (1.01255 -0.000574618 5.16712e-20));
    }
    procBoundary0to5
    {
        type            processor;
        value           uniform (1.06111 -0.243906 1.66854e-18);
    }
}


// ************************************************************************* //
