/*--------------------------------*- C++ -*----------------------------------*\
  =========                 |
  \\      /  F ield         | OpenFOAM: The Open Source CFD Toolbox
   \\    /   O peration     | Website:  https://openfoam.org
    \\  /    A nd           | Version:  7
     \\/     M anipulation  |
\*---------------------------------------------------------------------------*/
FoamFile
{
    version     2.0;
    format      ascii;
    class       volScalarField;
    location    "48";
    object      p;
}
// * * * * * * * * * * * * * * * * * * * * * * * * * * * * * * * * * * * * * //

dimensions      [0 2 -2 0 0 0 0];

internalField   nonuniform List<scalar> 
175
(
-0.146436
-0.147618
-0.148816
-0.150024
-0.15124
-0.152456
-0.15367
-0.154866
-0.156047
-0.157179
-0.158284
-0.159281
-0.13977
-0.140815
-0.141887
-0.142984
-0.144105
-0.145247
-0.14641
-0.147589
-0.148784
-0.14999
-0.151203
-0.152416
-0.153626
-0.154819
-0.155996
-0.157123
-0.158224
-0.159214
-0.139744
-0.140795
-0.141868
-0.142964
-0.144084
-0.145225
-0.146387
-0.147565
-0.148758
-0.149962
-0.151174
-0.152385
-0.153593
-0.154783
-0.155958
-0.157081
-0.158178
-0.159162
-0.139729
-0.140778
-0.141847
-0.142942
-0.144061
-0.145201
-0.146361
-0.147538
-0.14873
-0.149933
-0.151143
-0.152352
-0.153559
-0.154747
-0.15592
-0.15704
-0.158135
-0.159114
-0.139709
-0.140751
-0.141825
-0.14292
-0.144037
-0.145176
-0.146335
-0.147511
-0.148701
-0.149903
-0.151111
-0.152319
-0.153525
-0.154711
-0.155882
-0.157
-0.158093
-0.159068
-0.139689
-0.140733
-0.141804
-0.142896
-0.144012
-0.14515
-0.146308
-0.147483
-0.148672
-0.149872
-0.15108
-0.152286
-0.153491
-0.154675
-0.155845
-0.156961
-0.158053
-0.159025
-0.139668
-0.140711
-0.141779
-0.142873
-0.143988
-0.145124
-0.146281
-0.147455
-0.148643
-0.149842
-0.151048
-0.152254
-0.153457
-0.15464
-0.155809
-0.156924
-0.158015
-0.158985
-0.139646
-0.140687
-0.141753
-0.142845
-0.143961
-0.145097
-0.146253
-0.147426
-0.148614
-0.149812
-0.151017
-0.152222
-0.153424
-0.154607
-0.155775
-0.156889
-0.15798
-0.158949
-0.139627
-0.140669
-0.141736
-0.142828
-0.14394
-0.145074
-0.146228
-0.147399
-0.148586
-0.149782
-0.150987
-0.15219
-0.153392
-0.154574
-0.155742
-0.156855
-0.157947
-0.158915
-0.139594
-0.140634
-0.141698
-0.142786
-0.1439
-0.145035
-0.146189
-0.147361
-0.148547
-0.149744
-0.150949
-0.152152
-0.153355
-0.154537
-0.155706
-0.156821
-0.157914
-0.158885
-0.159849
)
;

boundaryField
{
    inlet
    {
        type            zeroGradient;
    }
    outlet
    {
        type            fixedValue;
        value           nonuniform 0();
    }
    polygon
    {
        type            zeroGradient;
    }
    top
    {
        type            symmetryPlane;
    }
    bottom
    {
        type            symmetryPlane;
    }
    outside
    {
        type            slip;
    }
    procBoundary35to27
    {
        type            processor;
        value           nonuniform List<scalar> 
19
(
-0.139595
-0.140633
-0.141696
-0.142788
-0.143901
-0.145035
-0.14619
-0.147361
-0.148547
-0.149744
-0.150949
-0.152153
-0.153355
-0.154537
-0.155706
-0.156821
-0.157914
-0.158885
-0.159849
)
;
    }
    procBoundary35to34
    {
        type            processor;
        value           nonuniform List<scalar> 
11
(
-0.160255
-0.160183
-0.160126
-0.160075
-0.160027
-0.159983
-0.159943
-0.159908
-0.159877
-0.159877
-0.160539
)
;
    }
    procBoundary35to36
    {
        type            processor;
        value           nonuniform List<scalar> 9(-0.138742 -0.138726 -0.138708 -0.13869 -0.138671 -0.138652 -0.13863 -0.138612 -0.138582);
    }
    procBoundary35to43
    {
        type            processor;
        value           nonuniform List<scalar> 
19
(
-0.139778
-0.140829
-0.141904
-0.143004
-0.144127
-0.145272
-0.145272
-0.146484
-0.147668
-0.148867
-0.150077
-0.151295
-0.152512
-0.153727
-0.154925
-0.156106
-0.15724
-0.158344
-0.159344
)
;
    }
}


// ************************************************************************* //
