/*--------------------------------*- C++ -*----------------------------------*\
  =========                 |
  \\      /  F ield         | OpenFOAM: The Open Source CFD Toolbox
   \\    /   O peration     | Website:  https://openfoam.org
    \\  /    A nd           | Version:  7
     \\/     M anipulation  |
\*---------------------------------------------------------------------------*/
FoamFile
{
    version     2.0;
    format      ascii;
    class       surfaceScalarField;
    location    "96";
    object      phi;
}
// * * * * * * * * * * * * * * * * * * * * * * * * * * * * * * * * * * * * * //

dimensions      [0 3 -1 0 0 0 0];

internalField   nonuniform List<scalar> 
7840
(
-0.00147438
0.00976863
-0.00939944
-0.0018392
0.00973246
-0.00936764
-0.00220385
0.00967598
-0.00931133
-0.00256803
0.00963177
-0.00926759
-0.00293341
0.00958256
-0.00921718
-0.00329994
0.00954112
-0.0091746
-0.00366953
0.00949738
-0.00912778
-0.00404316
0.00945871
-0.00908509
-0.00442269
0.00941976
-0.00904022
-0.0048093
0.00938726
-0.00900065
-0.00520852
0.00935335
-0.00895413
-0.0056209
0.00933478
-0.0089224
-0.00606284
0.00930883
-0.00886689
-0.00652485
0.00932401
-0.008862
-0.00700843
0.00927332
-0.00878975
-0.00733763
0.00914942
-0.00882022
-0.00719712
0.00843703
-0.00857753
-0.00579249
0.0069816
-0.00838623
-0.00317787
0.00401698
-0.0066316
0.00109059
-0.00426846
-0.00150059
0.0101388
-0.00186791
0.0100998
-0.00223552
0.0100436
-0.00260331
0.00999956
-0.00297263
0.00995188
-0.00334405
0.00991255
-0.00371929
0.00987262
-0.00409997
0.00983939
-0.00448869
0.00980848
-0.00488797
0.00978653
-0.00530431
0.00976969
-0.00574242
0.00977289
-0.00621133
0.00977774
-0.00666781
0.00978049
-0.00698622
0.00959173
-0.00683411
0.00899731
-0.00585938
0.00746229
-0.00382414
0.00494636
-0.00144303
0.00163588
-0.000352441
-0.00152571
0.0105102
-0.00189504
0.0104691
-0.00226533
0.0104139
-0.00263633
0.0103706
-0.00300982
0.0103254
-0.00338654
0.0102893
-0.00376845
0.0102545
-0.00415715
0.0102281
-0.00455548
0.0102068
-0.00496672
0.0101978
-0.00539699
0.0102
-0.00584483
0.0102207
-0.00627984
0.0102128
-0.0065732
0.0100738
-0.00647544
0.00949398
-0.00563154
0.00815341
-0.00390708
0.00573783
-0.00162715
0.00266643
-9.16276e-05
0.000100361
-0.000444068
-0.00154965
0.0108828
-0.0019208
0.0108403
-0.00229328
0.0107864
-0.00266695
0.0107442
-0.00304347
0.0107019
-0.00342354
0.0106693
-0.00380922
0.0106402
-0.00420285
0.0106217
-0.00460849
0.0106124
-0.00503031
0.0106196
-0.00546788
0.0106375
-0.0058931
0.010646
-0.00621353
0.0105332
-0.00622332
0.0100836
-0.0056441
0.00891476
-0.00427788
0.00678719
-0.00236138
0.00382133
-0.000731891
0.00103694
-5.842e-05
-0.00057311
-0.000502488
-0.0015722
0.0112564
-0.001945
0.0112131
-0.0023195
0.0111609
-0.00269592
0.0111207
-0.00307607
0.011082
-0.00346128
0.0110546
-0.00385416
0.0110331
-0.00425685
0.0110244
-0.00467121
0.0110268
-0.00509548
0.0110439
-0.00551216
0.0110542
-0.00585537
0.0109892
-0.0059734
0.0106512
-0.00562328
0.00973352
-0.00458841
0.00787989
-0.00292239
0.00512117
-0.00122275
0.00212168
-0.000163246
-2.25587e-05
0.000113873
-0.000850229
-0.000388616
-0.00159343
0.0116308
-0.00196777
0.0115874
-0.00234408
0.0115372
-0.00272275
0.0114993
-0.00310517
0.0114644
-0.00349236
0.0114417
-0.00388589
0.0114266
-0.00428761
0.0114261
-0.00469886
0.0114381
-0.00511127
0.0114563
-0.00548259
0.0114255
-0.00569912
0.0112057
-0.00556331
0.0105154
-0.00485241
0.00902261
-0.00350517
0.00653264
-0.00187375
0.00348975
-0.000627304
0.000875235
-6.67566e-05
-0.000583106
6.20382e-06
-0.000923189
-0.000382412
-0.00161314
0.012006
-0.00198869
0.011963
-0.00236648
0.011915
-0.00274734
0.0118802
-0.00313276
0.0118499
-0.00352468
0.0118337
-0.00392526
0.0118272
-0.004336
0.0118369
-0.00475096
0.011853
-0.00513969
0.011845
-0.00542179
0.0117076
-0.0054476
0.0112315
-0.00502078
0.0100886
-0.00400144
0.00800328
-0.0025313
0.0050625
-0.00115335
0.0021118
-0.000342107
6.39921e-05
-3.44858e-05
-0.000890727
6.90845e-06
-0.000964583
-0.000375503
-0.00163168
0.0123819
-0.00200849
0.0123398
-0.00238773
0.0122942
-0.00277044
0.0122629
-0.00315736
0.0122368
-0.00354939
0.0122257
-0.00394609
0.0122239
-0.00434394
0.0122347
-0.00472754
0.0122366
-0.00505066
0.0121681
-0.00521132
0.0118683
-0.0050422
0.0110624
-0.00436524
0.00941162
-0.00315791
0.00679595
-0.00176669
0.00367128
-0.000732389
0.0010775
-0.000212854
-0.000455543
-3.82778e-05
-0.0010653
-2.17506e-05
-0.000981111
-0.000397254
-0.00164852
0.0127579
-0.00202596
0.0127172
-0.00240587
0.0126741
-0.00279006
0.0126471
-0.00317873
0.0126255
-0.00357381
0.0126208
-0.00397532
0.0126254
-0.00437803
0.0126374
-0.00475485
0.0126134
-0.00502921
0.0124425
-0.00505673
0.0118958
-0.00465819
0.0106638
-0.00373461
0.00848805
-0.00244137
0.00550271
-0.00123215
0.00246206
-0.00046197
0.000307323
-0.000101663
-0.00081585
5.23876e-06
-0.00117221
5.41592e-06
-0.000981288
-0.000391838
-0.00166414
0.0131338
-0.00204359
0.0130967
-0.00242483
0.0130553
-0.00281106
0.0130333
-0.00320058
0.013015
-0.00359425
0.0130144
-0.00398599
0.0130171
-0.00435751
0.0130089
-0.00465772
0.0129137
-0.00478496
0.0125697
-0.0045982
0.011709
-0.00398113
0.0100468
-0.00294988
0.00745679
-0.00175394
0.00430677
-0.000787077
0.0014952
-0.000223441
-0.000256314
2.59446e-05
-0.00106524
5.88809e-05
-0.00120514
1.4072e-05
-0.000936479
-0.000377766
-0.000617936
0.0115516
-0.011774
-0.000403546
0.0114581
-0.0116725
-0.000194118
0.0113586
-0.011568
3.50155e-06
0.0112312
-0.0114288
0.000192093
0.0111128
-0.0113014
0.000366353
0.0109644
-0.0111387
0.000526638
0.0108157
-0.010976
0.00066858
0.0106355
-0.0107775
0.000789258
0.0104368
-0.0105575
0.000884445
0.0101969
-0.0102921
0.000948896
0.00991811
-0.00998256
0.00097774
0.00957482
-0.00960367
0.000962408
0.0091709
-0.00915556
0.00090517
0.00866945
-0.00861221
0.000796647
0.00811515
-0.00800663
0.000644158
0.00740953
-0.00725705
0.000441445
0.00670863
-0.00650591
0.000178102
0.00574891
-0.00548556
-6.71933e-06
0.00458921
-0.00440439
0.00218184
-0.00218856
-0.000642664
0.0113261
-0.000425964
0.0112414
-0.000213946
0.0111465
-1.35244e-05
0.0110307
0.00017803
0.0109213
0.000355358
0.0107871
0.000518716
0.0106523
0.000663671
0.0104906
0.00078751
0.010313
0.00088571
0.0100987
0.000953165
0.00985066
0.000985051
0.00954294
0.000974851
0.0091811
0.000921052
0.00872325
0.000821115
0.00821509
0.000667722
0.00756293
0.000485129
0.00689122
0.000229991
0.00600405
7.37463e-05
0.00474545
0.00225559
-0.000667328
0.0110978
-0.000447431
0.0110215
-0.000232477
0.0109316
-2.86699e-05
0.0108269
0.000166477
0.0107261
0.000347674
0.0106059
0.000515066
0.0104849
0.000664137
0.0103415
0.000792013
0.0101851
0.000893655
0.00999704
0.000963359
0.00978095
0.000995236
0.00951106
0.000981096
0.00919524
0.000916704
0.00878764
0.000798779
0.00833301
0.000618975
0.00774273
0.000403831
0.00710636
0.000120127
0.00628775
-3.65488e-05
0.00490213
0.00221904
-0.000691455
0.0108664
-0.000468028
0.010798
-0.000249712
0.0107133
-4.20654e-05
0.0106193
0.000157101
0.010527
0.00034276
0.0104202
0.00051493
0.0103128
0.000669141
0.0101873
0.000802571
0.0100517
0.000910018
0.0098896
0.000986001
0.00970497
0.00102376
0.0094733
0.00101652
0.00920247
0.000954708
0.00884945
0.000841898
0.00844582
0.000650198
0.00793443
0.000434259
0.0073223
0.00015489
0.00656712
-1.62655e-05
0.00507328
0.00220277
-0.000715227
0.0106317
-0.000488037
0.0105708
-0.00026609
0.0104913
-5.42531e-05
0.0104074
0.000149337
0.0103234
0.000340004
0.0102295
0.000517755
0.010135
0.000678304
0.0100268
0.000819031
0.00991093
0.000934556
0.00977407
0.00101969
0.00961983
0.00106651
0.00942649
0.00106906
0.00919993
0.00101537
0.00890314
0.000909628
0.00855157
0.000732688
0.00811137
0.000506554
0.00754844
0.000230497
0.00684317
2.60831e-05
0.0052777
0.00222886
-0.000738139
0.0103933
-0.000506709
0.0103394
-0.000280516
0.0102651
-6.37488e-05
0.0101907
0.000145161
0.0101145
0.000341975
0.0100327
0.00052681
0.00995017
0.000695585
0.00985798
0.000846154
0.00976036
0.000972939
0.00964729
0.00107169
0.00952108
0.00113201
0.00936617
0.00115081
0.00918112
0.0011061
0.00894785
0.00100808
0.00864959
0.000801363
0.00831809
0.000564163
0.00778564
0.000241755
0.00716558
2.51046e-05
0.00549435
0.00225396
-0.000760981
0.0101512
-0.000525362
0.0101038
-0.000294958
0.0100347
-7.33297e-05
0.00996904
0.000140867
0.00990027
0.000343738
0.00982986
0.000535589
0.00975832
0.000712753
0.00968081
0.000873441
0.00959967
0.00101189
0.00950884
0.00112414
0.00940883
0.00119976
0.00929055
0.00123606
0.00914482
0.00121565
0.00896827
0.00114833
0.00871691
0.00102509
0.00844132
0.000822981
0.00798774
0.000569001
0.00741956
0.000226237
0.00583711
0.0024802
-0.000782125
0.00990485
-0.000541463
0.00986314
-0.000305629
0.0097989
-7.77666e-05
0.00974118
0.00014332
0.00967919
0.000354246
0.00961893
0.000555713
0.00955685
0.000744329
0.0094922
0.000918716
0.00942528
0.0010733
0.00935426
0.00120593
0.00927619
0.00130504
0.00919144
0.00136831
0.00908155
0.0013678
0.00896877
0.00130459
0.00878012
0.00110855
0.00863736
0.000846901
0.00824939
0.000434744
0.00783172
0.000160968
0.00611089
0.00264117
-0.000804556
0.00965465
-0.000560042
0.00961863
-0.000320188
0.00955905
-8.77744e-05
0.00950877
0.000138376
0.00945303
0.000354922
0.00940238
0.000562877
0.0093489
0.000758779
0.0092963
0.000941643
0.00924242
0.00110663
0.00918927
0.0012519
0.00913092
0.00136727
0.00907607
0.00145176
0.00899706
0.00148939
0.00893114
0.00149553
0.00877398
0.00148266
0.00865024
0.00142156
0.00831049
0.00126897
0.0079843
0.000772568
0.0066073
0.00341374
-0.000822692
-0.000571711
-0.000323999
-8.28167e-05
0.000153033
0.000380819
0.000601934
0.000813142
0.00101534
0.00120397
0.00138076
0.00153444
0.00166461
0.00173375
0.00171798
0.00154801
0.00128096
0.000879033
0.000854726
-0.000822692
-0.00965465
0.00939944
-0.000571711
-0.00961863
0.00936764
-0.000323999
-0.00955905
0.00931133
-8.28168e-05
-0.00950877
0.00926759
0.000153033
-0.00945303
0.00921719
0.000380819
-0.00940238
0.0091746
0.000601934
-0.0093489
0.00912778
0.000813142
-0.0092963
0.00908509
0.00101534
-0.00924242
0.00904022
0.00120397
-0.00918927
0.00900065
0.00138076
-0.00913092
0.00895413
0.00153444
-0.00907607
0.0089224
0.00166461
-0.00899706
0.00886689
0.00173375
-0.00893114
0.008862
0.00171798
-0.00877398
0.00878975
0.00154801
-0.00865024
0.00882022
0.00128096
-0.00831049
0.00857753
0.000879033
-0.0079843
0.00838623
0.000854726
-0.0066073
0.0066316
-0.00341374
0.00426846
-0.000804556
-0.00990485
-0.000560042
-0.00986314
-0.000320188
-0.0097989
-8.77745e-05
-0.00974118
0.000138376
-0.00967919
0.000354922
-0.00961893
0.000562877
-0.00955685
0.000758779
-0.0094922
0.000941643
-0.00942528
0.00110663
-0.00935426
0.0012519
-0.00927619
0.00136727
-0.00919144
0.00145176
-0.00908155
0.00148939
-0.00896877
0.00149553
-0.00878012
0.00148266
-0.00863736
0.00142156
-0.00824939
0.00126897
-0.00783172
0.000772568
-0.00611089
-0.00264117
-0.000782125
-0.0101512
-0.000541463
-0.0101038
-0.00030563
-0.0100347
-7.77666e-05
-0.00996904
0.00014332
-0.00990027
0.000354246
-0.00982986
0.000555713
-0.00975832
0.000744329
-0.00968081
0.000918716
-0.00959967
0.0010733
-0.00950884
0.00120593
-0.00940883
0.00130504
-0.00929055
0.00136831
-0.00914482
0.0013678
-0.00896827
0.00130459
-0.00871691
0.00110855
-0.00844132
0.000846901
-0.00798774
0.000434744
-0.00741956
0.000160968
-0.00583711
-0.0024802
-0.000760981
-0.0103933
-0.000525362
-0.0103394
-0.000294958
-0.0102651
-7.33298e-05
-0.0101907
0.000140867
-0.0101145
0.000343738
-0.0100327
0.000535589
-0.00995017
0.000712753
-0.00985798
0.000873441
-0.00976036
0.00101189
-0.00964729
0.00112414
-0.00952108
0.00119976
-0.00936617
0.00123606
-0.00918112
0.00121565
-0.00894785
0.00114833
-0.00864959
0.00102509
-0.00831809
0.000822981
-0.00778564
0.000569001
-0.00716558
0.000226237
-0.00549435
-0.00225396
-0.000738139
-0.0106317
-0.000506709
-0.0105708
-0.000280516
-0.0104913
-6.37488e-05
-0.0104074
0.000145161
-0.0103234
0.000341975
-0.0102295
0.00052681
-0.010135
0.000695585
-0.0100268
0.000846154
-0.00991093
0.000972939
-0.00977407
0.00107169
-0.00961983
0.00113201
-0.00942649
0.00115081
-0.00919993
0.0011061
-0.00890314
0.00100808
-0.00855157
0.000801363
-0.00811137
0.000564163
-0.00754844
0.000241755
-0.00684317
2.51046e-05
-0.0052777
-0.00222886
-0.000715227
-0.0108664
-0.000488037
-0.010798
-0.00026609
-0.0107133
-5.42532e-05
-0.0106193
0.000149337
-0.010527
0.000340004
-0.0104202
0.000517755
-0.0103128
0.000678304
-0.0101873
0.000819031
-0.0100517
0.000934556
-0.0098896
0.00101969
-0.00970497
0.00106651
-0.0094733
0.00106906
-0.00920247
0.00101537
-0.00884945
0.000909628
-0.00844582
0.000732688
-0.00793443
0.000506554
-0.0073223
0.000230497
-0.00656712
2.60831e-05
-0.00507328
-0.00220277
-0.000691455
-0.0110978
-0.000468029
-0.0110215
-0.000249712
-0.0109316
-4.20654e-05
-0.0108269
0.000157101
-0.0107261
0.00034276
-0.0106059
0.00051493
-0.0104849
0.000669141
-0.0103415
0.00080257
-0.0101851
0.000910018
-0.00999704
0.000986001
-0.00978095
0.00102376
-0.00951106
0.00101652
-0.00919524
0.000954708
-0.00878764
0.000841898
-0.00833301
0.000650198
-0.00774273
0.000434259
-0.00710636
0.00015489
-0.00628775
-1.62655e-05
-0.00490213
-0.00221904
-0.000667328
-0.0113261
-0.000447431
-0.0112414
-0.000232477
-0.0111465
-2.86699e-05
-0.0110307
0.000166477
-0.0109213
0.000347674
-0.0107871
0.000515066
-0.0106523
0.000664137
-0.0104906
0.000792013
-0.010313
0.000893655
-0.0100987
0.000963359
-0.00985066
0.000995236
-0.00954294
0.000981096
-0.0091811
0.000916704
-0.00872325
0.000798779
-0.00821509
0.000618975
-0.00756293
0.000403831
-0.00689122
0.000120127
-0.00600405
-3.65488e-05
-0.00474545
-0.00225559
-0.000642664
-0.0115516
-0.000425964
-0.0114581
-0.000213946
-0.0113586
-1.35244e-05
-0.0112312
0.00017803
-0.0111128
0.000355358
-0.0109644
0.000518716
-0.0108157
0.000663671
-0.0106355
0.00078751
-0.0104368
0.00088571
-0.0101969
0.000953164
-0.00991811
0.000985051
-0.00957482
0.000974851
-0.0091709
0.000921052
-0.00866945
0.000821115
-0.00811515
0.000667722
-0.00740953
0.000485129
-0.00670863
0.000229991
-0.00574891
7.37463e-05
-0.00458921
-0.00218184
-0.000617936
-0.011774
-0.000403546
-0.0116725
-0.000194118
-0.011568
3.5015e-06
-0.0114288
0.000192092
-0.0113014
0.000366353
-0.0111387
0.000526638
-0.010976
0.00066858
-0.0107775
0.000789258
-0.0105575
0.000884445
-0.0102921
0.000948896
-0.00998256
0.00097774
-0.00960367
0.000962408
-0.00915556
0.00090517
-0.00861221
0.000796647
-0.00800663
0.000644158
-0.00725705
0.000441445
-0.00650591
0.000178102
-0.00548556
-6.71934e-06
-0.00440439
-0.00218856
-0.00166414
-0.0127579
0.0131338
-0.00204359
-0.0127172
0.0130967
-0.00242483
-0.0126741
0.0130553
-0.00281106
-0.0126471
0.0130333
-0.00320058
-0.0126255
0.013015
-0.00359425
-0.0126208
0.0130144
-0.00398599
-0.0126254
0.0130171
-0.00435751
-0.0126374
0.0130089
-0.00465772
-0.0126134
0.0129137
-0.00478496
-0.0124425
0.0125697
-0.0045982
-0.0118958
0.011709
-0.00398113
-0.0106638
0.0100468
-0.00294988
-0.00848805
0.00745679
-0.00175394
-0.00550271
0.00430677
-0.000787077
-0.00246206
0.00149519
-0.00022344
-0.000307322
-0.000256314
2.59447e-05
0.00081585
-0.00106524
5.8881e-05
0.00117221
-0.00120514
1.4072e-05
0.000981288
-0.000936479
0.000391838
-0.000377766
-0.00164852
-0.0123819
-0.00202596
-0.0123398
-0.00240587
-0.0122942
-0.00279006
-0.0122629
-0.00317873
-0.0122368
-0.00357381
-0.0122257
-0.00397532
-0.0122239
-0.00437803
-0.0122347
-0.00475486
-0.0122366
-0.00502921
-0.0121681
-0.00505673
-0.0118683
-0.00465819
-0.0110624
-0.00373461
-0.00941162
-0.00244137
-0.00679594
-0.00123215
-0.00367128
-0.00046197
-0.0010775
-0.000101663
0.000455543
5.23883e-06
0.0010653
5.41594e-06
0.000981111
0.000397254
-0.00163168
-0.012006
-0.00200849
-0.011963
-0.00238773
-0.011915
-0.00277044
-0.0118802
-0.00315736
-0.0118499
-0.00354939
-0.0118337
-0.00394609
-0.0118272
-0.00434394
-0.0118369
-0.00472754
-0.011853
-0.00505066
-0.011845
-0.00521132
-0.0117076
-0.0050422
-0.0112315
-0.00436524
-0.0100886
-0.00315791
-0.00800328
-0.00176669
-0.0050625
-0.000732389
-0.0021118
-0.000212854
-6.3992e-05
-3.82777e-05
0.000890727
-2.17506e-05
0.000964583
0.000375503
-0.00161314
-0.0116308
-0.00198869
-0.0115874
-0.00236648
-0.0115372
-0.00274734
-0.0114993
-0.00313276
-0.0114644
-0.00352468
-0.0114417
-0.00392527
-0.0114266
-0.004336
-0.0114261
-0.00475096
-0.0114381
-0.00513969
-0.0114563
-0.00542179
-0.0114255
-0.0054476
-0.0112057
-0.00502078
-0.0105154
-0.00400144
-0.00902261
-0.0025313
-0.00653264
-0.00115335
-0.00348975
-0.000342107
-0.000875235
-3.44857e-05
0.000583106
6.90848e-06
0.000923189
0.000382412
-0.00159343
-0.0112564
-0.00196777
-0.0112131
-0.00234408
-0.0111609
-0.00272275
-0.0111207
-0.00310517
-0.011082
-0.00349236
-0.0110546
-0.00388589
-0.0110331
-0.00428761
-0.0110244
-0.00469886
-0.0110268
-0.00511127
-0.0110439
-0.00548259
-0.0110542
-0.00569912
-0.0109892
-0.00556331
-0.0106512
-0.00485241
-0.00973352
-0.00350517
-0.00787989
-0.00187375
-0.00512117
-0.000627304
-0.00212168
-6.67565e-05
2.25587e-05
6.20385e-06
0.000850229
0.000388616
-0.0015722
-0.0108828
-0.001945
-0.0108403
-0.0023195
-0.0107864
-0.00269592
-0.0107442
-0.00307607
-0.0107019
-0.00346128
-0.0106693
-0.00385416
-0.0106402
-0.00425685
-0.0106217
-0.00467121
-0.0106124
-0.00509548
-0.0106196
-0.00551216
-0.0106375
-0.00585537
-0.010646
-0.0059734
-0.0105332
-0.00562328
-0.0100836
-0.00458841
-0.00891476
-0.00292239
-0.00678719
-0.00122274
-0.00382133
-0.000163246
-0.00103694
0.000113873
0.00057311
0.000502488
-0.00154965
-0.0105102
-0.0019208
-0.0104691
-0.00229328
-0.0104139
-0.00266695
-0.0103706
-0.00304347
-0.0103254
-0.00342354
-0.0102893
-0.00380922
-0.0102545
-0.00420285
-0.0102281
-0.00460849
-0.0102068
-0.00503031
-0.0101978
-0.00546788
-0.0102
-0.0058931
-0.0102207
-0.00621353
-0.0102128
-0.00622332
-0.0100738
-0.0056441
-0.00949398
-0.00427788
-0.00815341
-0.00236138
-0.00573783
-0.000731891
-0.00266643
-5.842e-05
-0.000100361
0.000444068
-0.00152571
-0.0101388
-0.00189504
-0.0100998
-0.00226533
-0.0100436
-0.00263633
-0.00999956
-0.00300982
-0.00995188
-0.00338654
-0.00991255
-0.00376845
-0.00987262
-0.00415715
-0.00983939
-0.00455548
-0.00980848
-0.00496672
-0.00978653
-0.00539699
-0.00976969
-0.00584483
-0.00977289
-0.00627984
-0.00977774
-0.0065732
-0.00978049
-0.00647544
-0.00959173
-0.00563154
-0.00899731
-0.00390708
-0.00746229
-0.00162715
-0.00494636
-9.16276e-05
-0.00163588
0.000352441
-0.00150059
-0.00976863
-0.00186791
-0.00973246
-0.00223552
-0.00967598
-0.00260331
-0.00963177
-0.00297263
-0.00958256
-0.00334405
-0.00954112
-0.00371929
-0.00949738
-0.00409997
-0.00945871
-0.00448869
-0.00941976
-0.00488797
-0.00938726
-0.00530431
-0.00935335
-0.00574242
-0.00933478
-0.00621133
-0.00930883
-0.00666781
-0.00932401
-0.00698622
-0.00927332
-0.00683411
-0.00914942
-0.00585938
-0.00843703
-0.00382414
-0.0069816
-0.00144303
-0.00401698
-0.00109059
-0.00147438
-0.0018392
-0.00220385
-0.00256803
-0.00293341
-0.00329994
-0.00366953
-0.00404316
-0.00442269
-0.0048093
-0.00520852
-0.0056209
-0.00606284
-0.00652485
-0.00700843
-0.00733763
-0.00719712
-0.00579249
-0.00317787
-0.0045342
-0.0113782
-0.00493186
-0.0112748
-0.00533761
-0.0111622
-0.00573725
-0.0110291
-0.00614884
-0.0108898
-0.00655249
-0.010735
-0.00696055
-0.0105679
-0.00735366
-0.0103844
-0.00772724
-0.0101839
-0.00806272
-0.0099566
-0.00834426
-0.00970102
-0.00853516
-0.00941277
-0.00860319
-0.00908754
-0.00849766
-0.00871775
-0.00820223
-0.00830205
-0.00761875
-0.00784053
-0.00678093
-0.00734374
-0.0054544
-0.0068121
-0.0035268
-0.00633198
-0.00571536
-4.33709e-11
-0.00350717
-0.0110697
-0.00380067
-0.0109813
-0.00408291
-0.01088
-0.00435275
-0.0107593
-0.00461386
-0.0106287
-0.00486167
-0.0104872
-0.00509669
-0.0103329
-0.00531553
-0.0101655
-0.00551602
-0.0099834
-0.00568628
-0.00978634
-0.00581352
-0.00957378
-0.00587957
-0.00934672
-0.00586061
-0.00910649
-0.00572165
-0.00885671
-0.00542365
-0.00860005
-0.0049225
-0.00834168
-0.00417688
-0.00808935
-0.00313876
-0.00785022
-0.00181624
-0.0076545
-0.0075316
-4.97005e-11
-0.00288269
-0.0108022
-0.00313757
-0.0107264
-0.00337499
-0.0106426
-0.00359123
-0.0105431
-0.00378103
-0.0104389
-0.00394227
-0.0103259
-0.00407037
-0.0102048
-0.00416079
-0.0100751
-0.00420707
-0.00993712
-0.00420309
-0.00979031
-0.00414189
-0.00963499
-0.00401695
-0.00947166
-0.00382164
-0.0093018
-0.00355043
-0.00912791
-0.0031958
-0.00895468
-0.00274922
-0.00878826
-0.00220321
-0.00863535
-0.00154958
-0.00850386
-0.00079913
-0.00840495
-0.00833073
-6.05467e-11
-0.00208041
-0.0106007
-0.0022679
-0.0105389
-0.00244012
-0.0104704
-0.00259558
-0.0103876
-0.0027345
-0.0103
-0.0028545
-0.0102059
-0.00295267
-0.0101066
-0.00302518
-0.0100026
-0.00306775
-0.00989456
-0.00307454
-0.00978351
-0.00303898
-0.00967055
-0.00295357
-0.00955707
-0.00281073
-0.00944463
-0.00260356
-0.00933509
-0.00232776
-0.00923048
-0.00198256
-0.00913346
-0.0015704
-0.00904752
-0.00109697
-0.00897728
-0.000574532
-0.00892739
-0.00890527
-5.98515e-11
-0.00167615
-0.0104444
-0.00181649
-0.0103986
-0.00193972
-0.0103471
-0.00204233
-0.010285
-0.00212285
-0.0102195
-0.00217943
-0.0101494
-0.00221036
-0.0100757
-0.0022142
-0.00999878
-0.00218963
-0.00991913
-0.00213585
-0.00983729
-0.0020523
-0.0097541
-0.00193869
-0.00967067
-0.00179481
-0.00958852
-0.00162038
-0.00950952
-0.00141494
-0.00943592
-0.00117844
-0.00936996
-0.000912265
-0.00931369
-0.000620951
-0.0092686
-0.000311982
-0.00923635
-0.00921725
-6.05558e-11
-0.0011664
-0.0103244
-0.00127788
-0.0102871
-0.00137838
-0.0102466
-0.00146601
-0.0101974
-0.00153956
-0.0101459
-0.00159747
-0.0100915
-0.00163808
-0.0100351
-0.00165944
-0.00997742
-0.00165946
-0.00991911
-0.00163587
-0.00986088
-0.0015865
-0.00980347
-0.00150957
-0.00974761
-0.00140401
-0.00969408
-0.00126984
-0.00964368
-0.00110844
-0.00959732
-0.000922342
-0.00955606
-0.000714911
-0.00952113
-0.000489521
-0.00949399
-0.00025013
-0.00947575
-0.00946738
-5.67931e-11
-0.000922953
-0.0102392
-0.00099637
-0.0102137
-0.00105847
-0.0101845
-0.00110669
-0.0101491
-0.00114072
-0.0101119
-0.00115982
-0.0100724
-0.00116368
-0.0100312
-0.00115225
-0.00998885
-0.00112567
-0.00994569
-0.00108434
-0.00990221
-0.00102876
-0.00985904
-0.000959495
-0.00981688
-0.000877003
-0.00977657
-0.000781667
-0.00973902
-0.00067387
-0.00970512
-0.000554308
-0.00967562
-0.000424323
-0.00965111
-0.000286396
-0.00963191
-0.00014371
-0.00961843
-0.00961109
-5.42243e-11
-0.000637825
-0.0101712
-0.00070126
-0.0101503
-0.000757886
-0.0101279
-0.000806403
-0.0101006
-0.000845835
-0.0100725
-0.000875256
-0.0100429
-0.000893713
-0.0100128
-0.000900256
-0.00998231
-0.000893952
-0.00995199
-0.000873978
-0.00992219
-0.000839745
-0.00989327
-0.000791032
-0.00986559
-0.000728118
-0.00983948
-0.000651836
-0.0098153
-0.000563529
-0.00979342
-0.000464851
-0.0097743
-0.000357544
-0.00975842
-0.000243166
-0.00974629
-0.000123336
-0.00973826
-0.00973442
-4.87887e-11
-0.000491061
-0.0101261
-0.000528799
-0.0101125
-0.000559815
-0.0100969
-0.000582551
-0.0100779
-0.000597126
-0.0100579
-0.000603324
-0.0100367
-0.000601263
-0.0100148
-0.000591187
-0.00999238
-0.00057347
-0.00996971
-0.000548563
-0.0099471
-0.000516935
-0.0099249
-0.000479005
-0.00990352
-0.000435107
-0.00988338
-0.000385502
-0.00986491
-0.000330464
-0.00984846
-0.00027043
-0.00983433
-0.000206148
-0.0098227
-0.000138774
-0.00981367
-6.96523e-05
-0.00980738
-0.00980408
-4.52668e-11
-0.000345673
-0.0100886
-0.000380903
-0.0100773
-0.000412343
-0.0100654
-0.000439223
-0.010051
-0.000460859
-0.0100363
-0.000476684
-0.0100209
-0.000486136
-0.0100054
-0.000488699
-0.00998982
-0.000483921
-0.00997449
-0.000471466
-0.00995955
-0.000451184
-0.00994518
-0.000423166
-0.00993154
-0.000387782
-0.00991877
-0.000345672
-0.00990702
-0.000297673
-0.00989646
-0.0002447
-0.00988731
-0.000187631
-0.00987977
-0.000127248
-0.00987405
-6.43577e-05
-0.00987027
-0.00986843
-3.9244e-11
-0.00025394
-0.0100651
-0.000273142
-0.0100581
-0.000288524
-0.0100501
-0.000299227
-0.0100403
-0.000305446
-0.01003
-0.000307175
-0.0100192
-0.000304605
-0.0100079
-0.000297986
-0.00999644
-0.000287626
-0.00998485
-0.000273846
-0.00997333
-0.000256946
-0.00996208
-0.000237167
-0.00995132
-0.000214678
-0.00994125
-0.000189602
-0.00993209
-0.000162068
-0.009924
-0.000132295
-0.00991708
-0.000100657
-0.0099114
-6.76899e-05
-0.00990702
-3.39783e-05
-0.00990398
-0.00990241
-3.53687e-11
-0.000186977
-0.0100446
-0.00020643
-0.0100386
-0.000223896
-0.0100326
-0.000238929
-0.0100253
-0.00025109
-0.0100179
-0.000260015
-0.0100103
-0.000265359
-0.0100026
-0.000266814
-0.00999499
-0.000264124
-0.00998754
-0.000257123
-0.00998033
-0.000245771
-0.00997344
-0.000230171
-0.00996692
-0.000210589
-0.00996084
-0.000187424
-0.00995526
-0.00016116
-0.00995026
-0.0001323
-0.00994594
-0.000101312
-0.00994239
-6.86175e-05
-0.00993971
-3.46603e-05
-0.00993794
-0.00993707
-2.97101e-11
-0.000126559
-0.0100324
-0.000136241
-0.0100289
-0.000143784
-0.010025
-0.000148748
-0.0100203
-0.000151298
-0.0100153
-0.000151506
-0.01001
-0.000149537
-0.0100046
-0.000145588
-0.00999894
-0.000139873
-0.00999325
-0.000132601
-0.0099876
-0.000123947
-0.00998209
-0.000114037
-0.00997683
-0.000102947
-0.00997193
-9.07187e-05
-0.00996749
-7.73986e-05
-0.00996358
-6.30816e-05
-0.00996026
-4.79406e-05
-0.00995753
-3.22186e-05
-0.00995543
-1.61716e-05
-0.00995399
-0.00995324
-2.56208e-11
-0.000100862
-0.0100211
-0.000111646
-0.0100182
-0.000121434
-0.0100153
-0.000129959
-0.0100118
-0.000136959
-0.0100083
-0.000142189
-0.0100048
-0.000145433
-0.0100013
-0.000146492
-0.00999788
-0.00014521
-0.00999453
-0.000141487
-0.00999132
-0.000135305
-0.00998827
-0.000126737
-0.0099854
-0.000115946
-0.00998272
-0.00010317
-0.00998026
-8.86865e-05
-0.00997806
-7.27781e-05
-0.00997616
-5.57041e-05
-0.00997461
-3.77046e-05
-0.00997343
-1.90339e-05
-0.00997266
-0.00997228
-2.0583e-11
-5.86823e-05
-0.0100149
-6.35041e-05
-0.0100133
-6.71226e-05
-0.0100116
-6.93432e-05
-0.0100096
-7.02812e-05
-0.0100074
-7.00321e-05
-0.0100051
-6.87204e-05
-0.0100026
-6.649e-05
-0.0100001
-6.34865e-05
-0.00999754
-5.98413e-05
-0.00999497
-5.56563e-05
-0.00999246
-5.09958e-05
-0.00999006
-4.58873e-05
-0.00998783
-4.03356e-05
-0.00998581
-3.43459e-05
-0.00998405
-2.79489e-05
-0.00998256
-2.12147e-05
-0.00998134
-1.42457e-05
-0.0099804
-7.14758e-06
-0.00997976
-0.00997943
-1.64384e-11
-5.34113e-05
-0.0100087
-5.94139e-05
-0.0100073
-6.49436e-05
-0.0100061
-6.98303e-05
-0.0100047
-7.39353e-05
-0.0100033
-7.7085e-05
-0.0100019
-7.91487e-05
-0.0100006
-7.9993e-05
-0.00999926
-7.95157e-05
-0.00999802
-7.76526e-05
-0.00999683
-7.43898e-05
-0.00999572
-6.97699e-05
-0.00999468
-6.38896e-05
-0.00999371
-5.6887e-05
-0.00999282
-4.89218e-05
-0.00999202
-4.01544e-05
-0.00999133
-3.07335e-05
-0.00999076
-2.07984e-05
-0.00999034
-1.04966e-05
-0.00999006
-0.00998992
-1.19173e-11
-2.23751e-05
-0.0100057
-2.46592e-05
-0.0100051
-2.62512e-05
-0.0100045
-2.71156e-05
-0.0100038
-2.73132e-05
-0.0100031
-2.69548e-05
-0.0100023
-2.61216e-05
-0.0100014
-2.49239e-05
-0.0100005
-2.34589e-05
-0.00999948
-2.1811e-05
-0.00999848
-2.00403e-05
-0.00999749
-1.8178e-05
-0.00999654
-1.62291e-05
-0.00999566
-1.41816e-05
-0.00999486
-1.20214e-05
-0.00999418
-9.74684e-06
-0.0099936
-7.37545e-06
-0.00999313
-4.94003e-06
-0.00999277
-2.47435e-06
-0.00999252
-0.0099924
-8.12245e-12
-2.61863e-05
-0.0100023
-2.93853e-05
-0.0100019
-3.24088e-05
-0.0100015
-3.51207e-05
-0.0100011
-3.74849e-05
-0.0100007
-3.93586e-05
-0.0100004
-4.06804e-05
-0.0100001
-4.13507e-05
-0.00999979
-4.13075e-05
-0.00999952
-4.05049e-05
-0.00999928
-3.89312e-05
-0.00999906
-3.66076e-05
-0.00999886
-3.35883e-05
-0.00999867
-2.99505e-05
-0.0099985
-2.57838e-05
-0.00999835
-2.11775e-05
-0.00999821
-1.62149e-05
-0.0099981
-1.09746e-05
-0.00999801
-5.53865e-06
-0.00999796
-0.00999794
-4.63135e-12
-2.28507e-06
-0.0100013
-2.98595e-06
-0.0100012
-3.29869e-06
-0.0100012
-3.32427e-06
-0.0100011
-3.03403e-06
-0.010001
-2.58466e-06
-0.0100008
-1.99503e-06
-0.0100007
-1.37272e-06
-0.0100004
-7.71378e-07
-0.0100001
-2.52105e-07
-0.0099998
1.53611e-07
-0.00999947
4.31596e-07
-0.00999914
5.90965e-07
-0.00999883
6.52456e-07
-0.00999856
6.4192e-07
-0.00999833
5.8013e-07
-0.00999815
4.79187e-07
-0.009998
3.4432e-07
-0.00999788
1.80824e-07
-0.0099978
-0.00999775
-2.10889e-12
-9.80514e-06
-1.09617e-05
-1.21431e-05
-1.32181e-05
-1.42341e-05
-1.50818e-05
-1.57458e-05
-1.61574e-05
-1.6282e-05
-1.60846e-05
-1.55535e-05
-1.46931e-05
-1.35271e-05
-1.20908e-05
-1.04257e-05
-8.57261e-06
-6.56869e-06
-4.44798e-06
-2.24541e-06
-3.33608e-13
0.00510246
-0.00678719
0.0051254
-0.0067738
0.00514742
-0.00675046
0.00516557
-0.00671657
0.0051768
-0.00667062
0.00517733
-0.00660997
0.00516203
-0.00653011
0.00512411
-0.00642421
0.00505514
-0.0062837
0.00494549
-0.00609944
0.00478517
-0.00586325
0.00456458
-0.00556931
0.0042752
-0.00521485
0.00390987
-0.00480038
0.00346279
-0.00432934
0.00292958
-0.00380878
0.00230809
-0.00325473
0.00160113
-0.00270658
0.000822007
-0.0022427
-0.00196986
-1.93677e-09
0.00509636
-0.00682623
0.0051348
-0.00681224
0.00517199
-0.00678764
0.0052059
-0.00675048
0.00523352
-0.00669823
0.00525036
-0.00662681
0.00524957
-0.00652932
0.00522175
-0.00639639
0.0051555
-0.00621745
0.00503873
-0.00598266
0.00486018
-0.00568471
0.00461077
-0.0053199
0.0042844
-0.00488848
0.00387814
-0.00439413
0.00339209
-0.00384328
0.00282919
-0.00324588
0.00219573
-0.00262128
0.00150213
-0.00201298
0.000763437
-0.001504
-0.00120642
-3.84562e-09
0.00507332
-0.00687415
0.00511603
-0.00685494
0.00515219
-0.00682381
0.00517904
-0.00677733
0.0051928
-0.00671199
0.0051877
-0.00662171
0.00515552
-0.00649714
0.00508608
-0.00632695
0.00496865
-0.00610003
0.00479373
-0.00580774
0.00455443
-0.00544541
0.00424737
-0.00501284
0.00387284
-0.00451394
0.00343446
-0.00395575
0.00293885
-0.00334767
0.0023954
-0.00270244
0.00181641
-0.00204228
0.00121633
-0.0014129
0.00060843
-0.000896099
-0.000597982
-4.13835e-09
0.00504557
-0.00693831
0.00510825
-0.00691762
0.00516911
-0.00688467
0.00522595
-0.00683417
0.00527445
-0.0067605
0.0053073
-0.00665455
0.00531403
-0.00650388