/*--------------------------------*- C++ -*----------------------------------*\
  =========                 |
  \\      /  F ield         | OpenFOAM: The Open Source CFD Toolbox
   \\    /   O peration     | Website:  https://openfoam.org
    \\  /    A nd           | Version:  7
     \\/     M anipulation  |
\*---------------------------------------------------------------------------*/
FoamFile
{
    version     2.0;
    format      ascii;
    class       volVectorField;
    location    "96";
    object      U;
}
// * * * * * * * * * * * * * * * * * * * * * * * * * * * * * * * * * * * * * //

dimensions      [0 1 -1 0 0 0 0];

internalField   nonuniform List<vector> 
4000
(
(1.25701 0.222109 4.53367e-18)
(1.25267 0.240247 1.74884e-18)
(1.24534 0.247958 1.48253e-19)
(1.23965 0.262054 -1.63244e-18)
(1.23316 0.273489 8.77091e-19)
(1.22776 0.287588 1.81289e-18)
(1.22192 0.30145 7.40418e-18)
(1.21663 0.317205 5.75753e-18)
(1.2111 0.334342 8.41554e-18)
(1.20613 0.352764 1.3022e-17)
(1.20047 0.374908 7.89874e-18)
(1.19612 0.397724 6.37057e-18)
(1.18973 0.429159 -1.71176e-18)
(1.18843 0.459864 5.65713e-18)
(1.18194 0.505414 9.49958e-18)
(1.18766 0.536456 1.50585e-17)
(1.14822 0.551111 5.29467e-18)
(1.06561 0.472772 2.88424e-18)
(0.717403 0.246716 1.05157e-18)
(0.397533 0.00318109 2.45931e-18)
(1.26428 0.227121 3.56485e-18)
(1.25974 0.245052 1.09009e-18)
(1.25273 0.253092 -6.46153e-20)
(1.2473 0.267317 5.40288e-19)
(1.24119 0.279063 1.09934e-18)
(1.23611 0.293511 2.65437e-18)
(1.23069 0.307895 6.35234e-18)
(1.22592 0.324299 5.25356e-18)
(1.22119 0.342211 8.02825e-18)
(1.2172 0.361978 9.88446e-18)
(1.21325 0.385479 6.23857e-18)
(1.21114 0.410956 2.97637e-18)
(1.20964 0.444157 1.733e-18)
(1.21269 0.477286 8.68305e-18)
(1.20443 0.513384 7.38854e-18)
(1.16845 0.516644 1.04216e-17)
(1.03314 0.476091 4.2982e-18)
(0.755736 0.340808 -6.05149e-18)
(0.335888 0.226977 -3.97965e-17)
(-0.0932919 0.0981558 -3.02162e-18)
(1.27102 0.231887 2.56993e-18)
(1.26623 0.249689 9.78505e-19)
(1.25951 0.257935 5.24597e-19)
(1.25426 0.27229 6.81869e-19)
(1.24858 0.284349 1.2753e-18)
(1.244 0.299193 2.8605e-18)
(1.23943 0.31413 5.85107e-18)
(1.23576 0.331158 5.30236e-18)
(1.23242 0.3497 8.25996e-18)
(1.23003 0.370378 8.51188e-18)
(1.22831 0.394545 4.88912e-18)
(1.22912 0.421036 4.30014e-18)
(1.22998 0.452033 1.92873e-18)
(1.22537 0.475573 2.8079e-18)
(1.18445 0.481228 -4.55257e-18)
(1.06893 0.431717 5.45896e-18)
(0.819267 0.322612 -1.68976e-17)
(0.460717 0.158979 -4.23132e-17)
(0.0619065 0.0133992 -2.28622e-17)
(-0.00566834 -0.0273732 -1.42477e-17)
(1.27744 0.236419 2.4919e-18)
(1.27253 0.254127 3.28649e-19)
(1.26613 0.262483 -8.16528e-19)
(1.2611 0.276917 5.1944e-19)
(1.25585 0.289138 1.48885e-18)
(1.25167 0.304134 3.5949e-18)
(1.24761 0.319231 4.85201e-18)
(1.24441 0.336493 4.72154e-18)
(1.2417 0.355426 5.62429e-18)
(1.24068 0.376866 4.06869e-18)
(1.24155 0.401444 1.00905e-18)
(1.24416 0.426924 -2.28287e-18)
(1.23976 0.450198 -1.04113e-18)
(1.209 0.454692 4.86719e-18)
(1.10854 0.425023 -3.14977e-18)
(0.899015 0.336204 -5.98319e-20)
(0.565545 0.212535 -2.32791e-17)
(0.191458 0.0795279 -2.59135e-17)
(-0.0384782 0.0816038 -5.42465e-17)
(-0.09344 0.06406 -1.30607e-17)
(1.28363 0.240695 6.87876e-19)
(1.27874 0.258295 7.05896e-19)
(1.27269 0.266693 2.54435e-18)
(1.26798 0.281194 1.31126e-18)
(1.26326 0.293586 1.88105e-18)
(1.25973 0.308871 1.94891e-18)
(1.25668 0.324452 4.28732e-18)
(1.25501 0.342371 4.39048e-18)
(1.25456 0.361763 6.94186e-18)
(1.25602 0.38301 6.72973e-18)
(1.25796 0.40551 2.64593e-18)
(1.25563 0.42524 8.86339e-18)
(1.23177 0.434303 1.19594e-17)
(1.15534 0.413795 -6.20278e-18)
(0.980564 0.350736 -8.26335e-18)
(0.689676 0.237583 -7.31271e-18)
(0.327367 0.118627 -1.75187e-17)
(0.0457822 0.0550184 -9.2373e-18)
(-0.097927 0.0550682 -1.1542e-17)
(-0.0314736 0.0229943 -3.62813e-17)
(1.28962 0.244725 3.65734e-18)
(1.28481 0.262206 3.11687e-19)
(1.27913 0.270608 -9.73771e-19)
(1.27476 0.285131 -6.49393e-19)
(1.27053 0.29754 5.14568e-19)
(1.2675 0.312787 5.59162e-18)
(1.26488 0.328126 4.01448e-18)
(1.2635 0.34549 5.20044e-18)
(1.26319 0.36401 2.30213e-18)
(1.26422 0.384103 3.07064e-18)
(1.26322 0.403667 1.79353e-18)
(1.24928 0.415363 -8.84735e-18)
(1.19487 0.406707 -8.11652e-18)
(1.06134 0.361047 2.88866e-18)
(0.813901 0.274859 7.79363e-18)
(0.475855 0.160679 2.92885e-17)
(0.153421 0.0890835 1.76903e-17)
(-0.0508771 0.0708188 -4.83965e-18)
(-0.0980642 0.0908629 4.77667e-18)
(-0.0529652 0.0495242 -4.48095e-18)
(1.29537 0.248492 3.63325e-18)
(1.29071 0.265799 2.33976e-19)
(1.28539 0.274127 -1.36346e-19)
(1.28142 0.288628 -1.57243e-18)
(1.27774 0.301064 7.46286e-19)
(1.27541 0.316491 2.16909e-18)
(1.27396 0.332198 2.93349e-18)
(1.2745 0.350108 1.40392e-19)
(1.27674 0.368883 8.65735e-18)
(1.27886 0.387328 7.24053e-18)
(1.27179 0.400063 -6.81008e-18)
(1.23547 0.397307 1.72524e-18)
(1.13544 0.36753 1.17969e-17)
(0.937401 0.301196 -3.51003e-18)
(0.633028 0.20544 -1.39971e-17)
(0.295323 0.112508 2.00435e-17)
(0.0393302 0.0824122 -2.49031e-18)
(-0.0816454 0.0893306 -2.90507e-17)
(-0.105866 0.0926248 2.83061e-17)
(-0.0349053 0.0380617 3.18171e-18)
(1.30088 0.252037 9.39802e-19)
(1.29639 0.269172 -1.22103e-19)
(1.29144 0.277449 -2.21691e-18)
(1.28789 0.291926 1.85996e-18)
(1.28469 0.304275 1.37842e-18)
(1.28291 0.319453 1.00789e-18)
(1.28192 0.334401 1.88533e-18)
(1.28222 0.350623 4.86977e-18)
(1.28197 0.366137 6.97477e-18)
(1.27646 0.379024 -5.39553e-19)
(1.25219 0.382998 -7.03422e-18)
(1.18437 0.367928 -6.0754e-18)
(1.03732 0.322664 -3.50872e-18)
(0.786082 0.243751 -8.31629e-18)
(0.456936 0.15247 -5.14555e-18)
(0.158379 0.0936001 1.55581e-17)
(-0.0261967 0.0952095 -6.79523e-19)
(-0.108955 0.103081 -1.06295e-17)
(-0.101631 0.102005 5.45083e-19)
(-0.0439586 0.0442286 -2.86524e-18)
(1.30613 0.255308 4.71785e-18)
(1.30189 0.272172 -2.98624e-19)
(1.29732 0.280243 4.21987e-18)
(1.29423 0.294565 -4.60968e-18)
(1.29155 0.306775 -3.94294e-19)
(1.29044 0.321871 3.1413e-18)
(1.29037 0.336901 4.67774e-18)
(1.2918 0.353437 -3.20329e-18)
(1.29213 0.368968 2.9663e-18)
(1.28314 0.37945 7.14462e-18)
(1.24431 0.374516 -4.14318e-18)
(1.14291 0.341778 1.70311e-17)
(0.944533 0.276146 2.43274e-17)
(0.64713 0.189376 1.39999e-17)
(0.318138 0.1164 4.3922e-18)
(0.0692251 0.0888116 4.20833e-17)
(-0.0690364 0.0968891 2.40076e-17)
(-0.116964 0.100951 -2.70374e-17)
(-0.103782 0.0954706 -7.89014e-18)
(-0.0411071 0.0396885 -8.10346e-19)
(1.31115 0.258385 6.0148e-18)
(1.30717 0.275044 1.34204e-18)
(1.30288 0.283095 -1.71934e-18)
(1.30028 0.297421 -1.03779e-18)
(1.29803 0.309498 5.27004e-18)
(1.2975 0.324196 -7.13351e-20)
(1.29756 0.33803 5.5897e-18)
(1.2973 0.351571 6.98905e-19)
(1.29031 0.360382 1.3631e-17)
(1.26215 0.358297 4.50204e-18)
(1.18653 0.335425 3.41448e-18)
(1.03328 0.286406 1.46619e-17)
(0.78514 0.216456 -4.4799e-18)
(0.472079 0.144027 1.1377e-17)
(0.181136 0.0975775 2.09231e-18)
(-0.00786545 0.0849018 8.50349e-18)
(-0.0993256 0.0889947 -1.72337e-18)
(-0.121789 0.0879929 -5.53368e-18)
(-0.0954997 0.0836558 -1.37921e-17)
(-0.037558 0.0366098 -2.98336e-18)
(1.18039 0.16929 1.97004e-17)
(1.17034 0.193394 8.5471e-18)
(1.15969 0.201988 -1.38424e-18)
(1.14592 0.220488 -1.65173e-17)
(1.13323 0.233867 -9.48781e-18)
(1.11713 0.250809 3.69351e-17)
(1.10103 0.266789 1.19815e-17)
(1.08138 0.28439 3.95964e-17)
(1.05961 0.30228 2.22877e-18)
(1.03328 0.320968 7.57043e-18)
(1.00259 0.340053 2.37905e-17)
(0.965045 0.358974 -2.42019e-17)
(0.920773 0.377703 -5.42919e-17)
(0.866135 0.394668 -5.46507e-18)
(0.805482 0.409509 4.92464e-17)
(0.72894 0.418206 1.22605e-16)
(0.653261 0.426841 1.60511e-16)
(0.547624 0.412985 9.87769e-17)
(0.431205 0.398031 1.17808e-17)
(0.192138 0.19603 2.21827e-17)
(1.18809 0.174791 1.70885e-17)
(1.17862 0.198666 6.86164e-18)
(1.16828 0.207321 3.31723e-19)
(1.15535 0.22576 -1.47075e-17)
(1.14337 0.239245 -7.91947e-18)
(1.12842 0.25644 1.54589e-17)
(1.11353 0.272678 1.23579e-17)
(1.09552 0.290926 1.32898e-17)
(1.07577 0.309668 2.04696e-17)
(1.05196 0.32965 3.05249e-17)
(1.0244 0.350634 -3.43832e-18)
(0.990475 0.371923 -1.66294e-17)
(0.950677 0.394044 -3.89987e-18)
(0.901395 0.414338 -9.12379e-19)
(0.846867 0.43572 -3.74018e-18)
(0.778321 0.448262 9.33738e-17)
(0.708421 0.469448 1.13543e-16)
(0.618476 0.45778 1.45196e-17)
(0.495329 0.450914 8.28552e-17)
(0.245577 0.220054 2.01518e-17)
(1.1957 0.180286 1.12034e-17)
(1.18695 0.203808 5.55961e-18)
(1.17687 0.212459 -4.64257e-18)
(1.16494 0.230723 -8.07276e-18)
(1.15362 0.244238 -4.8119e-18)
(1.13993 0.26154 9.12779e-18)
(1.12622 0.277915 4.0493e-18)
(1.10983 0.296594 1.43834e-17)
(1.0919 0.315995 2.0614e-17)
(1.07028 0.337016 1.81559e-17)
(1.04523 0.359702 6.9297e-19)
(1.01407 0.383211 -1.78883e-17)
(0.977256 0.408912 -2.1205e-17)
(0.930349 0.433097 -1.27903e-17)
(0.877751 0.460942 -4.02449e-18)
(0.809996 0.479139 5.63602e-17)
(0.738809 0.508447 5.52835e-17)
(0.64533 0.500908 3.74769e-17)
(0.504328 0.48516 4.88144e-17)
(0.229306 0.224327 -6.28977e-19)
(1.20326 0.185729 1.63987e-17)
(1.19521 0.208792 4.71786e-18)
(1.18541 0.217388 9.25509e-18)
(1.17441 0.23536 -1.67225e-17)
(1.16373 0.248825 -7.89387e-18)
(1.1512 0.266078 1.19014e-17)
(1.13863 0.282461 1.77614e-17)
(1.1238 0.301339 1.0368e-19)
(1.10769 0.321156 1.09098e-17)
(1.08837 0.342835 3.14575e-17)
(1.06612 0.366796 3.63161e-18)
(1.03845 0.391796 8.00647e-18)
(1.00577 0.420538 1.96168e-17)
(0.964063 0.44728 2.10279e-17)
(0.916265 0.481853 1.4572e-18)
(0.856891 0.504053 8.25009e-17)
(0.787204 0.546956 8.17235e-17)
(0.706809 0.542431 -1.56703e-17)
(0.544827 0.520926 2.60186e-17)
(0.246011 0.235298 6.44324e-18)
(1.21088 0.191146 1.36518e-17)
(1.20349 0.213666 6.3242e-18)
(1.19401 0.222192 -4.76727e-18)
(1.18388 0.23979 -1.30202e-17)
(1.17385 0.253147 3.9054e-18)
(1.16248 0.270236 -1.23215e-18)
(1.15109 0.286523 1.21316e-17)
(1.13789 0.305409 -2.64354e-18)
(1.12369 0.325419 2.21237e-17)
(1.10685 0.347416 2.56871e-17)
(1.08758 0.372284 5.71397e-18)
(1.06364 0.398284 7.57418e-18)
(1.03507 0.429509 -8.78142e-18)
(0.998499 0.45836 1.49181e-17)
(0.954881 0.497448 4.77825e-18)
(0.901151 0.523117 6.16998e-17)
(0.833255 0.566561 5.72983e-17)
(0.745068 0.565314 1.86046e-18)
(0.57553 0.528722 1.43704e-17)
(0.236439 0.230402 2.79164e-18)
(1.21857 0.196456 1.0322e-17)
(1.21182 0.218314 -2.07832e-18)
(1.20271 0.226695 3.09162e-18)
(1.19345 0.243776 -1.03136e-17)
(1.18411 0.25689 2.65906e-18)
(1.17393 0.273603 -9.79689e-20)
(1.16373 0.28958 1.26346e-17)
(1.15221 0.308141 1.21119e-17)
(1.13997 0.327983 1.76653e-17)
(1.12581 0.349781 2.06619e-17)
(1.10959 0.374977 5.74179e-18)
(1.08995 0.401183 5.39711e-18)
(1.06541 0.434247 -3.68662e-19)
(1.0357 0.464421 1.07249e-17)
(0.995513 0.509289 4.87694e-18)
(0.953556 0.540891 4.66985e-17)
(0.885046 0.604467 4.06769e-17)
(0.824404 0.614546 7.79055e-18)
(0.622289 0.588817 1.15076e-17)
(0.279315 0.255458 8.62481e-19)
(1.22629 0.20177 8.65801e-18)
(1.22014 0.222938 -6.626e-19)
(1.21139 0.231201 2.13229e-18)
(1.20295 0.247759 -6.98417e-18)
(1.19426 0.260634 1.81923e-18)
(1.18521 0.276953 1.96704e-19)
(1.17613 0.29262 1.45414e-18)
(1.16621 0.310816 9.70422e-18)
(1.15585 0.330373 1.43115e-17)
(1.1442 0.351864 1.76523e-17)
(1.1309 0.377139 7.34824e-18)
(1.1151 0.403511 5.51634e-18)
(1.09502 0.437585 -1.11965e-17)
(1.071 0.468965 7.49247e-18)
(1.03717 0.514378 6.40351e-18)
(1.00024 0.545583 3.58916e-17)
(0.941235 0.591036 2.98212e-17)
(0.849846 0.593372 1.17031e-17)
(0.660134 0.53269 6.38324e-18)
(0.237797 0.225046 5.15551e-18)
(1.23398 0.206837 5.3789e-18)
(1.22844 0.227138 -1.94035e-18)
(1.2201 0.235098 7.64161e-19)
(1.21249 0.250871 -7.54378e-18)
(1.20449 0.263229 9.32393e-19)
(1.19658 0.278782 9.70581e-20)
(1.18862 0.293731 -1.20026e-18)
(1.18036 0.310971 8.39223e-18)
(1.1718 0.329623 1.12363e-17)
(1.1626 0.349931 1.2004e-17)
(1.15207 0.374321 3.32041e-18)
(1.14061 0.39919 1.65148e-18)
(1.12501 0.433161 -9.74392e-18)
(1.10846 0.463972 1.58341e-18)
(1.0797 0.514564 1.54371e-18)
(1.05482 0.554601 2.79333e-17)
(1.00032 0.640457 2.40984e-17)
(0.965686 0.680414 1.18564e-17)
(0.761753 0.699213 7.19648e-18)
(0.380715 0.314355 -4.55489e-18)
(1.24168 0.212078 7.30046e-18)
(1.2366 0.231679 2.86461e-18)
(1.22858 0.239587 1.55561e-18)
(1.22165 0.254854 3.09666e-19)
(1.21419 0.266982 1.03597e-18)
(1.20723 0.282128 7.00333e-19)
(1.20015 0.29677 5.14297e-18)
(1.19315 0.313614 5.91041e-18)
(1.18583 0.331958 9.14514e-18)
(1.17832 0.351868 1.68166e-17)
(1.16991 0.375919 1.14352e-17)
(1.16133 0.400494 9.40452e-18)
(1.14959 0.434237 -5.59155e-18)
(1.13867 0.465238 9.0718e-18)
(1.11809 0.512531 9.70964e-18)
(1.10026 0.543323 2.05239e-17)
(1.05287 0.578236 1.49875e-17)
(0.970846 0.563561 1.26938e-17)
(0.743934 0.464222 9.07745e-18)
(0.252946 0.175404 -5.88756e-19)
(1.24924 0.216689 5.86421e-18)
(1.24482 0.235146 2.29851e-18)
(1.23725 0.242381 -7.27664e-19)
(1.23115 0.256344 -1.62144e-18)
(1.22438 0.267442 6.53294e-19)
(1.21852 0.28116 3.57698e-19)
(1.21244 0.294416 5.90354e-18)
(1.20681 0.309431 8.88669e-18)
(1.20092 0.32591 7.34453e-18)
(1.19583 0.34314 1.60656e-17)
(1.18977 0.364495 1.11686e-17)
(1.18588 0.384841 9.46044e-18)
(1.17773 0.414903 -2.05891e-18)
(1.17445 0.440945 2.62758e-18)
(1.15512 0.490718 5.17835e-18)
(1.14712 0.53853 1.72171e-17)
(1.11042 0.641796 1.51026e-17)
(1.12277 0.729512 1.51182e-17)
(0.993064 0.819662 -2.03512e-18)
(0.668379 0.394543 2.26313e-19)
(1.24924 -0.216689 6.15875e-18)
(1.24482 -0.235146 6.65504e-18)
(1.23725 -0.242381 3.00867e-18)
(1.23115 -0.256344 3.34094e-18)
(1.22438 -0.267443 -2.30157e-18)
(1.21852 -0.28116 -4.67733e-18)
(1.21244 -0.294417 5.24989e-19)
(1.20681 -0.309431 -1.81294e-18)
(1.20092 -0.32591 -6.70711e-18)
(1.19583 -0.34314 -1.16677e-17)
(1.18977 -0.364495 -1.09719e-18)
(1.18588 -0.384841 3.63731e-18)
(1.17773 -0.414903 -8.96739e-18)
(1.17445 -0.440945 -6.35888e-18)
(1.15512 -0.490718 -5.9243e-18)
(1.14712 -0.53853 -2.48534e-17)
(1.11042 -0.641796 -1.16159e-17)
(1.12277 -0.729512 -1.03237e-17)
(0.993064 -0.819662 3.60139e-19)
(0.668378 -0.394543 -5.69157e-19)
(1.24168 -0.212078 5.692e-18)
(1.2366 -0.231679 7.34638e-18)
(1.22858 -0.239587 3.75919e-18)
(1.22165 -0.254854 5.01654e-18)
(1.21419 -0.266982 -3.3245e-18)
(1.20723 -0.282128 -4.93472e-18)
(1.20015 -0.29677 3.44908e-19)
(1.19315 -0.313614 -1.34752e-18)
(1.18583 -0.331958 -9.40352e-18)
(1.17832 -0.351868 -1.36263e-17)
(1.16991 -0.375919 2.90717e-18)
(1.16133 -0.400494 3.34342e-18)
(1.14959 -0.434237 -1.65149e-17)
(1.13867 -0.465238 -8.91797e-18)
(1.11809 -0.512531 -7.74651e-18)
(1.10026 -0.543323 -2.74273e-17)
(1.05287 -0.578236 -6.68786e-18)
(0.970846 -0.563561 -1.30108e-17)
(0.743934 -0.464222 -1.01894e-17)
(0.252946 -0.175404 6.92239e-18)
(1.23398 -0.206837 7.18531e-18)
(1.22844 -0.227138 9.44305e-18)
(1.2201 -0.235098 3.86834e-18)
(1.21249 -0.250871 6.58137e-18)
(1.20449 -0.263229 -1.17785e-17)
(1.19658 -0.278782 -6.48327e-18)
(1.18862 -0.293731 1.25922e-18)
(1.18036 -0.310971 -1.49054e-18)
(1.1718 -0.329623 -1.17633e-17)
(1.1626 -0.349931 -1.78294e-17)
(1.15207 -0.374321 4.86499e-18)
(1.14061 -0.39919 5.00404e-18)
(1.12501 -0.433161 -2.13268e-17)
(1.10846 -0.463972 -7.53324e-18)
(1.0797 -0.514564 -8.8809e-18)
(1.05482 -0.554601 -2.84228e-17)
(1.00032 -0.640457 8.77576e-19)
(0.965686 -0.680414 -1.82039e-17)
(0.761753 -0.699213 -9.90731e-18)
(0.380715 -0.314355 5.47089e-18)
(1.22629 -0.20177 3.02416e-18)
(1.22014 -0.222938 1.16747e-17)
(1.21139 -0.231201 3.90422e-18)
(1.20295 -0.247759 1.30707e-18)
(1.19426 -0.260634 -1.28953e-17)
(1.18521 -0.276953 -7.33259e-18)
(1.17613 -0.29262 -8.19869e-18)
(1.16621 -0.310816 -1.19295e-18)
(1.15585 -0.330373 -2.96087e-18)
(1.1442 -0.351864 -2.33704e-17)
(1.1309 -0.377139 9.63454e-18)
(1.1151 -0.403511 4.59553e-18)
(1.09502 -0.437586 -1.5541e-17)
(1.071 -0.468965 7.94996e-18)
(1.03717 -0.514378 -9.95984e-18)
(1.00024 -0.545583 -4.13251e-17)
(0.941235 -0.591036 1.93319e-18)
(0.849846 -0.593372 -2.11094e-17)
(0.660134 -0.53269 -1.29704e-17)
(0.237797 -0.225046 -1.46471e-18)
(1.21857 -0.196456 4.59213e-18)
(1.21182 -0.218314 1.47087e-17)
(1.20271 -0.226695 4.6088e-18)
(1.19345 -0.243776 -4.14611e-18)
(1.18411 -0.25689 -1.75852e-17)
(1.17393 -0.273603 -8.19447e-18)
(1.16373 -0.28958 -6.06889e-18)
(1.15221 -0.308141 -1.33495e-17)
(1.13997 -0.327983 -8.1957e-18)
(1.12581 -0.349781 -1.63334e-17)
(1.10959 -0.374977 3.00366e-19)
(1.08995 -0.401183 6.11305e-18)
(1.06541 -0.434247 -2.77957e-17)
(1.0357 -0.464421 7.62979e-18)
(0.995513 -0.509289 -1.6528e-17)
(0.953556 -0.540891 -5.28184e-17)
(0.885046 -0.604467 9.59978e-18)
(0.824404 -0.614546 -2.93389e-17)
(0.622289 -0.588817 -1.94878e-17)
(0.279315 -0.255458 -1.35586e-18)
(1.21088 -0.191146 3.38388e-18)
(1.20349 -0.213666 1.8128e-17)
(1.19401 -0.222192 5.86429e-18)
(1.18388 -0.23979 -1.99983e-18)
(1.17385 -0.253147 -9.8874e-18)
(1.16248 -0.270236 -2.2298e-17)
(1.15109 -0.286523 -7.74849e-18)
(1.13789 -0.305409 -1.20301e-17)
(1.12369 -0.325419 -6.25472e-18)
(1.10685 -0.347416 -8.68213e-18)
(1.08758 -0.372284 -1.18972e-17)
(1.06364 -0.398284 3.00926e-17)
(1.03507 -0.429509 -3.75913e-17)
(0.998499 -0.45836 1.90176e-17)
(0.954881 -0.497448 -2.21772e-17)
(0.901151 -0.523117 -3.74217e-17)
(0.833255 -0.566561 2.48665e-17)
(0.745068 -0.565314 -3.96918e-17)
(0.57553 -0.528722 -2.97832e-17)
(0.236439 -0.230402 2.5845e-18)
(1.20326 -0.185729 2.92917e-18)
(1.19521 -0.208792 1.25379e-17)
(1.18541 -0.217388 6.87814e-18)
(1.17441 -0.23536 -3.18315e-18)
(1.16373 -0.248825 -3.20364e-18)
(1.1512 -0.266078 -8.45353e-18)
(1.13863 -0.282461 8.4025e-18)
(1.1238 -0.301339 -1.52218e-17)
(1.10769 -0.321157 -8.62705e-18)
(1.08837 -0.342835 4.79883e-18)
(1.06612 -0.366796 -1.09765e-17)
(1.03845 -0.391796 3.51343e-17)
(1.00577 -0.420538 -3.10193e-17)
(0.964063 -0.44728 -2.1966e-18)
(0.916265 -0.481853 3.46507e-18)
(0.856891 -0.504053 -1.2703e-17)
(0.787204 -0.546956 3.89094e-17)
(0.706809 -0.542431 1.17797e-17)
(0.544827 -0.520926 -4.31951e-17)
(0.246011 -0.235298 1.07828e-17)
(1.1957 -0.180286 2.69479e-18)
(1.18695 -0.203808 1.92091e-17)
(1.17687 -0.212459 8.69526e-18)
(1.16494 -0.230723 -3.63751e-18)
(1.15362 -0.244238 -7.38239e-18)
(1.13993 -0.26154 -1.90681e-17)
(1.12622 -0.277915 -1.19274e-17)
(1.10983 -0.296594 -2.48832e-19)
(1.0919 -0.315995 -9.54667e-18)
(1.07028 -0.337016 -2.15251e-17)
(1.04523 -0.359702 -1.73254e-17)
(1.01407 -0.383211 2.20716e-17)
(0.977256 -0.408912 -2.37163e-17)
(0.930349 -0.433097 1.25258e-17)
(0.877751 -0.460942 -5.18955e-17)
(0.809996 -0.479139 -2.78007e-17)
(0.738809 -0.508447 5.05706e-17)
(0.64533 -0.500908 6.62471e-18)
(0.504328 -0.48516 1.92684e-17)
(0.229306 -0.224327 4.12378e-17)
(1.18809 -0.174791 1.64229e-18)
(1.17862 -0.198666 2.16645e-17)
(1.16828 -0.207321 1.00903e-17)
(1.15535 -0.22576 -4.38582e-18)
(1.14337 -0.239245 -7.04981e-18)
(1.12842 -0.25644 -1.9621e-17)
(1.11353 -0.272678 -6.34265e-18)
(1.09552 -0.290926 -5.17361e-18)
(1.07577 -0.309668 -1.45841e-17)
(1.05196 -0.32965 -1.69013e-17)
(1.0244 -0.350634 -1.59595e-17)
(0.990475 -0.371923 3.93289e-17)
(0.950677 -0.394044 -4.51249e-17)
(0.901395 -0.414338 1.67697e-17)
(0.846867 -0.43572 -4.92493e-17)
(0.778321 -0.448262 -2.21426e-17)
(0.708421 -0.469448 7.40131e-17)
(0.618476 -0.45778 1.02592e-17)
(0.495329 -0.450914 1.18284e-17)
(0.245577 -0.220054 8.92457e-17)
(1.18039 -0.16929 1.17788e-17)
(1.17034 -0.193394 4.09412e-17)
(1.15969 -0.201988 -1.70128e-18)
(1.14592 -0.220488 1.03641e-17)
(1.13323 -0.233867 -8.70846e-18)
(1.11713 -0.250809 -2.63719e-17)
(1.10103 -0.266789 -1.00871e-17)
(1.08138 -0.28439 -2.48256e-17)
(1.05961 -0.30228 -4.30901e-17)
(1.03328 -0.320968 2.19126e-18)
(1.00259 -0.340053 9.58505e-18)
(0.965045 -0.358974 5.32501e-17)
(0.920773 -0.377703 -2.41853e-17)
(0.866135 -0.394668 -1.64783e-17)
(0.805482 -0.409509 -8.23377e-17)
(0.72894 -0.418206 -2.25202e-17)
(0.653261 -0.426841 1.06801e-16)
(0.547624 -0.412985 1.19876e-17)
(0.431205 -0.398031 4.50801e-19)
(0.192138 -0.19603 1.26662e-17)
(1.31115 -0.258385 -2.92168e-19)
(1.30717 -0.275045 4.54879e-18)
(1.30288 -0.283095 7.07458e-19)
(1.30028 -0.297421 -2.21732e-18)
(1.29803 -0.309498 -3.88179e-18)
(1.2975 -0.324196 -2.48987e-19)
(1.29756 -0.33803 -2.81578e-18)
(1.2973 -0.351571 -3.96519e-18)
(1.29031 -0.360382 -7.71214e-19)
(1.26215 -0.358297 -8.34713e-18)
(1.18653 -0.335425 -2.66182e-18)
(1.03328 -0.286406 7.34902e-18)
(0.78514 -0.216456 -2.79289e-17)
(0.472079 -0.144027 2.87036e-17)
(0.181135 -0.0975775 -3.50695e-17)
(-0.00786547 -0.0849018 -4.58461e-17)
(-0.0993256 -0.0889947 -4.68938e-18)
(-0.121789 -0.0879929 -4.01781e-17)
(-0.0954996 -0.0836557 -1.15217e-17)
(-0.0375579 -0.0366098 -8.92709e-19)
(1.30613 -0.255308 -9.50668e-19)
(1.30189 -0.272172 -6.96242e-19)
(1.29732 -0.280243 1.4454e-18)
(1.29423 -0.294565 -1.92212e-18)
(1.29155 -0.306775 1.32891e-18)
(1.29044 -0.321871 -4.78063e-20)
(1.29037 -0.336901 4.83359e-18)
(1.2918 -0.353437 -4.64295e-18)
(1.29213 -0.368968 3.84043e-19)
(1.28314 -0.37945 2.47466e-18)
(1.24431 -0.374516 -7.69237e-18)
(1.14291 -0.341778 -2.4949e-18)
(0.944533 -0.276146 -1.85253e-17)
(0.64713 -0.189376 6.60981e-18)
(0.318138 -0.1164 1.60175e-17)
(0.0692251 -0.0888116 -1.58048e-17)
(-0.0690364 -0.0968891 1.31564e-18)
(-0.116964 -0.100951 -2.16147e-17)
(-0.103782 -0.0954706 -3.50585e-17)
(-0.041107 -0.0396885 -2.49343e-18)
(1.30088 -0.252037 -8.49486e-19)
(1.29639 -0.269172 1.40852e-18)
(1.29144 -0.277449 1.78349e-18)
(1.28789 -0.291926 -2.88476e-18)
(1.28469 -0.304275 -1.33e-18)
(1.28291 -0.319453 -1.46628e-18)
(1.28192 -0.334401 -2.85457e-18)
(1.28222 -0.350623 3.10475e-18)
(1.28197 -0.366137 -2.30028e-18)
(1.27646 -0.379024 -1.04543e-17)
(1.25219 -0.382998 -6.06955e-18)
(1.18437 -0.367928 -1.14036e-17)
(1.03732 -0.322664 -9.5657e-18)
(0.786082 -0.243751 3.4099e-18)
(0.456936 -0.15247 -1.2989e-17)
(0.158379 -0.0936001 -3.1544e-18)
(-0.0261967 -0.0952094 9.6318e-18)
(-0.108955 -0.103081 -1.02034e-17)
(-0.101631 -0.102005 -1.47707e-17)
(-0.0439586 -0.0442286 4.5716e-18)
(1.29537 -0.248492 -1.35728e-18)
(1.29071 -0.265799 4.7078e-19)
(1.28539 -0.274127 2.89664e-18)
(1.28142 -0.288628 -2.64586e-18)
(1.27774 -0.301064 -8.4571e-19)
(1.27541 -0.316491 -6.03195e-19)
(1.27396 -0.332198 -6.85589e-19)
(1.2745 -0.350108 2.59531e-19)
(1.27674 -0.368883 2.91953e-18)
(1.27886 -0.387328 -6.43359e-18)
(1.27179 -0.400063 -8.33618e-18)
(1.23547 -0.397307 -1.07413e-17)
(1.13544 -0.36753 -2.09833e-17)
(0.937401 -0.301196 8.72739e-18)
(0.633028 -0.20544 -1.45914e-17)
(0.295323 -0.112508 2.32873e-18)
(0.0393302 -0.0824122 1.16953e-17)
(-0.0816454 -0.0893305 -6.94268e-18)
(-0.105866 -0.0926248 -1.46716e-18)
(-0.0349053 -0.0380617 2.67183e-17)
(1.28962 -0.244725 3.6181e-18)
(1.28481 -0.262207 5.04353e-18)
(1.27913 -0.270608 -7.67468e-20)
(1.27476 -0.285131 5.33501e-19)
(1.27053 -0.29754 -1.6815e-18)
(1.2675 -0.312787 -1.13559e-18)
(1.26488 -0.328126 -2.42733e-18)
(1.2635 -0.34549 -4.31016e-18)
(1.26319 -0.36401 -2.60439e-18)
(1.26422 -0.384103 7.97496e-19)
(1.26322 -0.403667 -7.34162e-18)
(1.24928 -0.415363 -8.06958e-18)
(1.19487 -0.406707 -1.32821e-17)
(1.06134 -0.361047 -1.52596e-17)
(0.813901 -0.274859 -2.04009e-17)
(0.475855 -0.160679 5.8395e-18)
(0.153421 -0.0890835 2.07493e-17)
(-0.0508771 -0.0708187 -8.61968e-18)
(-0.0980642 -0.0908629 -7.07161e-18)
(-0.0529652 -0.0495242 5.18887e-18)
(1.28363 -0.240695 1.5334e-18)
(1.27875 -0.258295 1.37516e-18)
(1.27269 -0.266693 1.65356e-18)
(1.26798 -0.281194 -3.77555e-19)
(1.26326 -0.293586 -1.56976e-18)
(1.25973 -0.308871 -7.45053e-19)
(1.25668 -0.324452 -1.28736e-18)
(1.25501 -0.342371 -2.93785e-18)
(1.25456 -0.361763 -2.00828e-18)
(1.25602 -0.38301 -4.78897e-19)
(1.25796 -0.40551 -7.35942e-18)
(1.25563 -0.42524 -8.35989e-18)
(1.23177 -0.434303 -2.68022e-18)
(1.15534 -0.413795 -5.4613e-18)
(0.980564 -0.350736 -5.20088e-18)
(0.689676 -0.237583 -3.71444e-19)
(0.327367 -0.118627 -3.78699e-17)
(0.0457822 -0.0550184 -2.10104e-17)
(-0.097927 -0.0550682 -4.20317e-17)
(-0.0314736 -0.0229943 -3.24632e-18)
(1.27744 -0.236419 3.11794e-18)
(1.27253 -0.254127 3.65693e-18)
(1.26613 -0.262483 1.64502e-18)
(1.2611 -0.276917 5.30672e-19)
(1.25585 -0.289138 -2.14048e-18)
(1.25167 -0.304134 -1.07306e-18)
(1.24761 -0.319231 -1.54898e-18)
(1.24441 -0.336493 -2.25315e-18)
(1.2417 -0.355426 -3.5845e-18)
(1.24068 -0.376866 -1.45462e-18)
(1.24155 -0.401444 -9.04496e-19)
(1.24416 -0.426924 -3.93537e-18)
(1.23976 -0.450198 -1.00365e-17)
(1.209 -0.454692 -1.0993e-17)
(1.10854 -0.425023 -1.65278e-17)
(0.899015 -0.336204 -1.83685e-17)
(0.565545 -0.212535 -6.77152e-18)
(0.191458 -0.0795279 -2.58734e-17)
(-0.0384782 -0.0816038 -1.14908e-17)
(-0.09344 -0.06406 -2.3108e-19)
(1.27102 -0.231887 2.94601e-18)
(1.26623 -0.249689 2.2617e-18)
(1.25951 -0.257935 2.42926e-18)
(1.25426 -0.27229 1.022e-18)
(1.24858 -0.284349 -2.4152e-18)
(1.244 -0.299193 -1.13678e-18)
(1.23943 -0.31413 -1.42001e-18)
(1.23576 -0.331158 -2.43255e-18)
(1.23242 -0.3497 -4.24046e-18)
(1.23003 -0.370378 -2.11022e-18)
(1.22831 -0.394545 3.79525e-19)
(1.22912 -0.421036 -2.97798e-18)
(1.22998 -0.452033 -5.83818e-18)
(1.22537 -0.475573 -7.58349e-18)
(1.18445 -0.481228 -1.26371e-17)
(1.06893 -0.431717 -1.87136e-17)
(0.819267 -0.322612 -1.47849e-17)
(0.460717 -0.158979 -3.99382e-17)
(0.0619065 -0.0133992 3.91329e-19)
(-0.00566834 0.0273731 1.01807e-17)
(1.26428 -0.227121 3.93261e-18)
(1.25974 -0.245052 3.17094e-18)
(1.25273 -0.253092 2.98212e-18)
(1.2473 -0.267317 2.11933e-18)
(1.24119 -0.279063 -1.91921e-18)
(1.23611 -0.293511 -1.45404e-18)
(1.23069 -0.307895 -1.41233e-18)
(1.22592 -0.324299 -2.01142e-18)
(1.22119 -0.342211 -6.34593e-18)
(1.2172 -0.361978 -4.04934e-18)
(1.21325 -0.385479 7.91909e-19)
(1.21114 -0.410956 -4.32376e-18)
(1.20964 -0.444157 -7.37546e-18)
(1.21269 -0.477286 -8.00827e-18)
(1.20443 -0.513384 -1.11965e-17)
(1.16845 -0.516644 -2.17192e-17)
(1.03314 -0.476091 -1.03033e-17)
(0.755736 -0.340808 3.67149e-18)
(0.335888 -0.226977 4.35604e-18)
(-0.0932919 -0.0981558 1.49129e-17)
(1.25701 -0.222109 4.59679e-18)
(1.25267 -0.240247 3.57348e-18)
(1.24534 -0.247958 3.68172e-18)
(1.23965 -0.262054 3.32151e-18)
(1.23316 -0.273489 -2.34035e-18)
(1.22776 -0.287588 -1.7582e-18)
(1.22192 -0.30145 -1.44397e-18)
(1.21663 -0.317205 -7.56806e-19)
(1.2111 -0.334342 -6.77684e-18)
(1.20613 -0.352764 -6.99223e-18)
(1.20047 -0.374908 2.26368e-18)
(1.19612 -0.397724 -1.18419e-18)
(1.18973 -0.429159 -6.91989e-18)
(1.18843 -0.459864 -3.59628e-18)
(1.18194 -0.505414 -6.54482e-18)
(1.18766 -0.536456 -1.30673e-17)
(1.14822 -0.551111 -7.17774e-18)
(1.06561 -0.472772 -1.24466e-17)
(0.717403 -0.246716 -1.27548e-18)
(0.397533 -0.00318109 5.53006e-17)
(1.15538 -0.151644 -5.03657e-18)
(1.14426 -0.176006 1.21776e-17)
(1.13251 -0.184309 5.84685e-18)
(1.11808 -0.202684 2.98825e-18)
(1.10366 -0.215449 -1.50625e-17)
(1.0868 -0.231196 -4.4898e-17)
(1.06903 -0.245817 -6.52793e-18)
(1.0485 -0.260508 -1.45363e-17)
(1.02559 -0.274625 -5.06404e-17)
(0.999028 -0.287652 -7.3281e-18)
(0.968534 -0.299118 -1.56692e-17)
(0.932846 -0.308119 -1.87751e-17)
(0.891486 -0.313013 2.28678e-17)
(0.842503 -0.31272 2.1212e-17)
(0.786474 -0.305511 3.22724e-17)
(0.722669 -0.290335 -9.90326e-18)
(0.653843 -0.264275 -3.19919e-17)
(0.576029 -0.227478 1.88636e-18)
(0.509734 -0.169928 2.10384e-18)
(0.391061 -0.0841359 2.01457e-17)
(1.12153 -0.117272 -9.44619e-19)
(1.11227 -0.136087 -3.77059e-18)
(1.10175 -0.141612 5.26236e-18)
(1.08944 -0.154437 3.53824e-17)
(1.07614 -0.162726 -6.14793e-18)
(1.0617 -0.172552 -1.39728e-17)
(1.04587 -0.181221 -1.61621e-17)
(1.02884 -0.18952 -1.70083e-17)
(1.01036 -0.197191 -1.99498e-17)
(0.990604 -0.20404 -1.08385e-17)
(0.969439 -0.209532 -3.78755e-18)
(0.946954 -0.213162 -9.05184e-19)
(0.923022 -0.214281 -9.46107e-18)
(0.897797 -0.211702 -2.39572e-19)
(0.870838 -0.204137 8.96548e-18)
(0.842265 -0.189819 -2.92349e-18)
(0.812656 -0.168516 2.17491e-18)
(0.783421 -0.134219 -2.84964e-18)
(0.758234 -0.0949552 3.23953e-18)
(0.74757 -0.0359696 6.53685e-18)
(1.09177 -0.0959083 -3.01343e-18)
(1.08329 -0.112288 -3.25249e-18)
(1.07379 -0.116987 -9.08854e-18)
(1.06245 -0.127718 -1.99713e-17)
(1.05036 -0.133935 -2.17441e-17)
(1.03701 -0.140814 -7.01452e-17)
(1.02252 -0.146015 -3.46216e-17)
(1.00657 -0.150057 -4.25835e-17)
(0.989099 -0.152591 -9.33621e-17)
(0.969876 -0.153383 -3.19753e-17)
(0.948924 -0.152239 -2.08398e-17)
(0.926333 -0.148899 -7.26305e-18)
(0.902478 -0.143096 -1.22427e-17)
(0.877907 -0.134664 1.05257e-17)
(0.853593 -0.123293 6.00789e-17)
(0.830452 -0.108932 -1.9807e-17)
(0.809403 -0.0906582 -9.495e-18)
(0.790651 -0.0693348 -1.68547e-17)
(0.776114 -0.0431106 1.12768e-17)
(0.762048 -0.0147255 1.05404e-16)
(1.06941 -0.0689517 -8.80367e-18)
(1.06272 -0.0812301 -6.22412e-18)
(1.05537 -0.0845478 -9.29696e-18)
(1.04657 -0.0923282 -8.59132e-18)
(1.03731 -0.0968058 -1.12937e-17)
(1.02752 -0.10187 -1.86437e-17)
(1.01737 -0.10578 -6.99111e-17)
(1.00703 -0.108906 -6.90809e-17)
(0.996577 -0.111039 -7.84174e-17)
(0.986157 -0.111988 -7.89031e-17)
(0.975805 -0.11152 -6.09963e-17)
(0.965531 -0.109381 -9.42253e-18)
(0.955262 -0.105296 -6.12683e-17)
(0.944942 -0.0989714 -1.29021e-17)
(0.934536 -0.0902342 -7.6224e-17)
(0.924319 -0.0788753 -7.14002e-17)
(0.914778 -0.0651834 -1.15282e-17)
(0.907061 -0.0488302 -7.43028e-17)
(0.901831 -0.0308917 -1.63192e-17)
(0.900738 -0.0107617 -7.6922e-17)
(1.05119 -0.0557675 -2.08932e-17)
(1.04568 -0.0652427 -1.1365e-17)
(1.03951 -0.0675294 -2.6359e-17)
(1.03201 -0.0730774 -3.65189e-17)
(1.02399 -0.0757405 -3.53876e-17)
(1.01522 -0.0784937 -6.00335e-17)
(1.00573 -0.0800371 5.25496e-18)
(0.995498 -0.0806752 3.0778e-17)
(0.984538 -0.080305 -3.83939e-17)
(0.972914 -0.0788807 1.19148e-17)
(0.960803 -0.0763826 4.6829e-17)
(0.948471 -0.0727955 2.38453e-17)
(0.936295 -0.0681094 5.27579e-17)
(0.924704 -0.0623277 3.96507e-17)
(0.914133 -0.0554118 1.3339e-16)
(0.904865 -0.0474 6.63913e-17)
(0.89707 -0.0381988 2.76463e-17)
(0.890614 -0.0280767 5.40798e-17)
(0.885686 -0.0170121 3.8155e-17)
(0.882237 -0.00563637 1.40135e-16)
(1.03797 -0.0384215 -5.48456e-17)
(1.03391 -0.0457433 -1.46339e-17)
(1.02957 -0.047691 -6.75458e-17)
(1.02437 -0.0522029 -8.57663e-17)
(1.01906 -0.05463 -6.3645e-17)
(1.01359 -0.0572115 -5.97054e-18)
(1.00814 -0.0589706 -4.80173e-17)
(1.00281 -0.0601132 6.70043e-17)