/*--------------------------------*- C++ -*----------------------------------*\
  =========                 |
  \\      /  F ield         | OpenFOAM: The Open Source CFD Toolbox
   \\    /   O peration     | Website:  https://openfoam.org
    \\  /    A nd           | Version:  7
     \\/     M anipulation  |
\*---------------------------------------------------------------------------*/
FoamFile
{
    version     2.0;
    format      ascii;
    class       volVectorField;
    location    "36";
    object      U;
}
// * * * * * * * * * * * * * * * * * * * * * * * * * * * * * * * * * * * * * //

dimensions      [0 1 -1 0 0 0 0];

internalField   nonuniform List<vector> 
4000
(
(1.25705 0.222161 1.78992e-17)
(1.2527 0.240307 7.31418e-18)
(1.24536 0.24802 9.86462e-19)
(1.23967 0.262119 -8.10525e-18)
(1.23318 0.273556 2.57164e-18)
(1.22776 0.287657 4.65798e-18)
(1.22191 0.301518 2.53144e-17)
(1.21662 0.317273 1.00096e-17)
(1.21109 0.334408 1.80261e-17)
(1.2061 0.352827 3.32858e-17)
(1.20044 0.374967 1.85081e-17)
(1.19608 0.397779 2.25627e-17)
(1.18968 0.429209 -3.05509e-18)
(1.18838 0.459908 1.53018e-17)
(1.18188 0.505449 1.45349e-17)
(1.1876 0.536481 2.01445e-17)
(1.14815 0.551117 9.0255e-18)
(1.06552 0.472761 1.51563e-17)
(0.717331 0.246699 -7.19792e-18)
(0.397485 0.00317882 2.23655e-18)
(1.26432 0.227177 1.40338e-17)
(1.25978 0.245117 6.27539e-18)
(1.25276 0.253159 4.28068e-18)
(1.24733 0.267388 1.37949e-17)
(1.2412 0.279135 2.42623e-18)
(1.23611 0.293584 8.20522e-18)
(1.23068 0.307969 2.25191e-17)
(1.2259 0.324371 9.28051e-18)
(1.22117 0.342282 2.13431e-17)
(1.21718 0.362045 2.80683e-17)
(1.21321 0.385542 2.6707e-17)
(1.2111 0.411014 1.34073e-17)
(1.20959 0.444209 4.84695e-19)
(1.21263 0.47733 1.93021e-17)
(1.20436 0.513415 2.15704e-17)
(1.16837 0.516658 1.29657e-17)
(1.03305 0.476085 5.33835e-18)
(0.755648 0.340791 4.08855e-18)
(0.335837 0.22696 -1.82691e-17)
(-0.0932872 0.0981494 -2.47501e-18)
(1.27107 0.231947 1.16853e-17)
(1.26627 0.249758 3.54356e-18)
(1.25954 0.258006 1.06586e-18)
(1.25428 0.272366 1.00854e-17)
(1.2486 0.284427 2.46396e-18)
(1.244 0.299272 8.4086e-18)
(1.23942 0.314209 1.19739e-17)
(1.23575 0.331235 9.32082e-18)
(1.2324 0.349775 1.99562e-17)
(1.22999 0.370449 2.55766e-17)
(1.22827 0.394612 3.41686e-17)
(1.22907 0.421097 2.82019e-18)
(1.22992 0.452086 7.14081e-18)
(1.2253 0.475615 2.00933e-17)
(1.18437 0.481252 2.01581e-17)
(1.06883 0.431721 3.85307e-18)
(0.819168 0.3226 -1.40438e-18)
(0.460649 0.158968 -1.08399e-17)
(0.0618925 0.0134009 -8.63932e-18)
(-0.00566875 -0.0273677 -7.06947e-18)
(1.27749 0.236484 7.93322e-18)
(1.27258 0.254201 5.64304e-18)
(1.26616 0.26256 1.0437e-17)
(1.26112 0.276999 9.76256e-18)
(1.25587 0.289222 3.07852e-18)
(1.25168 0.304219 7.91176e-18)
(1.2476 0.319316 2.71834e-17)
(1.24439 0.336576 8.69962e-18)
(1.24168 0.355505 2.38283e-17)
(1.24064 0.376942 2.76236e-17)
(1.2415 0.401515 2.25791e-17)
(1.2441 0.426988 4.75282e-18)
(1.23969 0.45025 1.24625e-17)
(1.20891 0.454727 1.63607e-17)
(1.10844 0.425037 1.16108e-17)
(0.898904 0.336198 -1.00249e-18)
(0.565457 0.212523 -3.60507e-18)
(0.19142 0.0795261 -7.91077e-18)
(-0.0384801 0.0816014 -1.92414e-17)
(-0.093433 0.0640557 -5.81362e-18)
(1.28369 0.240764 1.10274e-17)
(1.27879 0.258375 1.60713e-18)
(1.27273 0.266776 -1.24908e-17)
(1.268 0.281283 2.77585e-18)
(1.26327 0.293676 1.29757e-18)
(1.25973 0.308963 1.78423e-17)
(1.25667 0.324542 2.09622e-17)
(1.25499 0.34246 8.7804e-18)
(1.25453 0.361849 1.66243e-17)
(1.25598 0.383091 9.55825e-18)
(1.2579 0.405584 1.60451e-17)
(1.25556 0.425304 -1.96365e-18)
(1.23168 0.434351 4.98629e-18)
(1.15523 0.413822 1.35002e-17)
(0.980442 0.35074 4.10423e-18)
(0.689568 0.237573 -3.01872e-18)
(0.327305 0.11862 -2.8633e-18)
(0.0457674 0.0550172 -2.85506e-18)
(-0.0979199 0.0550646 -4.74926e-18)
(-0.0314718 0.022993 -1.30227e-17)
(1.28968 0.2448 -2.7135e-18)
(1.28486 0.262293 1.84737e-18)
(1.27916 0.270697 6.52863e-18)
(1.27478 0.285226 1.59955e-17)
(1.27054 0.297637 1.16348e-17)
(1.2675 0.312885 -2.72265e-18)
(1.26487 0.328223 1.69664e-17)
(1.26348 0.345585 4.60636e-18)
(1.26315 0.364102 2.08082e-17)
(1.26416 0.384189 9.7649e-18)
(1.26315 0.403744 8.7048e-18)
(1.2492 0.415426 8.1307e-18)
(1.19476 0.406749 1.0806e-17)
(1.06121 0.361064 8.848e-18)
(0.813772 0.274854 2.65909e-18)
(0.475763 0.160667 2.83613e-18)
(0.153384 0.0890759 4.14781e-18)
(-0.0508778 0.0708102 -1.19805e-18)
(-0.0980567 0.0908521 4.72987e-19)
(-0.0529613 0.0495193 -1.84983e-18)
(1.29543 0.248572 -3.24946e-18)
(1.29076 0.265892 2.09293e-18)
(1.28543 0.274223 5.22908e-18)
(1.28145 0.28873 1.62406e-17)
(1.27775 0.301168 9.99378e-18)
(1.27541 0.316596 1.0627e-17)
(1.27395 0.332303 1.44636e-17)
(1.27447 0.350211 1.55343e-17)
(1.2767 0.368981 3.5057e-18)
(1.2788 0.387418 7.54271e-19)
(1.27171 0.400139 1.61507e-17)
(1.23536 0.397365 5.16448e-18)
(1.13531 0.367564 6.4622e-18)
(0.937258 0.301204 5.23131e-18)
(0.632903 0.205428 -1.45259e-18)
(0.295253 0.112495 2.18018e-18)
(0.0393117 0.0823975 -4.19134e-19)
(-0.0816405 0.0893114 -6.03217e-18)
(-0.105855 0.0926071 5.82635e-18)
(-0.0349008 0.0380555 5.5786e-19)
(1.30094 0.252122 1.23429e-18)
(1.29644 0.269272 2.96572e-18)
(1.29148 0.277552 1.02632e-17)
(1.28791 0.292036 7.80524e-18)
(1.28471 0.304387 8.16107e-18)
(1.2829 0.319567 1.21444e-17)
(1.28191 0.334513 1.42369e-17)
(1.28218 0.350732 6.616e-18)
(1.28192 0.36624 2.3846e-18)
(1.27639 0.379117 5.80432e-18)
(1.25209 0.383075 1.18096e-17)
(1.18425 0.367981 3.8166e-18)
(1.03718 0.322688 4.28538e-18)
(0.785932 0.243748 2.29294e-18)
(0.456826 0.152452 -6.28224e-19)
(0.158331 0.0935816 2.94541e-18)
(-0.0262041 0.0951828 -4.38614e-20)
(-0.108944 0.103053 -1.28699e-18)
(-0.101617 0.101981 5.92999e-19)
(-0.0439507 0.0442199 -2.80922e-20)
(1.3062 0.2554 -7.05383e-18)
(1.30195 0.272279 2.7263e-18)
(1.29736 0.280354 -3.1506e-18)
(1.29426 0.294684 1.98667e-17)
(1.29156 0.306895 9.58558e-18)
(1.29043 0.321993 6.66693e-18)
(1.29034 0.337022 5.38327e-18)
(1.29176 0.353555 1.45911e-17)
(1.29206 0.369078 3.31924e-18)
(1.28306 0.379546 -3.05672e-19)
(1.24419 0.374589 1.04527e-17)
(1.14277 0.34182 5.88074e-19)
(0.944363 0.276157 5.04641e-18)
(0.646975 0.189363 3.58674e-18)
(0.318043 0.116378 8.99316e-19)
(0.0691917 0.0887834 8.07336e-18)
(-0.0690356 0.0968537 4.88824e-18)
(-0.116947 0.100919 -3.38868e-18)
(-0.103762 0.0954438 -4.14131e-19)
(-0.0410961 0.0396784 -2.06503e-20)
(1.31123 0.258482 -7.71938e-18)
(1.30723 0.275159 8.91978e-19)
(1.30293 0.283214 7.78493e-18)
(1.30031 0.297548 1.26989e-17)
(1.29804 0.309627 -8.51903e-19)
(1.29749 0.324327 1.17845e-17)
(1.29754 0.338159 3.21157e-18)
(1.29725 0.351694 8.95438e-18)
(1.29024 0.360494 -5.91798e-18)
(1.26204 0.358389 1.8588e-18)
(1.18639 0.33549 6.19173e-18)
(1.03311 0.28644 -1.17316e-18)
(0.784963 0.21646 1.27944e-18)
(0.47194 0.14401 2.37018e-18)
(0.181065 0.0975483 1.04362e-18)
(-0.00788173 0.084864 3.80954e-18)
(-0.0993143 0.0889551 6.07963e-19)
(-0.121765 0.0879601 -3.28055e-20)
(-0.0954775 0.0836301 -1.83826e-20)
(-0.0375475 0.0365997 -1.5248e-20)
(1.18041 0.169315 4.6715e-17)
(1.17035 0.193424 1.55134e-17)
(1.1597 0.202018 -1.14584e-17)
(1.14593 0.22052 -3.70531e-17)
(1.13323 0.2339 -2.13892e-17)
(1.11713 0.250841 7.36471e-17)
(1.10103 0.26682 2.00632e-17)
(1.08137 0.284419 6.93492e-17)
(1.05959 0.302307 1.37615e-18)
(1.03326 0.320992 9.13408e-18)
(1.00257 0.340073 3.69145e-17)
(0.965021 0.35899 -4.05929e-17)
(0.920748 0.377715 -8.6241e-17)
(0.86611 0.394675 -9.42087e-18)
(0.805459 0.409512 7.08009e-17)
(0.728919 0.418205 1.63635e-16)
(0.653243 0.426838 2.10753e-16)
(0.547609 0.412979 1.28837e-16)
(0.431194 0.398023 1.58652e-17)
(0.192132 0.196025 2.49175e-17)
(1.18811 0.174819 4.14877e-17)
(1.17864 0.198698 1.29323e-17)
(1.16829 0.207353 -4.06556e-18)
(1.15536 0.225794 -3.36591e-17)
(1.14337 0.23928 -1.9044e-17)
(1.12842 0.256475 2.90447e-17)
(1.11353 0.272711 2.23679e-17)
(1.09551 0.290958 2.07343e-17)
(1.07575 0.309697 3.57242e-17)
(1.05194 0.329676 5.0015e-17)
(1.02438 0.350657 -9.11249e-18)
(0.99045 0.371941 -2.67584e-17)
(0.95065 0.394058 -4.45194e-18)
(0.901368 0.414347 -2.33562e-19)
(0.846841 0.435724 -6.63961e-18)
(0.778296 0.448262 1.24649e-16)
(0.7084 0.469444 1.48348e-16)
(0.618457 0.457773 1.77582e-17)
(0.495314 0.450904 1.06292e-16)
(0.24557 0.220047 2.45305e-17)
(1.19572 0.180316 2.4528e-17)
(1.18696 0.203843 8.62444e-18)
(1.17688 0.212494 -1.78736e-17)
(1.16495 0.23076 -1.67936e-17)
(1.15362 0.244275 -9.92263e-18)
(1.13992 0.261577 1.7629e-17)
(1.12621 0.277951 5.64238e-18)
(1.10982 0.296629 2.5964e-17)
(1.09188 0.316027 3.52605e-17)
(1.07026 0.337045 3.00557e-17)
(1.0452 0.359727 -2.13647e-18)
(1.01404 0.383232 -3.32579e-17)
(0.977226 0.408928 -3.67368e-17)
(0.930318 0.433108 -2.31134e-17)
(0.877721 0.460947 -7.94592e-18)
(0.809969 0.479139 7.4063e-17)
(0.738784 0.508443 7.54017e-17)
(0.645309 0.5009 4.91919e-17)
(0.50431 0.485148 6.78834e-17)
(0.229298 0.224319 4.49986e-18)
(1.20328 0.185761 4.26128e-17)
(1.19523 0.208829 7.19226e-18)
(1.18543 0.217426 2.20062e-17)
(1.17442 0.2354 -4.06234e-17)
(1.16373 0.248865 -1.88636e-17)
(1.15119 0.266119 2.49725e-17)
(1.13862 0.2825 3.74588e-17)
(1.12379 0.301377 -3.39799e-18)
(1.10767 0.321192 1.60354e-17)
(1.08835 0.342867 5.73528e-17)
(1.06609 0.366824 3.86573e-18)
(1.03842 0.39182 1.31011e-17)
(1.00574 0.420556 3.68098e-17)
(0.96403 0.447293 3.47754e-17)
(0.916232 0.48186 7.35919e-19)
(0.85686 0.504054 1.17039e-16)
(0.787175 0.546951 1.16197e-16)
(0.706784 0.542422 -2.12562e-17)
(0.544806 0.520911 3.68822e-17)
(0.246001 0.235288 1.02995e-17)
(1.21091 0.19118 3.60801e-17)
(1.20351 0.213706 1.38306e-17)
(1.19403 0.222233 -1.80679e-17)
(1.18389 0.239832 -3.18816e-17)
(1.17386 0.253191 1.08369e-17)
(1.16248 0.27028 -7.11226e-18)
(1.15108 0.286565 2.38077e-17)
(1.13787 0.305451 -1.05022e-17)
(1.12367 0.325458 4.14366e-17)
(1.10682 0.347452 4.6738e-17)
(1.08755 0.372316 7.93997e-18)
(1.06361 0.398311 1.32281e-17)
(1.03504 0.42953 -1.70099e-17)
(0.998463 0.458375 2.44812e-17)
(0.954845 0.497457 5.50861e-18)
(0.901115 0.523119 8.8141e-17)
(0.833221 0.566558 8.07974e-17)
(0.745039 0.565305 3.94907e-18)
(0.575505 0.528707 2.026e-17)
(0.236427 0.230392 5.16228e-18)
(1.21859 0.196492 2.55838e-17)
(1.21184 0.218356 -1.29312e-17)
(1.20273 0.226738 7.38222e-18)
(1.19346 0.243821 -2.60523e-17)
(1.18412 0.256936 6.58369e-18)
(1.17393 0.27365 -3.6373e-18)
(1.16372 0.289626 2.70662e-17)
(1.1522 0.308186 2.60887e-17)
(1.13995 0.328025 3.40487e-17)
(1.12578 0.34982 3.73639e-17)
(1.10956 0.375013 7.98127e-18)
(1.08991 0.401214 8.61104e-18)
(1.06537 0.434272 8.4056e-19)
(1.03566 0.46444 1.65826e-17)
(0.995472 0.509301 5.55884e-18)
(0.953515 0.540896 6.79887e-17)
(0.885008 0.604462 5.82212e-17)
(0.824367 0.614533 1.08284e-17)
(0.622257 0.588792 1.51736e-17)
(0.279298 0.255443 2.07526e-18)
(1.22632 0.201809 2.3412e-17)
(1.22016 0.222983 -5.88901e-18)
(1.21141 0.231247 6.38195e-18)
(1.20296 0.247808 -1.59269e-17)
(1.19427 0.260684 5.10685e-18)
(1.18521 0.277004 -1.53261e-18)
(1.17612 0.29267 -1.84109e-18)
(1.1662 0.310865 2.05769e-17)
(1.15583 0.330419 2.79401e-17)
(1.14417 0.351908 3.35085e-17)
(1.13087 0.377178 1.40908e-17)
(1.11507 0.403546 1.10026e-17)
(1.09498 0.437614 -2.52099e-17)
(1.07096 0.468987 1.31227e-17)
(1.03713 0.514392 1.14608e-17)
(1.00019 0.545589 5.19936e-17)
(0.941189 0.591035 3.95739e-17)
(0.849803 0.593363 1.9281e-17)
(0.660097 0.532674 8.53069e-18)
(0.237783 0.225034 8.50439e-18)
(1.23402 0.206879 7.82402e-18)
(1.22847 0.227186 -1.393e-17)
(1.22012 0.235148 2.30919e-19)
(1.2125 0.250923 -2.20921e-17)
(1.2045 0.263283 2.1197e-18)
(1.19658 0.278837 -2.10923e-18)
(1.18862 0.293785 -1.02691e-17)
(1.18035 0.311025 1.884e-17)
(1.17178 0.329674 2.27275e-17)
(1.16257 0.349979 1.92891e-17)
(1.15204 0.374366 7.73358e-19)
(1.14057 0.399231 -1.83309e-18)
(1.12497 0.433195 -2.42567e-17)
(1.10842 0.464 -4.24621e-18)
(1.07965 0.514585 -5.79063e-18)
(1.05477 0.554615 4.3212e-17)
(1.00027 0.640458 3.61544e-17)
(0.965634 0.680401 1.29158e-17)
(0.761703 0.699174 7.67363e-18)
(0.380683 0.31433 -7.58075e-18)
(1.24172 0.212123 2.80647e-17)
(1.23663 0.231731 1.29291e-17)
(1.2286 0.23964 6.58583e-18)
(1.22167 0.25491 9.59804e-18)
(1.2142 0.26704 2.96273e-18)
(1.20723 0.282187 2.79254e-19)
(1.20015 0.296828 1.35823e-17)
(1.19313 0.313672 1.00821e-17)
(1.18581 0.332013 1.7448e-17)
(1.17829 0.351921 3.84902e-17)
(1.16988 0.375968 2.92043e-17)
(1.16129 0.400539 2.69493e-17)
(1.14955 0.434276 -1.30803e-17)
(1.13862 0.46527 2.65923e-17)
(1.11803 0.512555 2.59458e-17)
(1.1002 0.543337 2.54204e-17)
(1.0528 0.578238 6.84398e-18)
(0.970783 0.563553 3.39748e-17)
(0.743879 0.46421 1.64635e-17)
(0.252925 0.175397 9.81598e-19)
(1.24928 0.216737 2.24962e-17)
(1.24485 0.235201 9.81614e-18)
(1.23728 0.242438 -7.65178e-18)
(1.23117 0.256404 -1.44441e-18)
(1.22439 0.267504 1.87217e-18)
(1.21853 0.281223 -3.25418e-19)
(1.21243 0.29448 1.8339e-17)
(1.20679 0.309494 2.74055e-17)
(1.20091 0.325972 1.43308e-17)
(1.1958 0.343199 4.195e-17)
(1.18973 0.364551 2.91629e-17)
(1.18584 0.384894 2.44173e-17)
(1.17769 0.414951 -5.07829e-18)
(1.1744 0.440988 2.6722e-18)
(1.15506 0.490754 1.80428e-17)
(1.14706 0.538559 3.85321e-17)
(1.11036 0.641813 8.72238e-18)
(1.1227 0.729509 2.90185e-17)
(0.992984 0.819615 -5.02775e-18)
(0.668306 0.394502 8.81815e-19)
(1.24928 -0.216737 2.94045e-17)
(1.24485 -0.235201 2.09555e-17)
(1.23728 -0.242438 5.18244e-18)
(1.23117 -0.256404 1.16672e-17)
(1.22439 -0.267504 2.38369e-18)
(1.21853 -0.281223 -9.50586e-18)
(1.21243 -0.29448 7.71608e-18)
(1.20679 -0.309494 -4.11859e-18)
(1.20091 -0.325972 -1.56979e-17)
(1.1958 -0.343199 -2.52068e-17)
(1.18973 -0.364551 -8.6989e-19)
(1.18584 -0.384894 1.0063e-17)
(1.17769 -0.414951 -1.30099e-17)
(1.1744 -0.440988 -5.64545e-18)
(1.15506 -0.490754 -3.87927e-18)
(1.14706 -0.538559 -5.08326e-17)
(1.11036 -0.641813 -3.61292e-17)
(1.1227 -0.729509 -2.49194e-17)
(0.992984 -0.819615 3.36759e-18)
(0.668306 -0.394502 -4.66337e-18)
(1.24172 -0.212123 1.63033e-17)
(1.23663 -0.231731 1.58116e-17)
(1.2286 -0.23964 9.73258e-18)
(1.22167 -0.25491 2.01614e-17)
(1.2142 -0.26704 1.68132e-19)
(1.20723 -0.282187 -7.94055e-18)
(1.20015 -0.296828 6.2177e-18)
(1.19313 -0.313672 1.22921e-18)
(1.18581 -0.332013 -2.22999e-17)
(1.17829 -0.351921 -3.06736e-17)
(1.16988 -0.375968 1.02686e-17)
(1.16129 -0.400539 3.73208e-18)
(1.14955 -0.434276 -3.93753e-17)
(1.13862 -0.46527 -2.71393e-17)
(1.11803 -0.512555 -1.65673e-17)
(1.1002 -0.543337 -5.82124e-17)
(1.0528 -0.578238 -2.17699e-17)
(0.970783 -0.563553 -1.98353e-17)
(0.743879 -0.46421 -1.57319e-17)
(0.252925 -0.175397 -1.27398e-17)
(1.23402 -0.206879 2.69564e-17)
(1.22847 -0.227186 2.29074e-17)
(1.22012 -0.235148 8.00682e-18)
(1.2125 -0.250923 2.42271e-17)
(1.2045 -0.263283 -3.15439e-17)
(1.19658 -0.278837 -1.20234e-17)
(1.18862 -0.293785 1.05929e-17)
(1.18035 -0.311025 6.79818e-19)
(1.17178 -0.329674 -2.89614e-17)
(1.16257 -0.349979 -3.94742e-17)
(1.15204 -0.374366 1.51464e-17)
(1.14057 -0.399231 7.83984e-18)
(1.12497 -0.433195 -4.52638e-17)
(1.10842 -0.464 -1.91544e-17)
(1.07965 -0.514585 -1.31198e-17)
(1.05477 -0.554615 -4.07199e-17)
(1.00027 -0.640458 6.9949e-18)
(0.965634 -0.680401 -2.85138e-17)
(0.761703 -0.699174 -1.2641e-17)
(0.380683 -0.31433 8.4994e-18)
(1.22632 -0.201809 1.46025e-18)
(1.22016 -0.222983 2.71406e-17)
(1.21141 -0.231247 7.78576e-18)
(1.20296 -0.247808 5.52622e-18)
(1.19427 -0.260684 -3.09719e-17)
(1.18521 -0.277004 -1.25448e-17)
(1.17612 -0.29267 -1.81833e-17)
(1.1662 -0.310865 2.87865e-18)
(1.15583 -0.330419 -1.72193e-18)
(1.14417 -0.351908 -5.24975e-17)
(1.13087 -0.377178 2.75532e-17)
(1.11507 -0.403546 4.45557e-18)
(1.09498 -0.437614 -2.53917e-17)
(1.07096 -0.468987 1.61855e-17)
(1.03713 -0.514392 -1.43813e-17)
(1.00019 -0.545589 -6.84825e-17)
(0.941189 -0.591035 -8.24933e-19)
(0.849803 -0.593363 -3.19124e-17)
(0.660097 -0.532674 -1.90845e-17)
(0.237783 -0.225034 -1.99804e-18)
(1.21859 -0.196492 1.09414e-17)
(1.21184 -0.218356 3.50937e-17)
(1.20273 -0.226738 9.71937e-18)
(1.19346 -0.243821 -1.16635e-17)
(1.18412 -0.256936 -4.40656e-17)
(1.17393 -0.27365 -1.22475e-17)
(1.16372 -0.289626 -1.0956e-17)
(1.1522 -0.308186 -2.76503e-17)
(1.13995 -0.328025 -1.60063e-17)
(1.12578 -0.34982 -3.25693e-17)
(1.10956 -0.375013 4.52815e-18)
(1.08991 -0.401214 5.14895e-18)
(1.06537 -0.434272 -5.06031e-17)
(1.03566 -0.46444 1.14195e-17)
(0.995472 -0.509301 -2.44402e-17)
(0.953515 -0.540896 -8.25044e-17)
(0.885008 -0.604462 1.3719e-17)
(0.824367 -0.614533 -4.18062e-17)
(0.622257 -0.588792 -2.75775e-17)
(0.279298 -0.255443 5.98223e-19)
(1.21091 -0.19118 5.23728e-18)
(1.20351 -0.213706 4.37004e-17)
(1.19403 -0.222233 1.20627e-17)
(1.18389 -0.239832 -4.59951e-18)
(1.17386 -0.253191 -2.00674e-17)
(1.16248 -0.27028 -4.73438e-17)
(1.15108 -0.286565 -1.62204e-17)
(1.13787 -0.305451 -2.27306e-17)
(1.12367 -0.325458 -9.65094e-18)
(1.10682 -0.347452 -1.56505e-17)
(1.08755 -0.372316 -1.90279e-17)
(1.06361 -0.398311 5.17828e-17)
(1.03504 -0.42953 -6.55893e-17)
(0.998463 -0.458375 3.26392e-17)
(0.954845 -0.497457 -3.34719e-17)
(0.901115 -0.523119 -5.44212e-17)
(0.833221 -0.566558 3.52754e-17)
(0.745039 -0.565305 -5.72035e-17)
(0.575505 -0.528707 -4.17011e-17)
(0.236427 -0.230392 4.41682e-18)
(1.20328 -0.185761 4.72493e-18)
(1.19523 -0.208829 2.39359e-17)
(1.18543 -0.217426 1.36725e-17)
(1.17442 -0.2354 -8.21519e-18)
(1.16373 -0.248865 -2.84705e-18)
(1.15119 -0.266119 -1.08863e-17)
(1.13862 -0.2825 2.34089e-17)
(1.12379 -0.301377 -3.01427e-17)
(1.10767 -0.321192 -1.40785e-17)
(1.08835 -0.342867 1.34303e-17)
(1.06609 -0.366824 -1.53191e-17)
(1.03842 -0.39182 5.75519e-17)
(1.00574 -0.420556 -5.05103e-17)
(0.96403 -0.447293 -6.14952e-18)
(0.916232 -0.48186 1.28339e-17)
(0.85686 -0.504054 -1.43435e-17)
(0.787175 -0.546951 5.43062e-17)
(0.706784 -0.542422 1.91411e-17)
(0.544806 -0.520911 -6.06478e-17)
(0.246001 -0.235288 1.37938e-17)
(1.19572 -0.180316 5.03917e-18)
(1.18696 -0.203843 4.10803e-17)
(1.17688 -0.212494 1.75025e-17)
(1.16495 -0.23076 -9.89722e-18)
(1.15362 -0.244275 -1.24434e-17)
(1.13992 -0.261577 -3.45193e-17)
(1.12621 -0.277951 -2.33391e-17)
(1.10982 -0.296629 2.98262e-18)
(1.09188 -0.316027 -1.46048e-17)
(1.07026 -0.337045 -3.92016e-17)
(1.0452 -0.359727 -2.65423e-17)
(1.01404 -0.383232 3.26017e-17)
(0.977226 -0.408928 -3.75497e-17)
(0.930318 -0.433108 1.87665e-17)
(0.877721 -0.460947 -7.31019e-17)
(0.809969 -0.479139 -3.70332e-17)
(0.738784 -0.508443 6.56461e-17)
(0.645309 -0.5009 1.20367e-17)
(0.50431 -0.485148 2.19416e-17)
(0.229298 -0.224319 5.56271e-17)
(1.18811 -0.174819 2.17163e-18)
(1.17864 -0.198698 4.67453e-17)
(1.16829 -0.207353 2.02802e-17)
(1.15536 -0.225794 -1.09613e-17)
(1.14337 -0.23928 -1.11762e-17)
(1.12842 -0.256475 -3.35171e-17)
(1.11353 -0.272711 -7.6304e-18)
(1.09551 -0.290958 -5.24412e-18)
(1.07575 -0.309697 -2.22792e-17)
(1.05194 -0.329676 -2.99095e-17)
(1.02438 -0.350657 -2.65049e-17)
(0.99045 -0.371941 6.29438e-17)
(0.95065 -0.394058 -6.91531e-17)
(0.901368 -0.414347 2.34121e-17)
(0.846841 -0.435724 -7.16577e-17)
(0.778296 -0.448262 -3.20579e-17)
(0.7084 -0.469444 9.54894e-17)
(0.618457 -0.457773 1.52414e-17)
(0.495314 -0.450904 1.68984e-17)
(0.24557 -0.220047 1.1217e-16)
(1.18041 -0.169315 2.97347e-17)
(1.17035 -0.193424 9.24862e-17)
(1.1597 -0.202018 -7.64539e-18)
(1.14593 -0.22052 2.19226e-17)
(1.13323 -0.2339 -1.41992e-17)
(1.11713 -0.250841 -4.56894e-17)
(1.10103 -0.26682 -1.56632e-17)
(1.08137 -0.284419 -4.3369e-17)
(1.05959 -0.302307 -7.38457e-17)
(1.03326 -0.320992 5.08153e-18)
(1.00257 -0.340073 2.04748e-17)
(0.965021 -0.35899 8.4304e-17)
(0.920748 -0.377715 -3.65052e-17)
(0.86611 -0.394675 -2.72447e-17)
(0.805459 -0.409512 -1.18636e-16)
(0.728919 -0.418205 -3.20889e-17)
(0.653243 -0.426838 1.37552e-16)
(0.547609 -0.412979 1.64006e-17)
(0.431194 -0.398023 2.85025e-18)
(0.192132 -0.196025 1.67246e-17)
(1.31123 -0.258482 1.94237e-18)
(1.30723 -0.275159 -9.63794e-18)
(1.30293 -0.283214 4.92678e-19)
(1.30031 -0.297548 3.92665e-18)
(1.29804 -0.309627 3.35691e-18)
(1.29749 -0.324327 7.11435e-19)
(1.29754 -0.338159 4.90871e-19)
(1.29725 -0.351694 1.74489e-18)
(1.29024 -0.360494 -5.02802e-18)
(1.26204 -0.358389 3.12781e-18)
(1.18639 -0.33549 -2.89393e-18)
(1.03311 -0.28644 -5.60449e-18)
(0.784963 -0.21646 -1.75259e-18)
(0.47194 -0.14401 1.69721e-18)
(0.181065 -0.0975483 -8.13567e-18)
(-0.00788173 -0.084864 -9.30514e-18)
(-0.0993143 -0.0889551 -4.90215e-19)
(-0.121765 -0.0879601 -3.97903e-18)
(-0.0954775 -0.0836301 -1.1563e-18)
(-0.0375475 -0.0365997 -1.49796e-19)
(1.3062 -0.2554 3.95714e-18)
(1.30195 -0.272279 -9.83677e-19)
(1.29736 -0.280354 -5.77686e-19)
(1.29426 -0.294684 4.31038e-18)
(1.29156 -0.306895 -6.50387e-18)
(1.29043 -0.321993 1.29721e-18)
(1.29034 -0.337022 -1.00272e-17)
(1.29176 -0.353555 3.33239e-18)
(1.29206 -0.369078 -7.02884e-18)
(1.28306 -0.379546 -2.0698e-18)
(1.24419 -0.374589 -1.17136e-18)
(1.14277 -0.34182 -7.06093e-18)
(0.944363 -0.276157 -5.31814e-19)
(0.646975 -0.189363 -4.2821e-18)
(0.318043 -0.116378 3.15669e-18)
(0.0691917 -0.0887834 -2.85119e-18)
(-0.0690356 -0.0968537 3.66359e-19)
(-0.116947 -0.100919 -2.30273e-18)
(-0.103762 -0.0954438 -4.20868e-18)
(-0.0410961 -0.0396784 -2.77002e-19)
(1.30094 -0.252122 4.60955e-18)
(1.29644 -0.269272 -5.93448e-18)
(1.29148 -0.277552 -8.57246e-19)
(1.28791 -0.292036 6.78576e-18)
(1.28471 -0.304387 -3.08595e-18)
(1.2829 -0.319567 3.56763e-18)
(1.28191 -0.334513 2.84848e-18)
(1.28218 -0.350732 -7.64791e-18)
(1.28192 -0.36624 -6.98065e-18)
(1.27639 -0.379117 6.67348e-18)
(1.25209 -0.383075 -4.93603e-19)
(1.18425 -0.367981 -6.07021e-18)
(1.03718 -0.322688 -1.25369e-18)
(0.785932 -0.243748 -6.52158e-18)
(0.456826 -0.152452 -1.5385e-18)
(0.158331 -0.0935816 -5.8959e-19)
(-0.0262041 -0.0951828 1.31376e-18)
(-0.108944 -0.103053 -1.36547e-18)
(-0.101617 -0.101981 -1.48299e-18)
(-0.0439507 -0.0442199 8.04661e-19)
(1.29543 -0.248572 7.19063e-18)
(1.29076 -0.265892 -5.44654e-18)
(1.28543 -0.274223 -2.72993e-18)
(1.28145 -0.28873 8.56482e-18)
(1.27775 -0.301168 -5.69301e-18)
(1.27541 -0.316596 2.14516e-18)
(1.27395 -0.332303 3.66324e-19)
(1.27447 -0.350211 -2.30592e-18)
(1.2767 -0.368981 -1.34402e-17)
(1.2788 -0.387418 3.29839e-18)
(1.27171 -0.400139 3.22753e-18)
(1.23536 -0.397365 -8.43302e-18)
(1.13531 -0.367564 -5.00549e-19)
(0.937258 -0.301204 -8.61196e-18)
(0.632903 -0.205428 -3.01193e-18)
(0.295253 -0.112495 1.26291e-20)
(0.0393117 -0.0823975 1.99471e-18)
(-0.0816405 -0.0893114 -1.29813e-18)
(-0.105855 -0.0926071 6.05254e-20)
(-0.0349008 -0.0380555 4.70142e-18)
(1.28968 -0.2448 -4.42732e-18)
(1.28486 -0.262293 -2.22502e-17)
(1.27916 -0.270697 1.0435e-17)
(1.27478 -0.285226 -3.64906e-18)
(1.27054 -0.297637 -5.91625e-18)
(1.2675 -0.312885 2.87074e-18)
(1.26487 -0.328223 3.53254e-18)
(1.26348 -0.345585 1.25851e-17)
(1.26315 -0.364102 -3.6054e-18)
(1.26416 -0.384189 -9.69422e-18)
(1.26315 -0.403744 7.17585e-18)
(1.2492 -0.415426 -9.54059e-18)
(1.19476 -0.406749 -3.15614e-18)
(1.06121 -0.361064 -1.0634e-17)
(0.813772 -0.274854 -6.9262e-18)
(0.475763 -0.160667 1.9734e-19)
(0.153384 -0.0890759 3.66921e-18)
(-0.0508778 -0.0708102 -2.08922e-18)
(-0.0980567 -0.0908521 -1.85285e-18)
(-0.0529613 -0.0495193 7.34798e-19)
(1.28369 -0.240764 3.61278e-18)
(1.27879 -0.258375 -8.17185e-18)
(1.27273 -0.266776 7.37179e-18)
(1.268 -0.281283 3.30038e-18)
(1.26327 -0.293676 -9.04432e-18)
(1.25973 -0.308963 1.88883e-18)
(1.25667 -0.324542 -5.53393e-19)
(1.25499 -0.34246 1.05933e-17)
(1.25453 -0.361849 -3.52473e-18)
(1.25598 -0.383091 -1.04045e-17)
(1.2579 -0.405584 1.01506e-17)
(1.25556 -0.425304 -9.63589e-18)
(1.23168 -0.434351 -6.54962e-18)
(1.15523 -0.413822 -1.1961e-17)
(0.980442 -0.35074 -1.03299e-17)
(0.689568 -0.237573 -2.19522e-18)
(0.327305 -0.11862 -8.89191e-18)
(0.0457674 -0.0550172 -5.84188e-18)
(-0.0979199 -0.0550646 -1.23053e-17)
(-0.0314718 -0.022993 -1.12042e-18)
(1.27749 -0.236484 2.40879e-18)
(1.27258 -0.254201 -2.06547e-17)
(1.26616 -0.26256 1.08017e-17)
(1.26112 -0.276999 3.94211e-18)
(1.25587 -0.289222 -1.14542e-17)
(1.25168 -0.304219 2.22115e-18)
(1.2476 -0.319316 -2.18053e-18)
(1.24439 -0.336576 -1.2231e-18)
(1.24168 -0.355505 1.31336e-18)
(1.24064 -0.376942 -2.39803e-18)
(1.2415 -0.401515 2.50891e-20)
(1.2441 -0.426988 -2.07307e-17)
(1.23969 -0.45025 -4.05728e-18)
(1.20891 -0.454727 -1.3461e-17)
(1.10844 -0.425037 -1.66697e-17)
(0.898904 -0.336198 -5.75401e-18)
(0.565457 -0.212523 -3.5758e-18)
(0.19142 -0.0795261 -7.99443e-18)
(-0.0384801 -0.0816014 -2.71001e-18)
(-0.093433 -0.0640557 4.45118e-19)
(1.27107 -0.231947 7.98925e-18)
(1.26627 -0.249758 -5.46536e-18)
(1.25954 -0.258006 1.20236e-17)
(1.25428 -0.272366 8.91496e-18)
(1.2486 -0.284427 -1.48699e-17)
(1.244 -0.299272 2.18774e-18)
(1.23942 -0.314209 -1.4045e-18)
(1.23575 -0.331235 2.58428e-18)
(1.2324 -0.349775 5.14241e-19)
(1.22999 -0.370449 -7.10954e-18)
(1.22827 -0.394612 -3.32522e-18)
(1.22907 -0.421097 -2.28945e-17)
(1.22992 -0.452086 -6.42233e-18)
(1.2253 -0.475615 -1.07401e-17)
(1.18437 -0.481252 -2.32591e-17)
(1.06883 -0.431721 -1.14047e-17)
(0.819168 -0.3226 -5.15278e-18)
(0.460649 -0.158968 -1.376e-17)
(0.0618925 -0.0134009 2.21785e-18)
(-0.00566875 0.0273677 7.07124e-18)
(1.26432 -0.227177 9.16383e-18)
(1.25978 -0.245117 3.16581e-18)
(1.25276 -0.253159 1.45966e-17)
(1.24733 -0.267388 1.47325e-17)
(1.2412 -0.279135 5.18467e-18)
(1.23611 -0.293584 1.08298e-18)
(1.23068 -0.307969 -3.47461e-18)
(1.2259 -0.324371 -7.68272e-19)
(1.22117 -0.342282 -1.90297e-17)
(1.21718 -0.362045 -3.91981e-18)
(1.21321 -0.385542 7.40968e-18)
(1.2111 -0.411014 -8.20073e-18)
(1.20959 -0.444209 -1.13585e-17)
(1.21263 -0.47733 -4.42376e-18)
(1.20436 -0.513415 -2.86124e-17)
(1.16837 -0.516658 -2.05904e-17)
(1.03305 -0.476085 -4.71172e-18)
(0.755648 -0.340791 -1.36735e-18)
(0.335837 -0.22696 7.27877e-18)
(-0.0932872 -0.0981494 1.0927e-17)
(1.25705 -0.222161 1.19416e-17)
(1.2527 -0.240307 -3.36215e-18)
(1.24536 -0.24802 1.63606e-17)
(1.23967 -0.262119 1.77997e-17)
(1.23318 -0.273556 -1.58755e-18)
(1.22776 -0.287657 3.80922e-18)
(1.22191 -0.301518 -3.58336e-18)
(1.21662 -0.317273 7.02395e-18)
(1.21109 -0.334408 -1.55083e-17)
(1.2061 -0.352827 -1.58697e-17)
(1.20044 -0.374967 8.7402e-18)
(1.19608 -0.397779 -1.20667e-17)
(1.18968 -0.429209 -1.39167e-17)
(1.18838 -0.459908 -1.67468e-17)
(1.18188 -0.505449 -2.74053e-17)
(1.1876 -0.536481 -4.93862e-17)
(1.14815 -0.551117 -1.92041e-17)
(1.06552 -0.472761 -1.12232e-17)
(0.717331 -0.246699 6.40295e-18)
(0.397485 -0.00317882 4.21691e-17)
(1.1554 -0.151664 -1.23457e-17)
(1.14427 -0.17603 2.32648e-17)
(1.13252 -0.184333 1.15026e-17)
(1.11808 -0.202709 3.30571e-18)
(1.10366 -0.215474 -2.64927e-17)
(1.08679 -0.23122 -7.77864e-17)
(1.06903 -0.24584 -5.22492e-18)
(1.04849 -0.26053 -2.09144e-17)
(1.02558 -0.274644 -8.12708e-17)
(0.999013 -0.287668 -1.30087e-17)
(0.968517 -0.299132 -2.51488e-17)
(0.932828 -0.30813 -2.77725e-17)
(0.891467 -0.313021 2.96304e-17)
(0.842484 -0.312725 2.49789e-17)
(0.786456 -0.305513 4.46009e-17)
(0.722652 -0.290335 -1.23194e-17)
(0.653828 -0.264274 -4.48333e-17)
(0.576015 -0.227476 -6.71676e-19)
(0.509722 -0.169926 6.90403e-18)
(0.391052 -0.0841343 2.6143e-17)
(1.12154 -0.117287 -6.00903e-19)
(1.11228 -0.136104 -6.32455e-18)
(1.10175 -0.141629 9.64646e-18)
(1.08944 -0.154456 6.52371e-17)
(1.07614 -0.162744 -7.65727e-18)
(1.0617 -0.172571 -2.01779e-17)
(1.04586 -0.18124 -2.35345e-17)
(1.02884 -0.189538 -2.45665e-17)
(1.01035 -0.197208 -2.67744e-17)
(0.990596 -0.204056 -1.25125e-17)
(0.96943 -0.209546 -2.24602e-18)
(0.946943 -0.213174 -3.09821e-19)
(0.92301 -0.214291 -1.26226e-17)
(0.897784 -0.211711 9.1962e-19)
(0.870824 -0.204143 1.17832e-17)
(0.842252 -0.189824 -3.17276e-18)
(0.812643 -0.168518 2.13886e-18)
(0.783408 -0.134221 -2.42512e-18)
(0.758222 -0.0949556 5.13896e-18)
(0.747558 -0.0359697 7.22478e-18)
(1.09177 -0.0959181 -6.55461e-18)
(1.0833 -0.112299 -6.13003e-18)
(1.0738 -0.116998 -1.59917e-17)
(1.06246 -0.12773 -3.4464e-17)
(1.05036 -0.133946 -3.52572e-17)
(1.03701 -0.140825 -1.10156e-16)
(1.02251 -0.146026 -5.17247e-17)
(1.00656 -0.150067 -6.87221e-17)
(0.989094 -0.152601 -1.45458e-16)
(0.969869 -0.153391 -4.7693e-17)
(0.948917 -0.152247 -3.15677e-17)
(0.926325 -0.148906 -1.08816e-17)
(0.902469 -0.143102 -2.10633e-17)
(0.877898 -0.134669 1.26687e-17)
(0.853584 -0.123297 8.29673e-17)
(0.830444 -0.108935 -2.63683e-17)
(0.809395 -0.0906604 -1.62044e-17)
(0.790643 -0.0693362 -2.55883e-17)
(0.776106 -0.0431115 1.47956e-17)
(0.762041 -0.0147257 1.39407e-16)
(1.06942 -0.0689594 -1.25898e-17)
(1.06273 -0.081239 -9.06456e-18)
(1.05537 -0.0845569 -1.30637e-17)
(1.04657 -0.0923379 -1.24318e-17)
(1.03731 -0.0968157 -1.52346e-17)
(1.02752 -0.10188 -2.72815e-17)
(1.01737 -0.10579 -1.07532e-16)
(1.00703 -0.108916 -1.03143e-16)
(0.996575 -0.111049 -1.17946e-16)
(0.986154 -0.111996 -1.17419e-16)
(0.975801 -0.111528 -8.96173e-17)
(0.965525 -0.109388 -1.4554e-17)
(0.955256 -0.105303 -9.19483e-17)
(0.944935 -0.0989767 -1.90396e-17)
(0.934529 -0.0902386 -1.04604e-16)
(0.924311 -0.0788788 -1.01881e-16)
(0.91477 -0.0651861 -1.75886e-17)
(0.907053 -0.048832 -1.02954e-16)
(0.901823 -0.0308928 -2.02531e-17)
(0.90073 -0.010762 -1.06651e-16)
(1.05119 -0.0557721 -3.27586e-17)
(1.04568 -0.065248 -1.88473e-17)
(1.03951 -0.0675347 -4.51654e-17)
(1.03201 -0.073083 -5.45768e-17)
(1.02399 -0.0757461 -5.37012e-17)
(1.01521 -0.0784993 -9.40755e-17)
(1.00573 -0.0800426 8.06496e-18)
(0.995496 -0.0806805 4.85954e-17)
(0.984535 -0.0803101 -5.96043e-17)
(0.972911 -0.0788855 1.79155e-17)
(0.960799 -0.0763871 6.81771e-17)
(0.948467 -0.0727997 3.71028e-17)
(0.936291 -0.0681131 7.66547e-17)
(0.9247 -0.0623309 6.11148e-17)
(0.914129 -0.0554146 1.93368e-16)
(0.904861 -0.0474022 9.40545e-17)
(0.897066 -0.0382005 3.83083e-17)
(0.890609 -0.0280779 7.85953e-17)
(0.885681 -0.0170129 5.49525e-17)
(0.882233 -0.00563662 1.97134e-16)
(1.03797 -0.0384256 -8.99593e-17)
(1.03391 -0.045748 -2.25053e-17)
(1.02957 -0.0476959 -1.06563e-16)
(1.02437 -0.0522081 -1.3257e-16)
(1.01906 -0.0546353 -9.64274e-17)
(1.01359 -0.0572168 -7.08552e-18)
(1.00814 -0.0589759 -7.32133e-17)
(1.00281 -0.0601184 1.05118e-16)
(0.997684 -0.0605259 6.54553e-18)
(0.992801 -0.0601157 -7.54892e-17)