/*--------------------------------*- C++ -*----------------------------------*\
  =========                 |
  \\      /  F ield         | OpenFOAM: The Open Source CFD Toolbox
   \\    /   O peration     | Website:  https://openfoam.org
    \\  /    A nd           | Version:  7
     \\/     M anipulation  |
\*---------------------------------------------------------------------------*/
FoamFile
{
    version     2.0;
    format      ascii;
    class       volScalarField;
    location    "30";
    object      p;
}
// * * * * * * * * * * * * * * * * * * * * * * * * * * * * * * * * * * * * * //

dimensions      [0 2 -2 0 0 0 0];

internalField   nonuniform List<scalar> 
7360
(
0.0194055
0.0336054
0.0565433
0.0698412
0.0857011
0.096663
0.107452
0.115188
0.121517
0.125306
0.126979
0.126005
0.122339
0.115624
0.105648
0.0921269
0.0748211
0.0536382
0.0284915
-0.00051635
-0.0330661
-0.068629
-0.106435
-0.14551
-0.184731
-0.222922
-0.258938
-0.291753
-0.320521
-0.34461
-0.363613
-0.377343
-0.385811
-0.389209
-0.387875
-0.382281
-0.372971
-0.36055
-0.345651
-0.32891
-0.310939
-0.292304
-0.273512
-0.254999
-0.237129
-0.22019
-0.204396
-0.189898
-0.176786
-0.1651
-0.154841
-0.145975
-0.138446
-0.13218
-0.127089
-0.123082
-0.12006
-0.117925
-0.11658
-0.115929
-0.115876
-0.116326
-0.117206
-0.118436
-0.119939
-0.121642
-0.1235
-0.12543
-0.127393
-0.129353
-0.131278
-0.133144
-0.134931
-0.136636
-0.138248
-0.139775
-0.141223
-0.142598
-0.143911
-0.14517
-0.146385
-0.147561
-0.148704
-0.149815
-0.150891
-0.151926
-0.152909
-0.15382
-0.154641
-0.155335
-0.155883
-0.156194
-0.156331
-0.155978
-0.155679
-0.154101
-0.1538
-0.15051
-0.150899
-0.146928
0.0194666
0.0336979
0.0567017
0.0700248
0.0859286
0.096917
0.10774
0.115504
0.121863
0.125682
0.127388
0.126449
0.12282
0.116148
0.10622
0.0927489
0.0755214
0.054404
0.029343
0.000431445
-0.0320135
-0.0674672
-0.105168
-0.144148
-0.183296
-0.22144
-0.257442
-0.290275
-0.319092
-0.343256
-0.362353
-0.376194
-0.384784
-0.388329
-0.387126
-0.38166
-0.372478
-0.360181
-0.345399
-0.328766
-0.310892
-0.292343
-0.273623
-0.255172
-0.237351
-0.22045
-0.204684
-0.190203
-0.1771
-0.165416
-0.155152
-0.146276
-0.138732
-0.132447
-0.127334
-0.123302
-0.120254
-0.118092
-0.116718
-0.116038
-0.115958
-0.116388
-0.117247
-0.118458
-0.119943
-0.121631
-0.123468
-0.125383
-0.127335
-0.129286
-0.131204
-0.133066
-0.134855
-0.136562
-0.138179
-0.13971
-0.141161
-0.14254
-0.143855
-0.145117
-0.146333
-0.147511
-0.148655
-0.149765
-0.15084
-0.151873
-0.152852
-0.15376
-0.154576
-0.155264
-0.155805
-0.156109
-0.156232
-0.15586
-0.155509
-0.153927
-0.153469
-0.150249
-0.150415
-0.146275
0.0191106
0.0331683
0.0557932
0.0689656
0.0846205
0.0954498
0.106082
0.11368
0.119862
0.123503
0.125019
0.123877
0.120024
0.1131
0.102888
0.0891117
0.0714501
0.0499328
0.0243698
-0.005103
-0.0381564
-0.0742394
-0.112546
-0.152059
-0.191614
-0.229999
-0.266054
-0.298751
-0.327257
-0.350961
-0.36948
-0.382654
-0.390514
-0.393256
-0.39129
-0.38506
-0.375129
-0.362115
-0.346663
-0.329419
-0.310999
-0.291973
-0.27285
-0.254065
-0.235981
-0.218881
-0.202976
-0.188412
-0.175272
-0.163594
-0.153371
-0.144566
-0.137118
-0.130949
-0.125969
-0.122081
-0.119186
-0.117182
-0.11597
-0.115449
-0.115514
-0.116081
-0.117071
-0.118402
-0.119998
-0.121784
-0.123702
-0.12568
-0.127683
-0.129672
-0.131612
-0.133485
-0.135271
-0.13696
-0.138559
-0.140072
-0.141504
-0.142865
-0.144164
-0.145412
-0.146619
-0.14779
-0.14893
-0.150042
-0.151123
-0.152165
-0.153158
-0.154084
-0.154922
-0.155637
-0.156212
-0.15656
-0.156757
-0.156465
-0.156361
-0.154764
-0.155207
-0.151533
-0.153576
-0.150865
0.0192875
0.0334221
0.0562383
0.0694796
0.0852593
0.0961643
0.106891
0.11457
0.120839
0.124567
0.126177
0.125134
0.121392
0.114592
0.104521
0.0909004
0.0734411
0.0521278
0.026814
-0.00238056
-0.0351317
-0.0709022
-0.108907
-0.148155
-0.187507
-0.225773
-0.261799
-0.294562
-0.323219
-0.347147
-0.365948
-0.379447
-0.387664
-0.390836
-0.389235
-0.383376
-0.373814
-0.361155
-0.346037
-0.329097
-0.31095
-0.292163
-0.273242
-0.254626
-0.236675
-0.219676
-0.203842
-0.18932
-0.1762
-0.16452
-0.154276
-0.145436
-0.137939
-0.131711
-0.126664
-0.122703
-0.119729
-0.117643
-0.116346
-0.115741
-0.115735
-0.116241
-0.117171
-0.118444
-0.119982
-0.121725
-0.123584
-0.125525
-0.127498
-0.129462
-0.131388
-0.133254
-0.135048
-0.136748
-0.138359
-0.139883
-0.141326
-0.142697
-0.144005
-0.14526
-0.146471
-0.147645
-0.148787
-0.149897
-0.150974
-0.15201
-0.152995
-0.153911
-0.154737
-0.155439
-0.155999
-0.156328
-0.15649
-0.156149
-0.15591
-0.15431
-0.154302
-0.150906
-0.152025
-0.149274
0.0186103
0.0324797
0.0546051
0.0675651
0.0828983
0.0935017
0.103884
0.11125
0.117194
0.120585
0.12184
0.120409
0.116245
0.10897
0.0983595
0.0841349
0.0659205
0.0438122
0.0175512
-0.0127008
-0.0465963
-0.0835422
-0.12267
-0.162887
-0.202958
-0.241618
-0.277679
-0.31012
-0.338132
-0.361144
-0.378814
-0.391025
-0.397842
-0.399512
-0.396469
-0.389166
-0.378199
-0.364206
-0.347852
-0.329792
-0.310653
-0.291011
-0.271375
-0.252181
-0.233784
-0.216461
-0.200416
-0.185783
-0.172638
-0.161008
-0.150879
-0.142205
-0.134918
-0.128934
-0.124157
-0.120484
-0.117811
-0.116034
-0.115048
-0.114741
-0.115004
-0.115775
-0.116953
-0.118456
-0.120204
-0.122114
-0.124122
-0.12617
-0.128225
-0.130254
-0.132194
-0.134076
-0.13584
-0.137508
-0.139083
-0.140569
-0.141974
-0.143309
-0.144586
-0.145815
-0.147007
-0.148169
-0.149305
-0.150418
-0.151503
-0.152555
-0.15356
-0.154503
-0.155363
-0.156108
-0.156717
-0.157114
-0.15737
-0.157162
-0.157286
-0.155681
-0.157266
-0.152815
-0.158694
-0.156485
0.0188868
0.0328428
0.0552418
0.0683118
0.0838205
0.0945434
0.105061
0.112552
0.118625
0.122152
0.123551
0.122278
0.118284
0.1112
0.100806
0.0868289
0.0689035
0.0471215
0.0212398
-0.00858711
-0.0420216
-0.0784936
-0.117168
-0.156994
-0.196775
-0.235277
-0.271325
-0.303896
-0.332168
-0.355549
-0.373674
-0.386403
-0.393787
-0.396112
-0.393621
-0.386901
-0.376505
-0.363054
-0.347202
-0.329598
-0.310861
-0.291565
-0.272218
-0.253255
-0.235036
-0.21784
-0.201875
-0.187282
-0.174141
-0.162484
-0.152302
-0.143555
-0.136177
-0.130087
-0.125194
-0.121398
-0.118597
-0.116687
-0.115565
-0.115128
-0.115295
-0.115964
-0.11704
-0.11844
-0.120083
-0.121906
-0.123854
-0.12586
-0.127876
-0.12987
-0.131819
-0.133694
-0.135481
-0.137172
-0.138769
-0.140276
-0.1417
-0.143051
-0.144342
-0.145583
-0.146783
-0.147949
-0.149087
-0.150198
-0.151278
-0.152322
-0.153317
-0.154246
-0.155091
-0.155817
-0.156408
-0.156784
-0.157013
-0.156737
-0.156708
-0.155095
-0.156057
-0.152113
-0.155935
-0.154884
0.0178526
0.0317738
0.0531471
0.065935
0.0808186
0.0911817
0.101226
0.108315
0.113946
0.117024
0.117939
0.116138
0.111555
0.103802
0.0926436
0.0777778
0.0588256
0.0358433
0.00861449
-0.0227137
-0.0577534
-0.095843
-0.136022
-0.177092
-0.217725
-0.256593
-0.292491
-0.324416
-0.351606
-0.373547
-0.389956
-0.40077
-0.406104
-0.406415
-0.401835
-0.393087
-0.38075
-0.365486
-0.347983
-0.328913
-0.30891
-0.288552
-0.268349
-0.248734
-0.23005
-0.212558
-0.19645
-0.181847
-0.168808
-0.157346
-0.147437
-0.139022
-0.132024
-0.126349
-0.121893
-0.118547
-0.116199
-0.114736
-0.114042
-0.114019
-0.114599
-0.115651
-0.117071
-0.118778
-0.120697
-0.122754
-0.124828
-0.126938
-0.129034
-0.13111
-0.133035
-0.134873
-0.136613
-0.138249
-0.139786
-0.141232
-0.142598
-0.143897
-0.145142
-0.146345
-0.147517
-0.148663
-0.149788
-0.150892
-0.151971
-0.153016
-0.154014
-0.154947
-0.155793
-0.156524
-0.157119
-0.157531
-0.15779
-0.157639
-0.157831
-0.156457
-0.159089
-0.154534
-0.16742
-0.161625
0.0182873
0.0320922
0.0539414
0.0667545
0.0819178
0.0923698
0.102611
0.109825
0.115625
0.118853
0.119939
0.118318
0.113944
0.106431
0.0955537
0.0810259
0.0624512
0.0399463
0.013243
-0.0174938
-0.0518983
-0.0893476
-0.128933
-0.169516
-0.209823
-0.24856
-0.284536
-0.316738
-0.344379
-0.366915
-0.384032
-0.395639
-0.401824
-0.402878
-0.399168
-0.391245
-0.379687
-0.365143
-0.348286
-0.329778
-0.310249
-0.29028
-0.270379
-0.250976
-0.232424
-0.214997
-0.198894
-0.184243
-0.171115
-0.15953
-0.149471
-0.140887
-0.133705
-0.127837
-0.123184
-0.119641
-0.1171
-0.115454
-0.114594
-0.114416
-0.114812
-0.115688
-0.11695
-0.118514
-0.120295
-0.122237
-0.124295
-0.126386
-0.128456
-0.130479
-0.132479
-0.134343
-0.136118
-0.137792
-0.139365
-0.140845
-0.142241
-0.143567
-0.144835
-0.146057
-0.147243
-0.148402
-0.149537
-0.150649
-0.151736
-0.152789
-0.153796
-0.154738
-0.155595
-0.156334
-0.156932
-0.157324
-0.157581
-0.157388
-0.157531
-0.155972
-0.158101
-0.153323
-0.162782
-0.160652
-0.0511479
-0.047615
-0.0470124
-0.0467379
-0.0478602
-0.0500542
-0.0535901
-0.0585506
-0.0651363
-0.0735503
-0.0840203
-0.0968586
-0.112563
-0.130906
-0.151791
-0.178059
-0.208408
-0.223297
-0.242981
-0.221491
-0.0557208
-0.0524191
-0.0519947
-0.0519441
-0.0532923
-0.0557411
-0.0595556
-0.064817
-0.0717228
-0.0804842
-0.0913657
-0.104761
-0.121364
-0.141091
-0.162899
-0.188331
-0.215788
-0.226582
-0.228274
-0.18973
-0.0400864
-0.0362258
-0.0351891
-0.0344856
-0.035137
-0.0368445
-0.0398583
-0.0442819
-0.0503245
-0.0582157
-0.0682736
-0.0809361
-0.0967503
-0.115972
-0.14006
-0.170666
-0.205927
-0.23548
-0.261747
-0.274394
-0.0459414
-0.0422437
-0.0414238
-0.0409411
-0.041835
-0.0437928
-0.0470765
-0.0517808
-0.0581174
-0.0663176
-0.0766859
-0.0896626
-0.105766
-0.124743
-0.14693
-0.174097
-0.203395
-0.21957
-0.243308
-0.240858
-0.0266691
-0.0224167
-0.0209558
-0.0197991
-0.019932
-0.0211113
-0.0235591
-0.027398
-0.0328397
-0.0401379
-0.0496697
-0.0618843
-0.0774781
-0.0971482
-0.122622
-0.154725
-0.197216
-0.244199
-0.279753
-0.32252
-0.0336672
-0.0296298
-0.0283767
-0.0274541
-0.0278538
-0.0293086
-0.0320527
-0.0362027
-0.0419723
-0.0496109
-0.0594801
-0.0720209
-0.087782
-0.107152
-0.131526
-0.161442
-0.197907
-0.234873
-0.2588
-0.283579
-0.0112597
-0.00644744
-0.00455592
-0.0029165
-0.00247185
-0.00305646
-0.00487254
-0.00805113
-0.0128089
-0.0194122
-0.028267
-0.0398368
-0.0549746
-0.0743529
-0.100084
-0.133229
-0.179684
-0.233358
-0.295273
-0.349523
-0.0192026
-0.0146933
-0.0130162
-0.0116383
-0.0114863
-0.0123816
-0.014526
-0.0180508
-0.0231711
-0.0301513
-0.039383
-0.0513149
-0.0666903
-0.0861705
-0.111456
-0.143552
-0.18724
-0.236015
-0.279167
-0.319218
0.00561386
0.0111843
0.0135454
0.0158342
0.0169184
0.0170533
0.0159793
0.0135548
0.00959971
0.00387153
-0.00408443
-0.0146643
-0.0289071
-0.0470658
-0.0725602
-0.103987
-0.151926
-0.206011
-0.289068
-0.344954
-0.0029769
0.00219303
0.00431485
0.00625675
0.00700358
0.00675252
0.00528053
0.00245524
-0.00193447
-0.00814994
-0.0166135
-0.027763
-0.0425386
-0.0614202
-0.0871023
-0.119508
-0.166101
-0.218866
-0.286731
-0.326167
0.0228589
0.029386
0.0321682
0.035183
0.0368781
0.0378675
0.0377135
0.0363451
0.0335683
0.0292282
0.0227692
0.0139417
0.00142683
-0.0140108
-0.0377206
-0.0626099
-0.110508
-0.151932
-0.24913
-0.288126
0.0142728
0.0203035
0.0228861
0.0255553
0.0269696
0.027538
0.0269166
0.0249609
0.021524
0.0164042
0.00906707
-0.000786509
-0.0143839
-0.0313257
-0.0562601
-0.0841952
-0.131967
-0.177103
-0.262948
-0.291131
0.039501
0.0472093
0.0501073
0.0537769
0.0558101
0.0572986
0.0576522
0.0570961
0.0552215
0.0517734
0.0465636
0.0394829
0.0293519
0.0173665
-0.00199704
-0.0186946
-0.0614895
-0.0739468
-0.175805
-0.137132
0.0311709
0.0382719
0.0411373
0.044463
0.0463007
0.0475857
0.0477372
0.0469335
0.0447689
0.0410831
0.035456
0.0277103
0.0164631
0.00286497
-0.0191034
-0.039498
-0.0856993
-0.108091
-0.205254
-0.17943
0.0573816
0.0660491
0.0695946
0.0745715
0.0782235
0.0812007
0.0833281
0.0846099
0.0847548
0.0835852
0.0809353
0.0767247
0.0704165
0.06284
0.0520611
0.0442601
0.0292897
0.0414048
0.0160213
0.147219
0.0482842
0.0565947
0.0595776
0.0638373
0.0664871
0.0684274
0.0692791
0.0690911
0.0674621
0.0642184
0.0592067
0.0523348
0.0428462
0.0317249
0.0156609
0.00264034
-0.0257051
-0.0212619
-0.0823148
0.0326526
0.319026
0.318192
0.319492
0.318587
0.320475
0.319443
0.322522
0.321434
0.326574
0.325724
0.334615
0.33472
0.350759
0.35341
0.383882
0.392059
0.453646
0.46624
0.59146
0.469786
0.319013
0.318174
0.319463
0.318582
0.320433
0.319444
0.322465
0.321458
0.326517
0.325814
0.334596
0.334983
0.350866
0.354062
0.384196
0.393237
0.453015
0.46457
0.575317
0.416606
0.319048
0.318219
0.319533
0.318605
0.320538
0.319464
0.322618
0.321451
0.32672
0.325717
0.334835
0.334646
0.351131
0.353243
0.38483
0.392356
0.457935
0.474166
0.618647
0.578402
0.319036
0.318209
0.319511
0.3186
0.320503
0.319458
0.322563
0.321447
0.326634
0.325724
0.334705
0.334686
0.350914
0.353334
0.384304
0.392236
0.455601
0.470068
0.604697
0.527448
0.319065
0.318238
0.319565
0.318619
0.320586
0.319481
0.322691
0.321466
0.32683
0.325716
0.335
0.334593
0.351407
0.353097
0.385494
0.39241
0.460645
0.479622
0.634188
0.663884
0.319057
0.318232
0.31955
0.318615
0.320563
0.319476
0.322653
0.321461
0.326769
0.325714
0.3349
0.334602
0.351222
0.353113
0.38503
0.392218
0.45888
0.47641
0.625828
0.627357
0.319073
0.318246
0.31958
0.318625
0.320608
0.31949
0.322725
0.321475
0.32688
0.325718
0.335077
0.334571
0.351535
0.353027
0.385788
0.392409
0.461752
0.48212
0.640089
0.704299
0.31907
0.318244
0.319575
0.318624
0.320599
0.319488
0.322711
0.321473
0.326858
0.325717
0.33504
0.334573
0.351465
0.353031
0.385614
0.392335
0.461121
0.480922
0.637333
0.691179
0.31907
0.318244
0.319575
0.318624
0.320599
0.319488
0.322711
0.321473
0.326858
0.325717
0.33504
0.334573
0.351465
0.353031
0.385614
0.392335
0.461121
0.480922
0.637333
0.691179
0.319073
0.318246
0.31958
0.318625
0.320608
0.31949
0.322725
0.321475
0.32688
0.325718
0.335077
0.334571
0.351535
0.353027
0.385788
0.392409
0.461752
0.48212
0.640089
0.704299
0.319057
0.318232
0.31955
0.318615
0.320563
0.319476
0.322653
0.321461
0.326769
0.325714
0.3349
0.334602
0.351222
0.353113
0.38503
0.392218
0.45888
0.47641
0.625828
0.627357
0.319065
0.318238
0.319565
0.318619
0.320586
0.319481
0.322691
0.321466
0.32683
0.325716
0.335
0.334593
0.351407
0.353097
0.385494
0.39241
0.460645
0.479622
0.634188
0.663884
0.319036
0.318209
0.319511
0.3186
0.320503
0.319458
0.322563
0.321447
0.326634
0.325724
0.334705
0.334686
0.350914
0.353334
0.384304
0.392236
0.455601
0.470068
0.604697
0.527448
0.319048
0.318219
0.319533
0.318605
0.320538
0.319464
0.322618
0.321451
0.32672
0.325717
0.334835
0.334646
0.351131
0.353243
0.38483
0.392356
0.457935
0.474166
0.618647
0.578402
0.319013
0.318174
0.319463
0.318582
0.320433
0.319444
0.322465
0.321458
0.326517
0.325814
0.334596
0.334983
0.350866
0.354062
0.384196
0.393237
0.453015
0.46457
0.575317
0.416606
0.319026
0.318192
0.319492
0.318587
0.320475
0.319443
0.322522
0.321434
0.326574
0.325724
0.334615
0.33472
0.350759
0.35341
0.383882
0.392059
0.453646
0.46624
0.59146
0.469786
0.0482842
0.0565947
0.0595776
0.0638373
0.0664871
0.0684274
0.0692791
0.0690911
0.0674621
0.0642184
0.0592067
0.0523348
0.0428462
0.0317249
0.0156609
0.00264034
-0.0257051
-0.0212619
-0.0823148
0.0326526
0.0573816
0.0660491
0.0695946
0.0745715
0.0782235
0.0812007
0.0833281
0.0846099
0.0847548
0.0835852
0.0809353
0.0767247
0.0704165
0.06284
0.0520611
0.0442601
0.0292897
0.0414048
0.0160213
0.147219
0.0311709
0.0382719
0.0411373
0.044463
0.0463007
0.0475857
0.0477372
0.0469335
0.0447689
0.0410831
0.035456
0.0277103
0.0164631
0.00286497
-0.0191034
-0.039498
-0.0856993
-0.108091
-0.205254
-0.17943
0.039501
0.0472093
0.0501073
0.0537769
0.0558101
0.0572986
0.0576522
0.0570961
0.0552215
0.0517734
0.0465636
0.0394829
0.0293519
0.0173665
-0.00199704
-0.0186946
-0.0614895
-0.0739468
-0.175805
-0.137132
0.0142728
0.0203035
0.0228861
0.0255553
0.0269696
0.027538
0.0269166
0.0249609
0.021524
0.0164042
0.00906707
-0.000786508
-0.0143839
-0.0313257
-0.0562601
-0.0841952
-0.131967
-0.177103
-0.262948
-0.291131
0.0228589
0.029386
0.0321682
0.035183
0.0368781
0.0378675
0.0377135
0.0363451
0.0335683
0.0292282
0.0227692
0.0139417
0.00142683
-0.0140108
-0.0377206
-0.0626099
-0.110508
-0.151932
-0.24913
-0.288126
-0.0029769
0.00219303
0.00431485
0.00625675
0.00700358
0.00675252
0.00528054
0.00245525
-0.00193447
-0.00814994
-0.0166135
-0.027763
-0.0425386
-0.0614202
-0.0871023
-0.119508
-0.166101
-0.218866
-0.286731
-0.326167
0.00561386
0.0111843
0.0135454
0.0158342
0.0169184
0.0170533
0.0159793
0.0135548
0.00959971
0.00387153
-0.00408443
-0.0146643
-0.0289071
-0.0470658
-0.0725602
-0.103987
-0.151926
-0.206011
-0.289068
-0.344954
-0.0192026
-0.0146933
-0.0130162
-0.0116383
-0.0114863
-0.0123816
-0.014526
-0.0180508
-0.0231711
-0.0301513
-0.039383
-0.0513149
-0.0666903
-0.0861705
-0.111456
-0.143552
-0.18724
-0.236015
-0.279167
-0.319218
-0.0112597
-0.00644744
-0.00455592
-0.0029165
-0.00247185
-0.00305646
-0.00487254
-0.00805113
-0.0128089
-0.0194122
-0.028267
-0.0398368
-0.0549746
-0.0743529
-0.100084
-0.133229
-0.179684
-0.233358
-0.295273
-0.349523
-0.0336672
-0.0296298
-0.0283767
-0.0274541
-0.0278538
-0.0293086
-0.0320527
-0.0362027
-0.0419723
-0.0496109
-0.0594801
-0.0720209
-0.087782
-0.107152
-0.131526
-0.161442
-0.197907
-0.234873
-0.2588
-0.283579
-0.0266691
-0.0224167
-0.0209558
-0.0197991
-0.019932
-0.0211113
-0.0235591
-0.027398
-0.0328397
-0.0401379
-0.0496697
-0.0618843
-0.0774781
-0.0971482
-0.122622
-0.154725
-0.197216
-0.244199
-0.279753
-0.32252
-0.0459414
-0.0422437
-0.0414238
-0.0409411
-0.041835
-0.0437928
-0.0470765
-0.0517808
-0.0581174
-0.0663176
-0.0766859
-0.0896626
-0.105766
-0.124743
-0.14693
-0.174097
-0.203395
-0.21957
-0.243308
-0.240858
-0.0400864
-0.0362258
-0.0351891
-0.0344856
-0.035137
-0.0368445
-0.0398583
-0.0442819
-0.0503245
-0.0582157
-0.0682736
-0.0809361
-0.0967503
-0.115972
-0.14006
-0.170666
-0.205927
-0.23548
-0.261747
-0.274394
-0.0557208
-0.0524191
-0.0519947
-0.0519441
-0.0532923
-0.0557411
-0.0595556
-0.064817
-0.0717228
-0.0804842
-0.0913657
-0.104761
-0.121364
-0.141091
-0.162899
-0.188331
-0.215788
-0.226582
-0.228274
-0.18973
-0.0511479
-0.047615
-0.0470124
-0.0467379
-0.0478602
-0.0500542
-0.0535901
-0.0585506
-0.0651363
-0.0735503
-0.0840203
-0.0968586
-0.112563
-0.130906
-0.151791
-0.178059
-0.208408
-0.223297
-0.242981
-0.221491
0.0182873
0.0320922
0.0539414
0.0667545
0.0819178
0.0923698
0.102611
0.109825
0.115625
0.118853
0.119939
0.118318
0.113944
0.106431
0.0955537
0.0810259
0.0624512
0.0399463
0.013243
-0.0174938
-0.0518983
-0.0893476
-0.128933
-0.169516
-0.209823
-0.24856
-0.284536
-0.316738
-0.344379
-0.366915
-0.384032
-0.395639
-0.401824
-0.402878
-0.399168
-0.391245
-0.379687
-0.365143
-0.348286
-0.329778
-0.310249
-0.29028
-0.270379
-0.250976
-0.232424
-0.214997
-0.198894
-0.184243
-0.171115
-0.15953
-0.149471
-0.140887
-0.133705
-0.127837
-0.123184
-0.119641
-0.1171
-0.115454
-0.114594
-0.114416
-0.114812
-0.115688
-0.11695
-0.118514
-0.120295
-0.122237
-0.124295
-0.126385
-0.128456
-0.130479
-0.132479
-0.134343
-0.136118
-0.137792
-0.139365
-0.140845
-0.142241
-0.143567
-0.144835
-0.146057
-0.147243
-0.148402
-0.149537
-0.150649
-0.151736
-0.152789
-0.153796
-0.154738
-0.155595
-0.156334
-0.156932
-0.157324
-0.157581
-0.157388
-0.157531
-0.155972
-0.158101
-0.153323
-0.162782
-0.160652
0.0178526
0.0317738
0.0531471
0.065935
0.0808186
0.0911817
0.101226
0.108315
0.113946
0.117024
0.117939
0.116138
0.111555
0.103802
0.0926436
0.0777778
0.0588256
0.0358433
0.00861449
-0.0227137
-0.0577534
-0.095843
-0.136022
-0.177092
-0.217725
-0.256593
-0.292491
-0.324416
-0.351606
-0.373547
-0.389956
-0.40077
-0.406104
-0.406415
-0.401835
-0.393087
-0.38075
-0.365486
-0.347983
-0.328913
-0.30891
-0.288552
-0.268349
-0.248734
-0.23005
-0.212558
-0.19645
-0.181847
-0.168808
-0.157346
-0.147437
-0.139022
-0.132024
-0.126349
-0.121893
-0.118547
-0.116199
-0.114736
-0.114042
-0.114019
-0.114599
-0.115651
-0.117071
-0.118778
-0.120697
-0.122753
-0.124828
-0.126938
-0.129034
-0.13111
-0.133035
-0.134873
-0.136613
-0.138249
-0.139786
-0.141232
-0.142598
-0.143897
-0.145142
-0.146345
-0.147517
-0.148663
-0.149788
-0.150892
-0.151971
-0.153016
-0.154014
-0.154947
-0.155793
-0.156524
-0.157119
-0.157531
-0.15779
-0.157639
-0.157831
-0.156457
-0.159089
-0.154534
-0.16742
-0.161625
0.0188868
0.0328428
0.0552418
0.0683118
0.0838205
0.0945434
0.105061
0.112552
0.118625
0.122152
0.123551
0.122278
0.118284
0.1112
0.100806
0.0868289
0.0689035
0.0471215
0.0212398
-0.00858711
-0.0420216
-0.0784936
-0.117168
-0.156994
-0.196775
-0.235277
-0.271325
-0.303896
-0.332168
-0.355549
-0.373674
-0.386403
-0.393787
-0.396112
-0.393621
-0.386901
-0.376505
-0.363054
-0.347202
-0.329598
-0.310861
-0.291565
-0.272218
-0.253255
-0.235036
-0.21784
-0.201875
-0.187282
-0.174141
-0.162484
-0.152302
-0.143555
-0.136177
-0.130087
-0.125194
-0.121398
-0.118597
-0.116687
-0.115565
-0.115128
-0.115295
-0.115964
-0.11704
-0.11844
-0.120083
-0.121906
-0.123854
-0.12586
-0.127876
-0.12987
-0.131819
-0.133694
-0.135481
-0.137172
-0.138769
-0.140276
-0.1417
-0.143051
-0.144342
-0.145583
-0.146783
-0.147949
-0.149087
-0.150198
-0.151278
-0.152322
-0.153317
-0.154246
-0.155091
-0.155817
-0.156408
-0.156784
-0.157013
-0.156737
-0.156708
-0.155095
-0.156057
-0.152113
-0.155935
-0.154884
0.0186103
0.0324797
0.0546051
0.0675651
0.0828983
0.0935017
0.103884
0.11125
0.117194
0.120585
0.12184
0.120409
0.116245
0.10897
0.0983595
0.0841349
0.0659205
0.0438122
0.0175512
-0.0127008
-0.0465963
-0.0835422
-0.12267
-0.162887
-0.202958
-0.241618
-0.277679
-0.31012
-0.338132
-0.361144
-0.378814
-0.391025
-0.397842
-0.399512
-0.396469
-0.389166
-0.378199
-0.364206
-0.347852
-0.329792
-0.310653
-0.291011
-0.271375
-0.252181
-0.233784
-0.216461
-0.200416
-0.185783
-0.172638
-0.161008
-0.150879
-0.142205
-0.134918
-0.128934
-0.124157
-0.120484
-0.117811
-0.116034
-0.115048
-0.114741
-0.115004
-0.115775
-0.116953
-0.118456
-0.120204
-0.122114
-0.124122
-0.12617
-0.128225
-0.130254
-0.132194
-0.134076
-0.13584
-0.137508
-0.139083
-0.140569
-0.141974
-0.143309
-0.144586
-0.145815
-0.147007
-0.148169
-0.149305
-0.150418
-0.151503
-0.152555
-0.15356
-0.154503
-0.155363
-0.156108
-0.156717
-0.157114
-0.15737
-0.157162
-0.157286
-0.155681
-0.157266
-0.152815
-0.158694
-0.156485
0.0192875
0.0334221
0.0562383
0.0694796
0.0852593
0.0961643
0.106891
0.11457
0.120839
0.124567
0.126177
0.125134
0.121392
0.114592
0.104521
0.0909004
0.0734411
0.0521278
0.026814
-0.00238056
-0.0351317
-0.0709022
-0.108907
-0.148155
-0.187507
-0.225773
-0.261799
-0.294562
-0.323219
-0.347147
-0.365948
-0.379447
-0.387664
-0.390836
-0.389235
-0.383376
-0.373814
-0.361155
-0.346037
-0.329097
-0.31095
-0.292163
-0.273242
-0.254626
-0.236675
-0.219676
-0.203842
-0.18932
-0.1762
-0.16452
-0.154276
-0.145436
-0.137939
-0.131711
-0.126664
-0.122703
-0.119729
-0.117643
-0.116346
-0.115741
-0.115735
-0.116241
-0.117171
-0.118444
-0.119982
-0.121725
-0.123584
-0.125525
-0.127498
-0.129462
-0.131388
-0.133254
-0.135048
-0.136748
-0.138359
-0.139883
-0.141326
-0.142697
-0.144005
-0.14526
-0.146471
-0.147645
-0.148787
-0.149897
-0.150974
-0.15201
-0.152995
-0.153911
-0.154737
-0.155439
-0.155999
-0.156328
-0.15649
-0.156149
-0.15591
-0.15431
-0.154302
-0.150906
-0.152025
-0.149274
0.0191106
0.0331683
0.0557932
0.0689656
0.0846205
0.0954498
0.106082
0.11368
0.119862
0.123503
0.125019
0.123877
0.120024
0.1131
0.102888
0.0891117
0.0714501
0.0499328
0.0243698
-0.005103
-0.0381564
-0.0742394
-0.112546
-0.152059
-0.191614
-0.229999
-0.266054
-0.298751
-0.327257
-0.350961
-0.36948
-0.382654
-0.390514
-0.393256
-0.39129
-0.38506
-0.375129
-0.362115
-0.346663
-0.329419
-0.310999
-0.291973
-0.27285
-0.254065
-0.235981
-0.218881
-0.202976
-0.188412
-0.175272
-0.163594
-0.153371
-0.144566
-0.137118
-0.130949
-0.125969
-0.122081
-0.119186
-0.117182
-0.11597
-0.115449
-0.115514
-0.116081
-0.117071
-0.118402
-0.119998
-0.121784
-0.123701
-0.12568
-0.127683
-0.129672
-0.131612
-0.133485
-0.135271
-0.13696
-0.138559
-0.140072
-0.141504
-0.142865
-0.144164
-0.145412
-0.146619
-0.14779
-0.14893
-0.150042
-0.151123
-0.152165
-0.153158
-0.154084
-0.154922
-0.155637
-0.156212
-0.15656
-0.156757
-0.156465
-0.156361
-0.154764
-0.155207
-0.151533
-0.153576
-0.150865
0.0194666
0.0336979
0.0567017
0.0700248
0.0859286
0.096917
0.10774
0.115504
0.121863
0.125682
0.127388
0.126449
0.12282
0.116148
0.10622
0.0927489
0.0755214
0.054404
0.029343
0.000431445
-0.0320135
-0.0674672
-0.105168
-0.144148
-0.183296
-0.22144
-0.257442
-0.290275
-0.319092
-0.343256
-0.362353
-0.376194
-0.384784
-0.388329
-0.387126
-0.38166
-0.372478
-0.360181
-0.345399
-0.328766
-0.310892
-0.292343
-0.273623
-0.255172
-0.237351
-0.22045
-0.204684
-0.190203
-0.1771
-0.165416
-0.155152
-0.146276
-0.138732
-0.132447
-0.127334
-0.123302
-0.120254
-0.118092
-0.116718
-0.116038
-0.115958
-0.116388
-0.117247
-0.118458
-0.119943
-0.121631
-0.123468
-0.125383
-0.127335
-0.129286
-0.131204
-0.133066
-0.134855
-0.136562
-0.138179
-0.13971
-0.141161
-0.14254
-0.143855
-0.145117
-0.146333
-0.147511
-0.148655
-0.149765
-0.15084
-0.151873
-0.152852
-0.15376
-0.154576
-0.155264
-0.155805
-0.156109
-0.156232
-0.15586
-0.155509
-0.153927
-0.153469
-0.150249
-0.150415
-0.146275
0.0194055
0.0336054
0.0565433
0.0698412
0.0857011
0.096663
0.107452
0.115188
0.121517
0.125306
0.126979
0.126005
0.122339
0.115624
0.105648
0.0921269
0.0748211
0.0536382
0.0284915
-0.00051635
-0.0330661
-0.068629
-0.106435
-0.14551
-0.184731
-0.222922
-0.258938
-0.291753
-0.320521
-0.34461
-0.363613
-0.377343
-0.385811
-0.389209
-0.387875
-0.382281
-0.372971
-0.36055
-0.345651
-0.32891
-0.310939
-0.292304
-0.273512
-0.254999
-0.237129
-0.22019
-0.204396
-0.189898
-0.176786
-0.1651
-0.154841
-0.145975
-0.138446
-0.13218
-0.127089
-0.123082
-0.12006
-0.117925
-0.11658
-0.115929
-0.115876
-0.116326
-0.117206
-0.118436
-0.119939
-0.121642
-0.1235
-0.12543
-0.127393
-0.129353
-0.131278
-0.133144
-0.134931
-0.136636
-0.138248
-0.139775
-0.141223
-0.142598
-0.143911
-0.14517
-0.146385
-0.147561
-0.148704
-0.149815
-0.150891
-0.151926
-0.152909
-0.15382
-0.154641
-0.155335
-0.155883
-0.156194
-0.156331
-0.155978
-0.155679
-0.154101
-0.1538
-0.15051
-0.150899
-0.146928
0.317562
0.317306
0.317194
0.316811
0.316381
0.315598
0.314638
0.313229
0.311285
0.308864
0.305104
0.300146
0.292423
0.282738
0.267374
0.249379
0.220149
0.189706
0.139762
0.0950922
0.317619
0.317315
0.317301
0.316874
0.316591
0.315777
0.315079
0.313665
0.312165
0.309705
0.306534
0.301841
0.294917
0.286048
0.271577
0.255338
0.226429
0.198848
0.147126
0.105058
0.317674
0.317334
0.317392
0.316943
0.316756
0.315936
0.31538
0.314013
0.312716
0.310406
0.307597
0.303233
0.296886
0.288696
0.275003
0.259932
0.231581
0.205608
0.152684
0.111941
0.31774
0.317358
0.317497
0.31702
0.316952
0.316116
0.315779
0.314406
0.313477
0.3112
0.308929
0.304813
0.299281
0.291711
0.279107
0.265199
0.237685
0.213364
0.159037
0.119734
0.317813
0.317389
0.317611
0.317107
0.317161
0.316312
0.316179
0.314831
0.314247
0.312054
0.310359
0.30651
0.301907
0.294944
0.283652
0.270814
0.244492
0.221558
0.165895
0.127782
0.317893
0.317425
0.317732
0.317202
0.317382
0.316521
0.31661
0.315278
0.315068
0.312956
0.311893
0.308296
0.304757
0.298362
0.288623
0.276758
0.252014
0.230221
0.173359
0.136116
0.317979
0.317467
0.317859
0.317304
0.317613
0.31674
0.317056
0.315743
0.315928
0.313898
0.31352
0.310161
0.307818
0.301951
0.294024
0.283027
0.260311
0.239395
0.181591
0.144849
0.318068
0.317513
0.31799
0.317411
0.317851
0.316968
0.317516
0.316223
0.316816
0.314872
0.315221
0.312093
0.311063
0.305678
0.299861
0.289613
0.269439
0.249108
0.190792
0.154026
0.318161
0.317562
0.318125
0.317522
0.318093
0.317202
0.317984
0.316714
0.317723
0.31587
0.316977
0.314079
0.314459
0.309523
0.306119
0.296526
0.27945
0.259394
0.201214
0.163651
0.318256
0.317615
0.31826
0.317636
0.318337
0.317439
0.318454
0.317211
0.318639
0.316882
0.318767
0.316107
0.317967
0.313472
0.312754
0.303778
0.290412
0.270288
0.213156
0.173702
0.31835
0.31767
0.318396
0.31775
0.318579
0.317677
0.318923
0.317709
0.319555
0.317901
0.320569
0.318161
0.321546
0.317517
0.319714
0.311324
0.302444
0.281844
0.226983
0.184127
0.318444
0.317727
0.318531
0.317864
0.318818
0.317913
0.319384
0.318202
0.320459
0.318916
0.322362
0.320225
0.325152
0.321638
0.326913
0.319149
0.315596
0.294183
0.243144
0.194808
0.318536
0.317784
0.318662
0.317976
0.319051
0.318145
0.319833
0.318687
0.321341
0.319917
0.324124
0.322279
0.328736
0.32581
0.33426
0.327258
0.329819
0.307568
0.262173
0.205565
0.318623
0.317841
0.318789
0.318085
0.319275
0.31837
0.320265
0.319157
0.322192
0.320894
0.325832
0.324305
0.332252
0.329999
0.341651
0.335662
0.34502
0.32226
0.2847
0.216224
0.318706
0.317898
0.318911
0.318188
0.319488
0.318584
0.320676
0.319607
0.323003
0.321835
0.327467
0.326278
0.335653
0.334167
0.348978
0.34435
0.360991
0.338344
0.311671
0.226822
0.318781
0.317954
0.319026
0.318286
0.319688
0.318787
0.321062
0.320032
0.323765
0.322728
0.32901
0.328174
0.338895
0.338264
0.356129
0.353266
0.377473
0.356027
0.343814
0.237831
0.318849
0.318007
0.319132
0.318376
0.319873
0.318974
0.321418
0.320426
0.32447
0.323561
0.330445
0.329963
0.341937
0.342225
0.362996
0.362309
0.394202
0.37551
0.381787
0.250596
0.318906
0.318065
0.319229
0.318457
0.320042
0.319142
0.321742
0.320782
0.325112
0.324319
0.331756
0.331611
0.344744
0.345965
0.369476
0.371314
0.410883
0.39693
0.426196
0.267943
0.318954
0.318103
0.319318
0.318522
0.320193
0.319288
0.322031
0.321095
0.325685
0.324995
0.332928
0.333099
0.347277
0.349424
0.375451
0.380109
0.427027
0.420381
0.475929
0.298369
0.318986
0.318183
0.31938
0.318603
0.320311
0.31944
0.322268
0.321398
0.326163
0.325622
0.33393
0.334458
0.349479
0.352602
0.380768
0.388487
0.442168
0.445298
0.529414
0.359426
0.318986
0.318183
0.31938
0.318603
0.320311
0.31944
0.322268
0.321398
0.326163
0.325622
0.33393
0.334458
0.349479
0.352602
0.380768
0.388487
0.442168
0.445298
0.529414
0.359426
0.318954
0.318103
0.319318
0.318522
0.320193
0.319288
0.322031
0.321095
0.325685
0.324995
0.332928
0.333099
0.347277
0.349424
0.375451
0.380109
0.427027
0.420381
0.475929
0.298369
0.318906
0.318065
0.319229
0.318457
0.320042
0.319142
0.321742
0.320782
0.325112
0.324319
0.331756
0.331611
0.344744
0.345965
0.369476
0.371314
0.410883
0.39693
0.426196
0.267943