/*--------------------------------*- C++ -*----------------------------------*\
  =========                 |
  \\      /  F ield         | OpenFOAM: The Open Source CFD Toolbox
   \\    /   O peration     | Website:  https://openfoam.org
    \\  /    A nd           | Version:  7
     \\/     M anipulation  |
\*---------------------------------------------------------------------------*/
FoamFile
{
    version     2.0;
    format      ascii;
    class       surfaceScalarField;
    location    "30";
    object      phi;
}
// * * * * * * * * * * * * * * * * * * * * * * * * * * * * * * * * * * * * * //

dimensions      [0 3 -1 0 0 0 0];

internalField   nonuniform List<scalar> 
14496
(
-0.00345015
0.000199367
-0.000398169
-0.00325469
0.000195902
-0.000391369
-0.003059
0.000196209
-0.000391893
-0.00286099
0.000198385
-0.000396399
-0.00266104
0.000200435
-0.000400383
-0.00245595
0.000205477
-0.000410566
-0.00224656
0.000209851
-0.000419244
-0.0020304
0.000216575
-0.000432732
-0.00180779
0.000223055
-0.000445661
-0.00157725
0.000230983
-0.000461529
-0.0013387
0.00023899
-0.00047754
-0.00109144
0.00024769
-0.000494948
-0.000835367
0.000256489
-0.000512563
-0.000570353
0.000265409
-0.000530424
-0.000296689
0.000274026
-0.00054769
-1.49589e-05
0.000282044
-0.000563774
0.000273531
0.00028875
-0.000577241
0.000567165
0.000293845
-0.000587479
0.000863789
0.000296809
-0.000593432
0.00116041
0.000296771
-0.000593396
0.00145352
0.000293246
-0.000586353
0.00173906
0.000285716
-0.000571257
0.00201273
0.000273919
-0.000547585
0.00227022
0.000257868
-0.000515362
0.00250757
0.000237874
-0.000475225
0.0027214
0.000214504
-0.000428329
0.00290907
0.0001885
-0.000376175
0.0030688
0.00016067
-0.000320399
0.00319959
0.000131809
-0.000262597
0.00330117
0.000102639
-0.000204217
0.00337389
7.37879e-05
-0.000146511
0.00341863
4.57777e-05
-9.05217e-05
0.0034367
1.90774e-05
-3.71455e-05
0.00342966
-6.10796e-06
1.31491e-05
0.00339959
-2.92971e-05
5.93707e-05
0.00334854
-5.03211e-05
0.000101369
0.00327887
-6.90609e-05
0.000138726
0.00319305
-8.53399e-05
0.00017116
0.00309362
-9.9083e-05
0.000198519
0.00298313
-0.000110263
0.000220749
0.00286414
-0.000118902
0.000237895
0.00273911
-0.000125068
0.000250098
0.0026104
-0.000128874
0.000257584
0.00248021
-0.000130467
0.000260652
0.00235058
-0.000130027
0.000259659
0.00222333
-0.000127751
0.000255006
0.00210005
-0.000123858
0.000247129
0.00198214
-0.000118575
0.000236485
0.00187074
-0.000112132
0.000223536
0.00176676
-0.000104759
0.00020874
0.00167089
-9.66788e-05
0.000192547
0.00158361
-8.81074e-05
0.000175385
0.0015052
-7.9248e-05
0.000157663
0.00143573
-7.02912e-05
0.000139762
0.00137511
-6.14122e-05
0.000122031
0.00132309
-5.277e-05
0.000104786
0.00127929
-4.45057e-05
8.83094e-05
0.00124319
-3.6742e-05
7.28442e-05
0.00121417
-2.95824e-05
5.85961e-05
0.00119155
-2.31155e-05
4.57415e-05
0.00117454
-1.7395e-05
3.4402e-05
0.00116246
-1.24137e-05
2.44966e-05
0.00115451
-8.1924e-06
1.61424e-05
0.00114992
-4.74897e-06
9.33958e-06
0.00114794
-2.04616e-06
4.0175e-06
0.00114794
-5.85812e-09
1.27268e-08
0.00114912
1.26832e-06
-2.45395e-06
0.00115101
2.02839e-06
-3.92001e-06
0.00115315
2.32012e-06
-4.45204e-06
0.00115513
2.22077e-06
-4.20848e-06
0.00115667
1.80257e-06
-3.33358e-06
0.0011575
1.15049e-06
-1.98985e-06
0.00115749
3.29507e-07
-3.11588e-07
0.00115649
-6.41062e-07
1.63322e-06
0.00115448
-1.65026e-06
3.66109e-06
0.00115144
-2.67251e-06
5.71839e-06
0.00114736
-3.69378e-06
7.77037e-06
0.00114227
-4.7054e-06
9.80135e-06
0.00113616
-5.71121e-06
1.18196e-05
0.00112903
-6.72712e-06
1.38572e-05
0.00112084
-7.78003e-06
1.59683e-05
0.00111152
-8.90755e-06
1.82276e-05
0.00110095
-1.0158e-05
2.07313e-05
0.00108894
-1.15912e-05
2.35983e-05
0.00107525
-1.32803e-05
2.69731e-05
0.00105953
-1.53141e-05
3.10314e-05
0.00104134
-1.78012e-05
3.59872e-05
0.00102011
-2.08765e-05
4.21062e-05
0.000995097
-2.47136e-05
4.97286e-05
0.000965348
-2.95254e-05
5.92747e-05
0.000929605
-3.56444e-05
7.13877e-05
0.000886362
-4.33173e-05
8.65598e-05
0.000833174
-5.35529e-05
0.000106741
0.000768154
-6.57619e-05
0.000130782
0.000685075
-8.44298e-05
0.000167509
0.000585448
-0.000101836
0.000201464
0.000451713
-0.000136808
0.000270542
0.000304758
-0.0001522
0.000299156
0.000127803
-0.000180097
0.000357053
-0.000131228
0.000259031
-0.00344644
-1.18942e-11
-0.00325054
-1.21997e-11
-0.00305433
-1.2202e-11
-0.00285594
-1.27456e-11
-0.00265551
-1.34291e-11
-0.00245003
-1.35526e-11
-0.00224018
-1.37186e-11
-0.0020236
-1.40213e-11
-0.00180055
-1.32256e-11
-0.00156957
-1.31258e-11
-0.00133058
-1.29066e-11
-0.00108289
-1.23653e-11
-0.000826398
-1.17025e-11
-0.000560988
-1.04879e-11
-0.000286962
-9.07321e-12
-4.91845e-06
-7.59977e-12
0.000283832
-5.52148e-12
0.000577677
-5.78402e-12
0.000874486
-7.87645e-12
0.00117126
-1.05713e-11
0.0014645
-1.27326e-11
0.00175022
-1.15048e-11
0.00202414
-9.09307e-12
0.00228201
-6.27074e-12
0.00251988
-3.47446e-12
0.00273439
-7.88834e-13
0.00292288
1.79067e-12
0.00308355
4.19121e-12
0.00321536
6.56987e-12
0.003318
9.21367e-12
0.00339179
1.14139e-11
0.00343757
1.38959e-11
0.00345665
1.63123e-11
0.00345054
1.87741e-11
0.00342124
2.0967e-11
0.00337092
2.36035e-11
0.00330186
2.60985e-11
0.00321652
2.84241e-11
0.00311744
3.05526e-11
0.00300717
3.26124e-11
0.00288827
3.438e-11
0.0027632
3.58588e-11
0.00263433
3.73162e-11
0.00250386
3.80786e-11
0.00237383
3.84278e-11
0.00224608
3.8237e-11
0.00212223
3.6835e-11
0.00200365
3.53634e-11
0.00189152
3.36304e-11
0.00178676
3.15746e-11
0.00169008
2.87975e-11
0.00160197
2.49852e-11
0.00152273
2.03321e-11
0.00145243
1.48962e-11
0.00139102
9.19786e-12
0.00133825
3.38777e-12
0.00129375
-2.29363e-12
0.001257
-7.60071e-12
0.00122742
-1.23998e-11
0.00120431
-1.65783e-11
0.00118691
-2.00799e-11
0.0011745
-2.27653e-11
0.00116631
-2.47174e-11
0.00116156
-2.61889e-11
0.00115951
-2.7082e-11
0.00115951
-3.08691e-11
0.00116077
-2.73876e-11
0.0011628
-2.8619e-11
0.00116512
-2.96314e-11
0.00116734
-3.04152e-11
0.00116915
-3.10062e-11
0.0011703
-3.14385e-11
0.00117063
-3.14668e-11
0.00116998
-3.14092e-11
0.00116833
-2.95205e-11
0.00116566
-2.70218e-11
0.00116197
-2.3996e-11
0.00115726
-2.04002e-11
0.00115155
-1.62868e-11
0.00114482
-1.17497e-11
0.00113704
-6.9723e-12
0.00112814
-2.17942e-12
0.00111798
2.46028e-12
0.00110639
6.67405e-12
0.00109311
1.02707e-11
0.00107779
1.30881e-11
0.00105999
1.50752e-11
0.00103912
1.62091e-11
0.0010144
1.66077e-11
0.000984876
1.63649e-11
0.000949232
1.56345e-11
0.000905915
1.44534e-11
0.000852362
1.29496e-11
0.0007866
1.12367e-11
0.00070217
9.23899e-12
0.000600334
7.18087e-12
0.000463525
5.09425e-12
0.000311325
3.1141e-12
0.000131228
1.1988e-12
-6.57412e-13
-0.00333188
0.000588443
-0.000777178
-0.00314514
0.000579141
-0.000765881
-0.00295928
0.000579183
-0.000765046
-0.00276996
0.000586644
-0.00077596
-0.00257963
0.000591985
-0.00078232
-0.00238365
0.00060754
-0.000803516
-0.00218397
0.000620104
-0.00081979
-0.00197747
0.000640306
-0.000846809
-0.00176492
0.000659349
-0.000871891
-0.00154462
0.000682951
-0.000903258
-0.00131663
0.000706662
-0.000934651
-0.00108016
0.000732516
-0.000968988
-0.000835131
0.000758659
-0.00100368
-0.000581382
0.000785187
-0.00103894
-0.000319196
0.000810826
-0.00107301
-4.91128e-05
0.000834679
-0.00110476
0.000227729
0.000854853
-0.0011317
0.000509751
0.000870089
-0.00115211
0.000794687
0.000878891
-0.00116383
0.00107967
0.00087883
-0.00116381
0.00136109
0.00086827
-0.00114969
0.00163485
0.000845662
-0.00111942
0.00189656
0.000810219
-0.00107193
0.00214189
0.000761997
-0.00100732
0.00236688
0.000701986
-0.000926983
0.00256829
0.000631956
-0.000833361
0.00274368
0.000554188
-0.00072958
0.00289151
0.000471149
-0.000618974
0.00301102
0.000385226
-0.000504745
0.0031022
0.00029857
-0.000389744
0.00316558
0.000213029
-0.00027641
0.00320218
0.000130131
-0.000166733
0.00321337
5.12464e-05
-6.24399e-05
0.00320092
-2.31033e-05
3.55616e-05
0.00316673
-9.13131e-05
0.000125499
0.00311294
-0.000153174
0.000206961
0.00304188
-0.000208154
0.000279216
0.00295597
-0.000255799
0.000341715
0.00285768
-0.000295892
0.000394178
0.00274952
-0.000328367
0.000436526
0.00263395
-0.000353297
0.000468871
0.00251334
-0.0003709
0.000491508
0.00238994
-0.000381524
0.000504918
0.00226585
-0.000385619
0.000509709
0.00214297
-0.000383723
0.000506607
0.00202299
-0.000376439
0.000496417
0.0019074
-0.000364418
0.000480013
0.00179743
-0.000348342
0.000458307
0.00169412
-0.000328901
0.000432216
0.00159825
-0.000306778
0.00040265
0.00151039
-0.000282637
0.000370492
0.00143092
-0.000257118
0.000336588
0.00136001
-0.000230823
0.000301735
0.00129765
-0.000204315
0.000266676
0.00124367
-0.000178108
0.000232089
0.00119775
-0.00015267
0.000198583
0.00115947
-0.000128411
0.000166699
0.00112826
-0.000105687
0.000136896
0.00110348
-8.48016e-05
0.000109574
0.00108442
-6.60021e-05
8.50622e-05
0.00107036
-4.94255e-05
6.34855e-05
0.0010606
-3.50482e-05
4.48163e-05
0.00105433
-2.29553e-05
2.92224e-05
0.00105083
-1.31595e-05
1.6655e-05
0.00104941
-5.53724e-06
6.95965e-06
0.00104941
1.23462e-07
-1.24927e-07
0.00105022
3.57619e-06
-4.38791e-06
0.00105139
5.53957e-06
-6.70228e-06
0.00105249
6.15159e-06
-7.25331e-06
0.00105319
5.63978e-06
-6.34431e-06
0.00105325
4.21294e-06
-4.26663e-06
0.00105244
2.13026e-06
-1.32036e-06
0.00105063
-4.46393e-07
2.2487e-06
0.00104784
-3.40694e-06
6.20156e-06
0.00104399
-6.4393e-06
1.02938e-05
0.00103907
-9.51606e-06
1.44281e-05
0.00103312
-1.25791e-05
1.85322e-05
0.00102614
-1.56076e-05
2.25831e-05
0.00101816
-1.86157e-05
2.66024e-05
0.00100915
-2.16534e-05
3.0659e-05
0.000999092
-2.48021e-05
3.48621e-05
0.000987906
-2.8174e-05
3.93602e-05
0.000975477
-3.19119e-05
4.43412e-05
0.000961634
-3.61916e-05
5.00349e-05
0.000946141
-4.12261e-05
5.67183e-05
0.00092869
-4.72734e-05
6.4725e-05
0.000908879
-5.46466e-05
7.44579e-05
0.000886197
-6.37347e-05
8.6416e-05
0.000860002
-7.50314e-05
0.000101227
0.000829471
-8.91564e-05
0.000119687
0.000793581
-0.000107014
0.000142904
0.00075102
-0.000129419
0.00017198
0.000699987
-0.000158973
0.000210006
0.000638641
-0.000194469
0.000255815
0.000562829
-0.000247674
0.000323486
0.000473612
-0.000297355
0.000386572
0.000357501
-0.000396918
0.000513029
0.000237638
-0.000433689
0.000553552
8.48555e-05
-0.000518259
0.000671041
-0.000352375
0.00043723
-0.00332381
-0.00313604
-0.00294875
-0.0027585
-0.0025669
-0.00236993
-0.00216907
-0.00196149
-0.00174781
-0.00152638
-0.00129726
-0.00105969
-0.000813596
-0.000558832
-0.000295696
-2.47908e-05
0.000252822
0.000535432
0.000820891
0.00110632
0.00138824
0.00166265
0.00192528
0.00217192
0.00239868
0.0026023
0.00278032
0.00293107
0.0030537
0.00314805
0.00321457
0.00325418
0.00326828
0.00325832
0.00322638
0.00317458
0.00310515
0.00302051
0.00292314
0.00281552
0.00270012
0.00257932
0.00245538
0.00233041
0.00220635
0.00208491
0.00196762
0.00185577
0.0017504
0.00165236
0.00156227
0.00148054
0.00140738
0.00134283
0.00128675
0.00123887
0.00119876
0.00116592
0.00113972
0.00111945
0.00110443
0.00109388
0.00108707
0.00108325
0.00108173
0.00108186
0.00108299
0.00108461
0.0010863
0.00108774
0.00108862
0.00108876
0.001088
0.00108622
0.00108345
0.00107965
0.00107484
0.00106903
0.00106224
0.00105444
0.00104561
0.00103566
0.00102448
0.00101189
0.000997634
0.000981392
0.000962733
0.000941104
0.000915802
0.00088592
0.000850293
0.000807434
0.000755203
0.000691516
0.00061135
0.000515459
0.000389083
0.00025455
9.33441e-05
-0.00308525
0.000949656
-0.00111998
-0.00291408
0.000938123
-0.00110928
-0.00274613
0.000934907
-0.00110286
-0.00257279
0.000950449
-0.00112378
-0.00239991
0.000956793
-0.00112968
-0.00222071
0.000983979
-0.00116317
-0.00203871
0.00100324
-0.00118523
-0.00184996
0.00103692
-0.00122567
-0.00165585
0.00106741
-0.00126152
-0.00145437
0.00110614
-0.00130763
-0.00124584
0.00114459
-0.00135312
-0.00102931
0.0011869
-0.00140343
-0.000804812
0.00122954
-0.00145404
-0.000572097
0.00127295
-0.00150567
-0.000331465
0.00131487
-0.0015555
-8.34055e-05
0.00135392
-0.00160198
0.000171182
0.0013874
-0.00164199
0.000430876
0.00141265
-0.00167234
0.000693232
0.00142698
-0.00168934
0.000955466
0.00142684
-0.00168907
0.00121391
0.00140909
-0.00166754
0.0014644
0.0013712
-0.00162169
0.00170249
0.00131183
-0.00154992
0.00192389
0.00123118
-0.00145257
0.00212482
0.00113109
-0.00133202
0.00230235
0.00101474
-0.00119227
0.0024545
0.000886122
-0.00103827
0.0025802
0.00074943
-0.000875135
0.00267918
0.00060864
-0.000707624
0.0027518
0.000467251
-0.000539866
0.00279889
0.000328218
-0.000375307
0.00282166
0.000193946
-0.00021672
0.00282164
6.65924e-05
-6.65733e-05
0.00280062
-5.31313e-05
7.41544e-05
0.00276039
-0.00016253
0.000202765
0.00270314
-0.00026155
0.000318798
0.00263106
-0.000349156
0.00042123
0.00254647
-0.000424709
0.0005093
0.00245171
-0.000487889
0.000582656
0.00234909
-0.000538621
0.000641237
0.0022409
-0.000577062
0.000685251
0.00212932
-0.000603604
0.000715188
0.0020164
-0.000618852
0.000731769
0.00190402
-0.000623564
0.000735947
0.00179383
-0.000618668
0.000728857
0.00168729
-0.000605175
0.000711714
0.00158564
-0.000584175
0.000685828
0.00148988
-0.000556798
0.000652552
0.00140082
-0.000524181
0.000613244
0.00131903
-0.000487443
0.000569233
0.00124489
-0.00044767
0.000521807
0.0011786
-0.0004059
0.000472191
0.00112018
-0.000363107
0.00042153
0.00106949
-0.000320193
0.000370885
0.00102625
-0.000277982
0.000321215
0.000990086
-0.000237209
0.000273378
0.000960486
-0.000198524
0.000228124
0.000936876
-0.000162479
0.000186089
0.00091858
-0.000129559
0.000147856
0.000904876
-0.000100092
0.000113795
0.00089518
-7.42791e-05
8.39751e-05
0.000888673
-5.21101e-05
5.86176e-05
0.000884665
-3.37038e-05
3.77113e-05
0.000882505
-1.8998e-05
2.11587e-05
0.000881558
-7.77998e-06
8.72695e-06
0.000881193
2.8107e-07
8.41125e-08
0.000881093
4.92615e-06
-4.82657e-06
0.00088079
7.25458e-06
-6.95126e-06
0.000879962
7.48593e-06
-6.65834e-06
0.000878312
5.98813e-06
-4.33796e-06
0.000875768
3.08055e-06
-5.37093e-07
0.000872045
-7.52328e-07
4.47599e-06
0.000867304
-5.40216e-06
1.0143e-05
0.000861444
-1.0371e-05
1.62308e-05
0.00085447
-1.55024e-05
2.24764e-05
0.000846411
-2.06611e-05
2.87205e-05
0.000837301
-2.57656e-05
3.48755e-05
0.00082717
-3.07943e-05
4.0925e-05
0.000816035
-3.57799e-05
4.6915e-05
0.000803889
-4.08127e-05
5.29587e-05
0.000790697
-4.60306e-05
5.92225e-05
0.00077639
-5.16179e-05
6.59252e-05
0.000760858
-5.78055e-05
7.33374e-05
0.000743947
-6.48733e-05
8.17844e-05
0.000725451
-7.31559e-05
9.16512e-05
0.000705111
-8.30545e-05
0.000103395
0.000682603
-9.50498e-05
0.000117558
0.00065753
-0.000109735
0.000134808
0.000629417
-0.00012785
0.000155963
0.000597679
-0.000150345
0.000182082
0.000561666
-0.000178466
0.000214479
0.000520475
-0.000213681
0.000254872
0.000473434
-0.000259066
0.000306107
0.000418902
-0.000314428
0.00036896
0.000356689
-0.000393229
0.000455442
0.000285615
-0.000468795
0.000539869
0.000204877
-0.000613039
0.000693776
0.000125838
-0.000652796
0.000731835
1.78527e-05
-0.000793749
0.000901735
-0.000463267
0.00048112
-0.00307809
-0.00290585
-0.00273599
-0.0025615
-0.00238703
-0.00220656
-0.00202312
-0.00183301
-0.00163749
-0.0014346
-0.00122466
-0.00100675
-0.000780897
-0.000546882
-0.000305022
-5.58625e-05
0.00019984
0.000460381
0.000723533
0.000986565
0.00124596
0.00149774
0.00173763
0.00196149
0.0021656
0.00234698
0.00250352
0.00263398
0.00273787
0.00281538
0.00286719
0.0028944
0.00289855
0.00288098
0.00284395
0.00278936
0.00271942
0.00263643
0.00254272
0.00244062
0.00233243
0.00222034
0.0021064
0.00199255
0.00188049
0.00177173
0.00166757
0.00156908
0.00147711
0.00139232
0.00131514
0.00124583
0.00118446
0.00113094
0.00108505
0.00104642
0.00101459
0.000989011
0.000969026
0.000953997
0.000943203
0.000935909
0.000931428
0.000929085
0.000928265
0.000928421
0.000928959
0.000929511
0.000929744
0.000929388
0.000928202
0.000926129
0.000922975
0.000918806
0.000913597
0.000907364
0.000900131
0.00089192
0.000882742
0.000872589
0.00086142
0.000849163
0.000835698
0.00082086
0.000804422
0.000786093
0.000765501
0.000742181
0.000715557
0.0006849
0.000649339
0.000607638
0.000558578
0.000499964
0.000430221
0.000347999
0.000247989
0.000148745
2.60369e-05
-0.00271161
0.00126767
-0.00141416
-0.00256303
0.00126039
-0.00140897
-0.0024178
0.00124861
-0.00139384
-0.00226741
0.00127625
-0.00142664
-0.00211725
0.00128054
-0.0014307
-0.00196154
0.00132055
-0.00147625
-0.00180316
0.00134458
-0.00150296
-0.00163885
0.00139141
-0.00155572
-0.00146975
0.00143179
-0.00160088
-0.00129411
0.00148462
-0.00166026
-0.00111218
0.00153632
-0.00171825
-0.000923083
0.00159382
-0.00178292
-0.000726854
0.00165152
-0.00184775
-0.000523275
0.00171049
-0.00191407
-0.000312623
0.00176736
-0.00197801
-9.54052e-05
0.00182033
-0.00203755
0.000127829
0.00186636
-0.0020896
0.000355873
0.0019012
-0.00212925
0.000586023
0.00192033
-0.00215048
0.000815544
0.00191956
-0.00214908
0.00104079
0.00189404
-0.00211928
0.00125758
0.00184026
-0.00205706
0.00146155
0.00175638
-0.00196035
0.00164862
0.00164297
-0.00183004
0.00181543
0.00150303
-0.00166984
0.00195965
0.00134142
-0.00148564
0.00207999
0.00116406
-0.00128439
0.00217604
0.000976918
-0.00107298
0.00224812
0.000785466
-0.000857546
0.00229702
0.00059436
-0.000643259
0.00232386
0.000407427
-0.000434267
0.00233002
0.000227752
-0.000233915
0.00231729
5.80393e-05
-4.53058e-05
0.00228674
-0.000100738
0.000131283
0.00224087
-0.000245461
0.000291338
0.00218138
-0.000375698
0.000435187
0.00211031
-0.000490313
0.000561377
0.00202977
-0.000588474
0.00066902
0.00194184
-0.000669815
0.000757745
0.00184859
-0.000734303
0.000827555
0.001752
-0.00078221
0.000878802
0.00165392
-0.000814102
0.000912175
0.00155608
-0.000830841
0.000928686
0.00146004
-0.000833608
0.000929645
0.00136719
-0.000823727
0.000916574
0.00127865
-0.000802602
0.000891141
0.00119533
-0.000771752
0.000855072
0.00111794
-0.000732732
0.000810128
0.00104698
-0.000687096
0.000758053
0.000982798
-0.000636361
0.000700545
0.000925552
-0.000581989
0.000639235
0.000875253
-0.000525363
0.000575662
0.00083177
-0.000467777
0.000511259
0.000794849
-0.000410419
0.00044734
0.000764128
-0.000354364
0.000385085
0.000739149
-0.000300565
0.000325544
0.000719377
-0.000249855
0.000269628
0.000704209
-0.000202936
0.000218104
0.000693034
-0.000160433
0.000171608
0.000685242
-0.00012278
0.000130572
0.000680013
-9.00274e-05
9.52562e-05
0.000676703
-6.2398e-05
6.57077e-05
0.000674745
-3.98247e-05
4.17829e-05
0.000673572
-2.21881e-05
2.33612e-05
0.000672668
-9.22258e-06
1.01261e-05
0.000671402
-4.26251e-07
1.69278e-06
0.000669739
4.16591e-06
-2.50268e-06
0.000667206
5.71309e-06
-3.18081e-06
0.000663652
4.60344e-06
-1.04938e-06
0.000658764
1.36261e-06
3.52612e-06
0.000652706
-3.63112e-06
9.68918e-06
0.000645401
-9.7016e-06
1.70059e-05
0.000636845
-1.65001e-05
2.50566e-05
0.000627078
-2.36933e-05
3.34596e-05
0.000616157
-3.10054e-05
4.19273e-05
0.000604139
-3.82706e-05
5.02885e-05
0.000591077
-4.54039e-05
5.84656e-05
0.000577009
-5.24002e-05
6.64686e-05
0.00056195
-5.93241e-05
7.43826e-05
0.00054589
-6.6315e-05
8.23747e-05
0.000528789
-7.35684e-05
9.06693e-05
0.000510576
-8.1337e-05
9.95507e-05
0.000491144
-8.99284e-05
0.00010936
0.000470354
-9.97082e-05
0.000120498
0.000448034
-0.000111104
0.000133424
0.000423978
-0.000124619
0.000148675
0.000397952
-0.000140844
0.00016687
0.000369697
-0.0001605
0.000188755
0.000338934
-0.000184463
0.000215226
0.000305386
-0.000213856
0.000247405
0.000268822
-0.000250026
0.000286589
0.000228927
-0.000294833
0.000334728
0.000186214
-0.000350754
0.000393466
0.000139779
-0.000419619
0.000466054
9.48556e-05
-0.000509784
0.000554708
4.62277e-05
-0.000601737
0.000650365
1.72732e-05
-0.0007505
0.000779454
-1.46197e-05
-0.000790572
0.000822465
-2.50862e-05
-0.000957286
0.000967753
-0.000437842
0.000412756
-0.00270885
-0.00255774
-0.00241199
-0.00225953
-0.00210866
-0.00195129
-0.00179195
-0.00162621
-0.00145594
-0.00127895
-0.00109575
-0.000905355
-0.000707867
-0.000503044
-0.000291191
-7.28421e-05
0.000151533
0.000380391
0.000611384
0.000841875
0.00106838
0.00128695
0.00149341
0.00168381
0.00185482
0.00200396
0.00212975
0.00223153
0.00230938
0.00236387
0.00239599
0.00240702
0.00239849
0.0023719
0.00232921
0.00227231
0.00220323
0.00212405
0.00203689
0.00194383
0.00184687
0.00174795
0.00164888
0.00155122
0.00145635
0.00136546
0.00127954
0.00119936
0.0011255
0.00105838
0.000998194
0.000945021
0.000898775
0.00085924
0.000826091
0.000798904
0.000777172
0.000760325
0.000747747
0.000738762
0.00073271
0.00072893
0.000726816
0.000725787
0.000725291
0.000724949
0.000724289
0.00072305
0.000720995
0.00071802
0.000713852
0.000708626
0.000702269
0.000694807
0.000686278
0.000676728
0.000666199
0.000654724
0.000642315
0.000628959
0.000614613
0.000599201
0.00058261
0.000564686
0.000545233
0.000524009
0.000500723
0.000475031
0.000446532
0.000414758
0.000379212
0.00033925
0.000294604
0.000243945
0.000189602
0.000127734
7.10109e-05
1.22732e-05
-4.32783e-05
-0.000887671
0.0105348
-0.0103043
-0.0011188
0.0105258
-0.0102947
-0.00135078
0.0105127
-0.0102807
-0.00158402
0.0105031
-0.0102699
-0.00181863
0.0104989
-0.0102643
-0.00205502
0.010501
-0.0102646
-0.00229363
0.0105106
-0.010272
-0.00253507
0.0105293
-0.0102879
-0.00278009
0.0105592
-0.0103142
-0.00302934
0.0106023
-0.0103531
-0.00328188
0.010658
-0.0104055
-0.00352964
0.0107153
-0.0104675
-0.0037432
0.01073
-0.0105164
-0.00384453
0.0105783
-0.010477
-0.00368355
0.0100049
-0.0101659
-0.00307766
0.00863984
-0.00924574
-0.00198683
0.0061533
-0.00724413
-0.000772706
0.00279768
-0.0040118
-0.000100277
0.000218963
-0.000891393
-0.000521475
0.000421198
-0.000893467
0.010764
-0.00112585
0.0107582
-0.00135804
0.0107449
-0.00159202
0.0107371
-0.00182718
0.0107341
-0.00206421
0.010738
-0.00230338
0.0107498
-0.00254523
0.0107712
-0.00279001
0.010804
-0.0030366
0.0108489
-0.00327902
0.0109004
-0.00349755
0.0109338
-0.00364278
0.0108752
-0.00361893
0.0105544
-0.00328727
0.00967329
-0.00253831
0.00789088
-0.00144815
0.00506315
-0.000479782
0.00182931
-3.54087e-05
-0.00022541
-0.000556884
-0.000916952
0.0101207
-0.00993642
-0.00110152
0.0101108
-0.00992626
-0.00128722
0.0100954
-0.00990972
-0.00147433
0.0100833
-0.00989621
-0.00166307
0.0100761
-0.00988736
-0.00185376
0.0100745
-0.00988384
-0.00204681
0.0100797
-0.00988667
-0.00224276
0.010093
-0.00989709
-0.00244232
0.0101163
-0.00991676
-0.00264637
0.0101521
-0.00994803
-0.00285533
0.0102026
-0.00999366
-0.00306704
0.0102678
-0.0100561
-0.00327066
0.0103355
-0.0101319
-0.00343057
0.0103588
-0.0101989
-0.003464
0.0102105
-0.0101771
-0.00322299
0.00961631
-0.00985731
-0.00252603
0.00808185
-0.00877881
-0.00131519
0.00518713
-0.00639797
-0.000272574
0.00166969
-0.00271231
-0.000280896
8.32224e-06
-0.000925235
-0.00110911
-0.0012944
-0.00148097
-0.00166918
-0.00185924
-0.00205151
-0.00224637
-0.00244424
-0.00264522
-0.00284808
-0.00304776
-0.00322869
-0.00334679
-0.00330222
-0.00293165
-0.00209393
-0.000918602
-0.000140302
-0.000905047
0.00980531
-0.00967311
-0.00103774
0.0097948
-0.00966211
-0.00117172
0.00977678
-0.0096428
-0.00130742
0.00976184
-0.00962614
-0.00144501
0.00975108
-0.00961349
-0.00158484
0.00974551
-0.00960568
-0.0017273
0.00974594
-0.00960347
-0.00187288
0.0097536
-0.00960802
-0.00202223
0.00977008
-0.00962074
-0.00217611
0.00979769
-0.00964381
-0.00233522
0.00983928
-0.00968017
-0.00249949
0.0098978
-0.00973353
-0.00266629
0.00997253
-0.00980572
-0.00282429
0.0100549
-0.00989693
-0.00294158
0.0100969
-0.00997964
-0.00292668
0.00995551
-0.00997041
-0.00260368
0.00923739
-0.00956039
-0.00175787
0.00734694
-0.00819274
-0.000571931
0.00373161
-0.00491755
0.000332752
-0.000904683
-0.000915305
-0.00104676
-0.00117971
-0.00131408
-0.00145035
-0.00158868
-0.00172942
-0.0018729
-0.00201958
-0.00216992
-0.0023243
-0.00248263
-0.00264197
-0.00278599
-0.00286612
-0.00276793
-0.00230935
-0.00136038
-0.000341074
-0.000853851
0.00959812
-0.00952151
-0.000931417
0.0095863
-0.00950873
-0.00101064
0.00956525
-0.00948603
-0.00109172
0.00954704
-0.00946596
-0.00117515
0.00953212
-0.00944869
-0.00126122
0.00952193
-0.00943585
-0.00135036
0.00951696
-0.00942782
-0.00144303
0.00951841
-0.00942575
-0.00153986
0.00952755
-0.00943072
-0.00164165
0.00954643
-0.00944463
-0.00174933
0.00957776
-0.00947008
-0.00186354
0.00962533
-0.00951112
-0.00198499
0.00969125
-0.0095698
-0.00211146
0.00977999
-0.00965352
-0.00223655
0.00987452
-0.00974943
-0.00231567
0.00993677
-0.00985765
-0.00224802
0.00971945
-0.0097871
-0.00179557
0.00874035
-0.0091928
-0.000836354
0.00584801
-0.00680723
0.00147831
-0.00231466
-0.000865677
-0.000941487
-0.00101903
-0.00109813
-0.0011795
-0.00126326
-0.00134977
-0.00143938
-0.00153257
-0.00162996
-0.00173236
-0.00184056
-0.00195504
-0.00207199
-0.00217711
-0.00221075
-0.00205169
-0.00150408
-0.000573624
-0.000767511
0.009504
-0.00948441
-0.000788752
0.0094897
-0.00946846
-0.000812155
0.00946499
-0.00944159
-0.000837953
0.00944266
-0.00941687
-0.000866484
0.00942299
-0.00939445
-0.000898145
0.00940729
-0.00937563
-0.000933413
0.00939603
-0.00936076
-0.000972825
0.00939035
-0.00935094
-0.00101704
0.00939117
-0.00934696
-0.00106698
0.00940019
-0.00935025
-0.00112386
0.00941986
-0.00936297
-0.00118883
0.00945406
-0.0093891
-0.00126381
0.00950483
-0.00942984
-0.00134942
0.00957987
-0.00949426
-0.00144805
0.00966918
-0.00957055
-0.00154564
0.0097871
-0.00968951
-0.0016059
0.00978054
-0.00972028
-0.0014483
0.00941952
-0.00957712
-0.000855454
0.00739797
-0.00799081
0.00294947
-0.00380493
-0.000780188
-0.000799223
-0.000820257
-0.000843555
-0.000869261
-0.000897829
-0.000929618
-0.000965021
-0.00100456
-0.00104901
-0.00109924
-0.00115629
-0.00122127
-0.00129491
-0.00137516
-0.00144572
-0.00145227
-0.00122555
-0.00063481
-0.000652308
0.00952386
-0.00956099
-0.000617816
0.00950543
-0.00953993
-0.000585621
0.00947663
-0.00950883
-0.000556464
0.00944887
-0.00947803
-0.000530403
0.00942382
-0.00944988
-0.000508118
0.00940152
-0.0094238
-0.000490275
0.0093829
-0.00940074
-0.000477037
0.00936892
-0.00938215
-0.00046936
0.00936018
-0.00936786
-0.000468595
0.00935771
-0.00935847
-0.000475963
0.00936383
-0.00935646
-0.000493251
0.00938162
-0.00936434
-0.000522282
0.00941341
-0.00938437
-0.00056745
0.00946397
-0.00941881
-0.000630475
0.00952831
-0.00946528
-0.000721535
0.00962285
-0.00953179
-0.000821113
0.00965981
-0.00956023
-0.000864079
0.00958113
-0.00953817
-0.000623241
0.00822549
-0.00846633
0.00423366
-0.0048569
-0.000664788
-0.000627812
-0.000592768
-0.000560761
-0.000531397
-0.000505504
-0.000483362
-0.000465381
-0.000452159
-0.000444699
-0.000443846
-0.000451325
-0.000467761
-0.000498048
-0.000540294
-0.000606954
-0.000667426
-0.000663418
-0.000428737
-0.00051622
0.00965523
-0.00974699
-0.000428483
0.00963048
-0.00971821
-0.000343042
0.00959776
-0.0096832
-0.000260973
0.0095634
-0.00964547
-0.000181631
0.00953261
-0.00961195
-0.000106396
0.00950269
-0.00957792
-3.57604e-05
0.0094756
-0.00954624
2.87389e-05
0.00945083
-0.00951533
8.5534e-05
0.00943032
-0.00948711
0.000134598
0.00941411
-0.00946317
0.000174329
0.00940426
-0.00944399
0.000202467
0.00940242
-0.00943056
0.000216403
0.00941158
-0.00942551
0.000210693
0.00942934
-0.00942363
0.000181714
0.00945947
-0.00943049
0.000109721
0.00948508
-0.00941309
1.2031e-05
0.00949231
-0.00939462
-0.000179336
0.00938594
-0.00919457
-0.000198922
0.00844003
-0.00842044
0.00487138
-0.0050703
-0.000527205
-0.000436655
-0.000347729
-0.00026236
-0.000179633
-0.000100749
-2.58909e-05
4.27848e-05
0.000105244
0.000160879
0.000208676
0.000246765
0.000273968
0.000284503
0.00027869
0.000231984
0.000164058
1.18277e-05
-1.44764e-05
-0.000369084
0.00989216
-0.0100316
-0.000232396
0.00985748
-0.00999417
-9.60127e-05
0.00982253
-0.00995892
3.49529e-05
0.00977995
-0.00991091
0.000159578
0.00974156
-0.00986618
0.000279241
0.00970321
-0.00982287
0.000392879
0.00966641
-0.00978005
0.000499984
0.0096302
-0.00973731
0.000599562
0.00959583
-0.00969541
0.000690079
0.00956432
-0.00965484
0.000769883
0.00953622
-0.00961603
0.000836665
0.00951191
-0.0095787
0.000886732
0.0094926
-0.00954266
0.000914385
0.00947149
-0.00949914
0.000909279
0.00944879
-0.00944368
0.00085374
0.00938585
-0.00933031
0.000720269
0.00929542
-0.00916195
0.000449327
0.00895707
-0.00868613
0.000128583
0.00813477
-0.00781403
0.00467631
-0.00454773
-0.000376123
-0.000236854
-9.75193e-05
3.69601e-05
0.00016657
0.000291858
0.000412027
0.000526902
0.00063562
0.000736771
0.000829004
0.000910356
0.000977438
0.00102529
0.00104359
0.00101635
0.000917154
0.000679656
0.000393989
0.00378759
3.71228e-06
-2.88451e-06
0.00378837
-1.03522e-07
-6.77268e-07
0.0037858
1.25242e-05
-9.95858e-06
0.0037857
1.00707e-05
-9.96692e-06
0.00378171
2.05194e-05
-1.65327e-05
0.00377957
2.95294e-05
-2.73869e-05
0.00377283
3.63645e-05
-2.96236e-05
0.00376628
6.8272e-05
-6.17205e-05
0.00375409
6.87519e-05
-5.65651e-05
0.00373805
0.000146623
-0.000130587
0.00371439
0.000138146
-0.00011448
0.00367785
0.000309029
-0.000272496
0.00362826
0.000293994
-0.000244403
0.00354539
0.000666612
-0.000583738
0.00343069
0.000675081
-0.000560382
0.00323126
0.00155571
-0.00135628
0.00292082
0.00177904
-0.0014686
0.00236621
0.00431923
-0.00376462
0.00136251
0.00607821
-0.0050745
0.0153556
-0.0139931
0.0037876
4.52391e-06
0.00378829
-7.96242e-07
0.00378585
1.49737e-05
0.00378565
1.02705e-05
0.00378175
2.44157e-05
0.00377953
3.1748e-05
0.0037728
4.30963e-05
0.0037662
7.48692e-05
0.00375379
8.11607e-05
0.00373777
0.000162648
0.00371326
0.000162656
0.00367684
0.00034545
0.00362477
0.000346058
0.00354225
0.000749134
0.00342081
0.000796525
0.00322307
0.00175345
0.00289588
0.00210623
0.00235797
0.00485713
0.00135191
0.00708427
0.0167075
0.00432155
2.1443e-06
-1.52666e-06
0.00432178
1.14026e-06
-1.36824e-06
0.00431977
7.64836e-06
-5.64028e-06
0.0043187
9.24435e-06
-8.16926e-06
0.00431548
1.28816e-05
-9.66321e-06
0.00431181
2.42079e-05
-2.05397e-05
0.00430622
2.33658e-05
-1.77737e-05
0.0042973
5.34644e-05
-4.45444e-05
0.0042869
4.51008e-05
-3.46987e-05
0.00426723
0.000111789
-9.21265e-05
0.00424654
9.19796e-05
-7.1282e-05
0.00420448
0.000231529
-0.00018947
0.00416048
0.000197053
-0.000153054
0.00406909
0.000493816
-0.000402432
0.00396719
0.00045142
-0.000349517
0.00375362