/*--------------------------------*- C++ -*----------------------------------*\
  =========                 |
  \\      /  F ield         | OpenFOAM: The Open Source CFD Toolbox
   \\    /   O peration     | Website:  https://openfoam.org
    \\  /    A nd           | Version:  7
     \\/     M anipulation  |
\*---------------------------------------------------------------------------*/
FoamFile
{
    version     2.0;
    format      ascii;
    class       volScalarField;
    location    "104";
    object      p;
}
// * * * * * * * * * * * * * * * * * * * * * * * * * * * * * * * * * * * * * //

dimensions      [0 2 -2 0 0 0 0];

internalField   nonuniform List<scalar> 
125
(
-0.0504988
-0.0516783
-0.0528529
-0.0540146
-0.0551537
-0.0562581
-0.0573136
-0.0583029
-0.0592055
-0.0599974
-0.0606501
-0.0439526
-0.0450457
-0.0461604
-0.0472951
-0.0484475
-0.0496152
-0.0507946
-0.0519813
-0.05317
-0.0543535
-0.0555233
-0.0566687
-0.0577765
-0.058831
-0.0598131
-0.0607001
-0.0614653
-0.0442656
-0.0453501
-0.0464575
-0.0475867
-0.0487363
-0.0499044
-0.0510882
-0.0522844
-0.0534886
-0.054695
-0.0558964
-0.0570836
-0.0582453
-0.0593675
-0.0604333
-0.0614219
-0.0623087
-0.0445491
-0.0456312
-0.0467374
-0.0478667
-0.0490181
-0.0501904
-0.0513816
-0.0525892
-0.0538097
-0.0550387
-0.0562704
-0.0574974
-0.0587103
-0.0598974
-0.0610443
-0.0621329
-0.0631418
-0.0448048
-0.04589
-0.0469999
-0.048134
-0.0492917
-0.050472
-0.0516737
-0.0528948
-0.0541327
-0.0553841
-0.0566445
-0.0579079
-0.0591669
-0.0604121
-0.0616316
-0.0628107
-0.0639314
-0.045034
-0.0461257
-0.0472429
-0.0483852
-0.0495523
-0.0507436
-0.0519581
-0.0531945
-0.0544508
-0.0557246
-0.0570122
-0.058309
-0.0596091
-0.0609049
-0.0621869
-0.0634431
-0.064659
-0.0452372
-0.0463374
-0.0474636
-0.0486159
-0.049794
-0.0509976
-0.052226
-0.0534782
-0.0547529
-0.0560481
-0.0573609
-0.0586877
-0.0600238
-0.061363
-0.0626975
-0.0640178
-0.0653117
-0.0454149
-0.0465238
-0.0476596
-0.0488221
-0.0500114
-0.0512272
-0.0524691
-0.0537363
-0.0550279
-0.0563422
-0.057677
-0.0590294
)
;

boundaryField
{
    inlet
    {
        type            zeroGradient;
    }
    outlet
    {
        type            fixedValue;
        value           nonuniform 0();
    }
    polygon
    {
        type            zeroGradient;
    }
    top
    {
        type            symmetryPlane;
    }
    bottom
    {
        type            symmetryPlane;
    }
    outside
    {
        type            slip;
    }
    procBoundary51to43
    {
        type            processor;
        value           nonuniform List<scalar> 
18
(
-0.0603954
-0.06177
-0.0631468
-0.0645177
-0.0658728
-0.0455678
-0.0466849
-0.0478294
-0.0490013
-0.0502007
-0.0514274
-0.0526812
-0.0539614
-0.0552673
-0.0565975
-0.0579501
-0.0603954
-0.0593228
)
;
    }
    procBoundary51to50
    {
        type            processor;
        value           nonuniform List<scalar> 6(-0.062077 -0.0630644 -0.0640446 -0.0649715 -0.0658163 -0.0665645);
    }
    procBoundary51to52
    {
        type            processor;
        value           nonuniform List<scalar> 7(-0.0428822 -0.043205 -0.0434914 -0.0437446 -0.0439678 -0.0441632 -0.0443327);
    }
    procBoundary51to58
    {
        type            processor;
        value           uniform -0.0611308;
    }
    procBoundary51to59
    {
        type            processor;
        value           nonuniform List<scalar> 
18
(
-0.0502002
-0.0513755
-0.0525389
-0.0536819
-0.0547936
-0.0558614
-0.0568699
-0.0578009
-0.058633
-0.0593411
-0.0598958
-0.0436072
-0.0447162
-0.0458445
-0.04699
-0.04815
-0.049321
-0.049321
)
;
    }
}


// ************************************************************************* //
