/*--------------------------------*- C++ -*----------------------------------*\
  =========                 |
  \\      /  F ield         | OpenFOAM: The Open Source CFD Toolbox
   \\    /   O peration     | Website:  https://openfoam.org
    \\  /    A nd           | Version:  7
     \\/     M anipulation  |
\*---------------------------------------------------------------------------*/
FoamFile
{
    version     2.0;
    format      ascii;
    class       volVectorField;
    location    "96";
    object      U;
}
// * * * * * * * * * * * * * * * * * * * * * * * * * * * * * * * * * * * * * //

dimensions      [0 1 -1 0 0 0 0];

internalField   nonuniform List<vector> 
7360
(
(-0.315724 -1.99733e-05 5.33125e-20)
(-0.315804 -8.57863e-05 1.77832e-19)
(-0.316027 -0.000188869 2.31301e-19)
(-0.316431 -0.000275605 1.01427e-18)
(-0.316951 -0.000327957 -4.20859e-19)
(-0.317522 -0.000339887 9.79634e-19)
(-0.318077 -0.000311436 8.04094e-19)
(-0.318553 -0.000247258 -6.65518e-19)
(-0.318901 -0.000153801 1.76574e-18)
(-0.319079 -3.75893e-05 2.67837e-18)
(-0.319058 9.35196e-05 3.10393e-19)
(-0.318817 0.000236531 1.97902e-18)
(-0.31834 0.000386028 2.14767e-18)
(-0.317622 0.000538231 2.89035e-18)
(-0.316663 0.000690162 5.49927e-19)
(-0.315466 0.00083938 2.92079e-18)
(-0.314038 0.000983927 6.87366e-18)
(-0.312387 0.00112225 -1.37442e-18)
(-0.310527 0.0012531 4.48708e-18)
(-0.308469 0.00137548 8.37367e-18)
(-0.306228 0.00148856 -8.94927e-19)
(-0.303821 0.00159166 5.83213e-19)
(-0.301264 0.00168419 5.96261e-18)
(-0.298574 0.00176561 -1.52316e-18)
(-0.29577 0.00183551 1.61945e-18)
(-0.292868 0.00189352 6.86468e-18)
(-0.28989 0.00193937 1.05558e-18)
(-0.286853 0.0019729 5.58931e-18)
(-0.283776 0.00199406 1.06528e-17)
(-0.280679 0.00200295 -5.2175e-19)
(-0.27758 0.00199981 3.16784e-18)
(-0.274496 0.00198502 2.1644e-18)
(-0.271445 0.0019591 -7.5229e-19)
(-0.268443 0.00192271 4.27237e-18)
(-0.265505 0.0018766 1.18835e-18)
(-0.262644 0.00182163 2.23357e-19)
(-0.259874 0.00175872 3.30162e-18)
(-0.257205 0.00168884 1.10237e-18)
(-0.254646 0.00161299 4.0306e-18)
(-0.252205 0.00153217 1.91317e-18)
(-0.24989 0.00144739 2.02121e-18)
(-0.247704 0.00135961 9.66194e-18)
(-0.245652 0.00126978 3.81895e-18)
(-0.243735 0.0011788 1.84949e-18)
(-0.241955 0.00108752 2.61301e-19)
(-0.240312 0.000996736 -3.94254e-18)
(-0.238805 0.000907179 7.52023e-18)
(-0.23743 0.000819526 3.6838e-19)
(-0.236185 0.000734384 -2.66064e-18)
(-0.235066 0.000652295 9.48821e-18)
(-0.234069 0.000573733 3.76842e-18)
(-0.233188 0.000499105 -2.22827e-18)
(-0.232418 0.000428754 -7.31874e-19)
(-0.231752 0.000362962 3.2845e-18)
(-0.231184 0.00030195 4.34296e-19)
(-0.230707 0.000245883 2.41178e-18)
(-0.230314 0.00019488 1.50433e-18)
(-0.229998 0.000149014 7.70278e-18)
(-0.229753 0.000108326 4.46768e-18)
(-0.22957 7.2832e-05 9.37189e-19)
(-0.229442 4.25027e-05 7.11588e-18)
(-0.229363 1.72373e-05 8.23712e-18)
(-0.229325 -4.8842e-06 3.52153e-18)
(-0.22932 -2.4415e-05 -1.72391e-19)
(-0.229341 -3.62261e-05 -3.96486e-18)
(-0.22938 -4.28621e-05 -6.78207e-18)
(-0.22943 -4.51089e-05 -8.13748e-19)
(-0.229484 -4.2932e-05 1.46353e-18)
(-0.229532 -3.60204e-05 2.8142e-18)
(-0.229566 -2.23768e-05 -8.9436e-19)
(-0.22958 -9.63049e-07 -5.54432e-18)
(-0.229563 2.33356e-05 -4.01261e-18)
(-0.229503 5.19338e-05 -2.13507e-18)
(-0.22939 8.72375e-05 -6.9109e-18)
(-0.229212 0.000130347 1.92406e-18)
(-0.228955 0.00018238 -8.38594e-19)
(-0.228604 0.000244545 -3.98338e-18)
(-0.22814 0.00031843 -4.01832e-19)
(-0.227543 0.000406023 9.18766e-19)
(-0.226789 0.000509742 -2.15601e-18)
(-0.225851 0.000632564 -9.61485e-19)
(-0.224696 0.000778172 6.88239e-19)
(-0.223285 0.00095113 -1.11894e-17)
(-0.221573 0.00115716 -5.36933e-18)
(-0.219503 0.00140347 -5.35169e-18)
(-0.217008 0.0016993 1.17698e-18)
(-0.214003 0.00205656 -1.63962e-18)
(-0.210391 0.00249082 8.57325e-18)
(-0.206027 0.00302317 1.2432e-17)
(-0.200782 0.00368015 3.75274e-19)
(-0.194364 0.00450547 2.19759e-17)
(-0.186686 0.00553072 5.93288e-18)
(-0.176972 0.00689344 8.72114e-18)
(-0.165656 0.00849447 6.19261e-18)
(-0.150241 0.0109437 -3.43081e-18)
(-0.133278 0.0131965 -1.40436e-19)
(-0.108493 0.0177805 1.03877e-17)
(-0.0813507 0.0197711 -1.06617e-17)
(-0.0465204 0.0235475 1.49274e-17)
(-0.0106307 0.0173657 -3.70855e-19)
(-0.318912 -6.40829e-06 -4.11202e-20)
(-0.318977 -2.8779e-05 8.25546e-20)
(-0.319176 -6.36081e-05 -2.39022e-19)
(-0.319542 -9.35436e-05 -7.00859e-20)
(-0.32002 -0.000112338 3.83498e-20)
(-0.320546 -0.00011781 -9.75098e-19)
(-0.321056 -0.000109827 5.50657e-19)
(-0.321489 -8.98314e-05 -1.4262e-19)
(-0.321795 -5.98713e-05 1.34107e-18)
(-0.321933 -2.19978e-05 -1.89394e-19)
(-0.321874 2.06294e-05 2.1114e-19)
(-0.321595 6.74964e-05 -4.77258e-19)
(-0.321079 0.00011678 -4.05209e-19)
(-0.320324 0.000167207 -3.15037e-19)
(-0.319326 0.000217788 -1.31362e-18)
(-0.31809 0.000267723 -1.19268e-18)
(-0.316622 0.00031637 -1.1753e-18)
(-0.314931 0.000363218 -3.84542e-18)
(-0.313029 0.00040785 3.59034e-18)
(-0.31093 0.000449922 4.48837e-18)
(-0.308647 0.000489134 -1.36754e-18)
(-0.306198 0.00052522 1.34665e-18)
(-0.303598 0.000557939 1.49327e-18)
(-0.300865 0.000587067 1.02961e-18)
(-0.298017 0.000612401 -3.83154e-18)
(-0.295074 0.000633762 6.91728e-18)
(-0.292053 0.000651 5.15761e-18)
(-0.288974 0.000664002 4.9069e-18)
(-0.285856 0.000672699 5.26983e-18)
(-0.282719 0.000677077 8.94717e-19)
(-0.27958 0.000677174 -5.9662e-19)
(-0.276458 0.000673083 -4.32471e-18)
(-0.27337 0.000664954 -1.55568e-18)
(-0.270332 0.000652987 4.07415e-18)
(-0.267359 0.000637425 7.11986e-18)
(-0.264466 0.000618551 -3.97846e-19)
(-0.261665 0.000596679 1.36963e-18)
(-0.258967 0.000572145 -1.33722e-18)
(-0.256381 0.000545302 -1.94783e-18)
(-0.253915 0.000516512 3.58656e-19)
(-0.251576 0.000486139 3.36998e-18)
(-0.24937 0.000454547 6.18706e-18)
(-0.2473 0.00042209 6.94668e-18)
(-0.245368 0.000389113 -1.46085e-19)
(-0.243575 0.000355937 6.30666e-20)
(-0.241922 0.000322883 -5.41433e-18)
(-0.240406 0.000290245 4.03187e-18)
(-0.239027 0.000258297 -2.04688e-18)
(-0.23778 0.000227288 -1.43077e-18)
(-0.236663 0.000197445 2.93883e-18)
(-0.23567 0.000168965 1.05197e-18)
(-0.234796 0.000142026 -2.74176e-18)
(-0.234036 0.000116774 -6.15414e-18)
(-0.233384 9.33322e-05 6.52727e-18)
(-0.232832 7.1798e-05 7.16411e-18)
(-0.232375 5.22437e-05 6.6442e-18)
(-0.232005 3.47191e-05 1.92558e-18)
(-0.231715 1.92537e-05 9.13804e-18)
(-0.231499 5.8608e-06 -4.2049e-18)
(-0.231348 -5.46347e-06 -4.96893e-18)
(-0.231256 -1.47525e-05 6.24242e-18)
(-0.231215 -2.20314e-05 1.18264e-17)
(-0.231219 -2.8133e-05 4.569e-18)
(-0.231259 -3.17293e-05 -7.43495e-18)
(-0.231328 -3.4515e-05 -4.42972e-18)
(-0.231419 -3.59794e-05 -4.12494e-18)
(-0.231523 -3.55124e-05 -1.03434e-17)
(-0.231633 -3.30963e-05 3.76783e-18)
(-0.231742 -2.90902e-05 2.13545e-18)
(-0.23184 -2.409e-05 5.6638e-19)
(-0.23192 -1.82732e-05 -6.92079e-19)
(-0.231971 -1.03303e-05 -7.41479e-18)
(-0.231984 -9.26107e-07 -1.83104e-18)
(-0.231945 1.05328e-05 -1.68524e-18)
(-0.231844 2.34526e-05 -5.90684e-18)
(-0.231667 3.90468e-05 -6.95684e-18)
(-0.231397 5.78403e-05 -9.09067e-18)
(-0.231017 8.03748e-05 -9.04323e-19)
(-0.230505 0.000107358 1.31483e-18)
(-0.229839 0.000139672 -2.29905e-19)
(-0.228989 0.000178407 -2.87213e-19)
(-0.227922 0.000224906 8.70786e-18)
(-0.226599 0.000280823 -9.54118e-19)
(-0.224973 0.000348209 -9.19706e-18)
(-0.222986 0.000429624 -4.06408e-18)
(-0.22057 0.000528294 7.98792e-18)
(-0.217636 0.000648402 1.49778e-18)
(-0.214083 0.000795301 7.01826e-18)
(-0.209764 0.000976299 7.98297e-18)
(-0.204541 0.00120023 1.58256e-18)
(-0.198113 0.00148237 7.74521e-18)
(-0.190381 0.00183211 1.5343e-17)
(-0.18055 0.00229923 3.61577e-18)
(-0.169012 0.00284901 1.19108e-17)
(-0.153286 0.00370051 -5.59593e-18)
(-0.135719 0.00447128 -9.97902e-19)
(-0.11029 0.00604202 1.14013e-17)
(-0.0819923 0.00672597 -4.94302e-18)
(-0.0458512 0.00794467 -1.50684e-18)
(-0.0101158 0.00578506 9.34419e-20)
(-0.300454 -6.67843e-05 -3.7295e-20)
(-0.300623 -0.000242345 5.46225e-19)
(-0.30098 -0.000510364 4.78983e-20)
(-0.301581 -0.000726505 1.19299e-18)
(-0.302318 -0.000853132 1.44669e-19)
(-0.303109 -0.000879741 7.25436e-20)
(-0.303879 -0.000809771 -6.91812e-19)
(-0.304561 -0.0006564 -2.64896e-18)
(-0.305104 -0.000435782 1.27376e-18)
(-0.30547 -0.000164028 8.02583e-19)
(-0.305632 0.000142163 -2.46943e-18)
(-0.30557 0.000472783 6.25102e-19)
(-0.305272 0.00081718 -2.32983e-18)
(-0.304735 0.00116686 3.25352e-18)
(-0.303958 0.00151507 -1.63272e-18)
(-0.302945 0.00185633 8.91907e-19)
(-0.301705 0.00218625 2.04097e-18)
(-0.300245 0.00250136 -4.42285e-18)
(-0.298579 0.00279889 2.9895e-18)
(-0.296718 0.00307664 -1.67844e-19)
(-0.294677 0.0033328 1.19684e-18)
(-0.292472 0.00356587 3.76012e-18)
(-0.290117 0.00377458 -9.11496e-19)
(-0.28763 0.00395786 -4.46351e-18)
(-0.285027 0.00411478 2.4486e-18)
(-0.282327 0.00424463 1.59579e-18)
(-0.279548 0.00434688 5.26117e-18)
(-0.276708 0.00442124 6.7956e-18)
(-0.273825 0.00446771 3.87062e-18)
(-0.270917 0.00448658 5.38199e-18)
(-0.268003 0.00447848 1.7693e-18)
(-0.265099 0.00444436 -2.65339e-18)
(-0.262222 0.00438546 -4.81114e-18)
(-0.259387 0.00430333 -8.96233e-19)
(-0.256609 0.00419976 4.73463e-18)
(-0.253901 0.0040767 1.01406e-18)
(-0.251274 0.00393629 4.37379e-18)
(-0.24874 0.00378075 2.24237e-18)
(-0.246306 0.00361233 3.67678e-19)
(-0.24398 0.00343331 1.08803e-18)
(-0.241768 0.0032459 -2.28514e-18)
(-0.239675 0.00305229 3.5418e-18)
(-0.237704 0.00285454 -3.70795e-19)
(-0.235855 0.00265463 1.29403e-18)
(-0.234131 0.00245441 -2.0157e-18)
(-0.23253 0.00225558 4.56702e-18)
(-0.231051 0.00205972 4.8671e-18)
(-0.229692 0.00186827 -7.12414e-19)
(-0.228448 0.00168251 6.40477e-18)
(-0.227315 0.00150356 -3.41668e-19)
(-0.22629 0.00133242 6.32468e-18)
(-0.225365 0.00116991 4.98462e-18)
(-0.224536 0.00101674 2.18029e-18)
(-0.223796 0.00087349 -7.53419e-19)
(-0.223139 0.000740595 2.0527e-18)
(-0.222557 0.000618399 8.22503e-19)
(-0.222045 0.000507139 6.25151e-18)
(-0.221593 0.00040697 -2.90437e-19)
(-0.221196 0.000317971 1.08116e-18)
(-0.220847 0.000240163 5.83372e-18)
(-0.220537 0.000173482 9.8388e-19)
(-0.22026 0.000117881 -1.78653e-19)
(-0.220008 7.37262e-05 -6.41788e-18)
(-0.219773 4.22008e-05 9.94299e-20)
(-0.219549 1.82433e-05 7.18036e-18)
(-0.219329 4.84814e-06 8.97913e-19)
(-0.219106 2.72328e-06 -2.0862e-18)
(-0.218871 1.20659e-05 5.65489e-18)
(-0.218614 3.32944e-05 1.42991e-18)
(-0.218329 6.52575e-05 1.2882e-18)
(-0.218007 0.000107489 9.14367e-18)
(-0.21764 0.000164736 8.73231e-18)
(-0.217218 0.000237433 9.04243e-18)
(-0.216729 0.000326539 6.62241e-18)
(-0.216162 0.000434016 1.90607e-18)
(-0.215502 0.000562397 1.18028e-17)
(-0.214736 0.000714634 1.14154e-17)
(-0.213847 0.000894332 5.34697e-18)
(-0.212816 0.00110594 6.26847e-18)
(-0.21162 0.00135485 -4.2275e-19)
(-0.210236 0.00164768 -3.20341e-18)
(-0.208632 0.00199259 -8.09595e-19)
(-0.206774 0.00239971 -5.02312e-18)
(-0.204623 0.00288174 -3.85648e-18)
(-0.202128 0.00345464 -5.52905e-18)
(-0.199233 0.0041389 -4.8806e-18)
(-0.195866 0.00496085 4.3076e-18)
(-0.191944 0.00595509 8.28681e-18)
(-0.187353 0.0071677 1.09146e-18)
(-0.181988 0.0086587 8.71649e-18)
(-0.175617 0.0105191 1.62785e-17)
(-0.168205 0.0128314 4.99312e-18)
(-0.159086 0.0158608 8.8288e-18)
(-0.148855 0.0194467 1.36414e-17)
(-0.135041 0.0248214 5.54837e-18)
(-0.121081 0.0297361 8.93985e-18)
(-0.0995609 0.0397801 8.43083e-18)
(-0.078465 0.0432041 2.08363e-18)
(-0.0496327 0.0520406 5.90545e-19)
(-0.0128599 0.0352094 5.72859e-18)
(-0.309482 -3.90987e-05 -1.56942e-20)
(-0.309594 -0.000155666 4.86029e-19)
(-0.309869 -0.000336017 -3.14989e-19)
(-0.310349 -0.000485302 1.20937e-18)
(-0.310957 -0.000574582 8.28954e-19)
(-0.311617 -0.000594768 1.35049e-18)
(-0.312259 -0.000546864 1.46822e-18)
(-0.31282 -0.000439272 -2.19409e-18)
(-0.313248 -0.000283014 5.32886e-19)
(-0.313503 -8.91171e-05 2.81518e-18)
(-0.313558 0.00012959 -2.8701e-19)
(-0.313391 0.000366699 7.56214e-19)
(-0.312988 0.000614363 -9.84296e-20)
(-0.312344 0.000866394 1.86498e-18)
(-0.31146 0.0011178 2.11301e-18)
(-0.310339 0.00136452 3.69795e-18)
(-0.308988 0.00160333 5.87831e-18)
(-0.307416 0.00183165 -3.67908e-18)
(-0.305635 0.00204743 4.32134e-18)
(-0.303658 0.00224904 3.01335e-18)
(-0.3015 0.00243513 3.30933e-18)
(-0.299176 0.00260457 1.86487e-18)
(-0.296702 0.00275641 -1.1013e-18)
(-0.294095 0.00288985 8.11622e-19)
(-0.291374 0.00300419 1.15754e-18)
(-0.288555 0.00309888 5.51671e-18)
(-0.285659 0.0031735 5.56376e-18)
(-0.282703 0.00322784 4.35834e-18)
(-0.279706 0.00326184 8.02264e-18)
(-0.276687 0.00327571 2.54022e-18)
(-0.273664 0.00326987 1.85042e-18)
(-0.270655 0.00324498 1.79466e-19)
(-0.267676 0.00320193 -1.73262e-18)
(-0.264743 0.0031418 7.56688e-19)
(-0.261871 0.00306588 4.95327e-18)
(-0.259074 0.00297559 1.12216e-18)
(-0.256363 0.00287244 -5.44249e-19)
(-0.25375 0.00275804 3.9055e-18)
(-0.251243 0.00263403 4.77935e-18)
(-0.248851 0.00250205 4.61393e-18)
(-0.246579 0.00236372 3.53691e-18)
(-0.244432 0.00222062 4.46278e-18)
(-0.242414 0.00207429 1.51047e-18)
(-0.240527 0.00192616 4.30453e-18)
(-0.238771 0.00177759 -2.61682e-20)
(-0.237147 0.00162986 3.44504e-18)
(-0.235652 0.00148413 9.01993e-19)
(-0.234285 0.00134147 -2.20973e-20)
(-0.233043 0.00120284 4.50049e-18)
(-0.23192 0.00106909 6.63048e-18)
(-0.230913 0.000940966 7.49843e-18)
(-0.230016 0.000819106 5.1948e-18)
(-0.229223 0.000704049 4.6507e-18)
(-0.228529 0.000596237 4.9469e-18)
(-0.227926 0.000496022 5.19544e-18)
(-0.227409 0.000403671 1.54267e-18)
(-0.226969 0.00031938 2.53261e-18)
(-0.2266 0.000243276 2.5851e-18)
(-0.226295 0.000175432 1.8997e-18)
(-0.226046 0.000115874 6.34357e-18)
(-0.225846 6.45792e-05 3.28097e-18)
(-0.225688 2.17252e-05 -1.55915e-18)
(-0.225564 -1.2292e-05 3.435e-18)
(-0.225468 -3.99753e-05 4.77025e-18)
(-0.225394 -6.32068e-05 6.23702e-18)
(-0.22533 -7.77601e-05 -1.03922e-18)
(-0.22527 -8.31015e-05 -6.13298e-18)
(-0.225208 -7.91947e-05 1.33205e-18)
(-0.225136 -6.61486e-05 6.52712e-18)
(-0.225046 -4.54994e-05 -4.30938e-18)
(-0.224926 -1.72742e-05 5.1933e-19)
(-0.224768 1.94558e-05 -3.88171e-18)
(-0.224564 6.67219e-05 -3.91623e-18)
(-0.224301 0.000125851 -5.82375e-19)
(-0.223968 0.000198046 -4.94023e-18)
(-0.223551 0.000285274 2.81848e-18)
(-0.223035 0.000389745 -3.59217e-18)
(-0.222401 0.000514115 1.02818e-18)
(-0.221632 0.000661662 2.41254e-18)
(-0.220702 0.000836366 -7.58907e-18)
(-0.219587 0.00104313 -2.0061e-18)
(-0.218254 0.00128803 -6.74325e-18)
(-0.216666 0.00157855 -1.29378e-17)
(-0.214779 0.00192414 -4.05344e-18)
(-0.21254 0.00233664 -1.14262e-17)
(-0.209887 0.00283124 -2.28103e-18)
(-0.206738 0.0034275 -7.28395e-18)
(-0.203003 0.00415097 -3.79816e-18)
(-0.19855 0.00503607 3.81127e-18)
(-0.193258 0.0061262 -4.81999e-18)
(-0.18686 0.00749143 1.12977e-17)
(-0.179287 0.00918581 -3.6058e-18)
(-0.169805 0.0114305 -3.04917e-18)
(-0.158911 0.0140755 5.779e-18)
(-0.144122 0.0181064 -7.28653e-18)
(-0.128351 0.0217653 2.06303e-18)
(-0.10487 0.0292687 -2.34919e-18)
(-0.0801245 0.032163 -1.08705e-17)
(-0.0479791 0.0383263 4.1894e-18)
(-0.0117228 0.0269311 -5.30395e-18)
(-0.275665 -0.000172448 -1.05648e-19)
(-0.276057 -0.00051199 2.40702e-19)
(-0.276691 -0.00100087 8.31712e-19)
(-0.277664 -0.00136884 7.54596e-19)
(-0.278782 -0.00157179 -7.28956e-19)
(-0.279942 -0.00160565 -7.12583e-19)
(-0.281058 -0.00148495 -1.7595e-19)
(-0.282065 -0.00123569 -2.09189e-18)
(-0.282914 -0.000885465 -3.10562e-19)
(-0.283572 -0.000460226 1.35363e-18)
(-0.284017 1.99638e-05 -3.60583e-18)
(-0.284234 0.000525385 -1.26456e-19)
(-0.284217 0.00105163 -2.14873e-20)
(-0.283962 0.00158441 -1.68027e-18)
(-0.283471 0.00211343 -3.40526e-18)
(-0.282751 0.00263074 1.69887e-19)
(-0.281807 0.00313004 -2.91794e-18)
(-0.28065 0.00360636 -4.64604e-18)
(-0.279291 0.00405575 -3.66733e-18)
(-0.277742 0.00447504 3.85178e-18)
(-0.276016 0.00486165 2.27532e-18)
(-0.274128 0.0052134 -2.18332e-18)
(-0.272091 0.00552846 -3.35798e-18)
(-0.269923 0.00580525 -2.23028e-18)
(-0.267638 0.00604244 -6.65128e-19)
(-0.265253 0.00623894 -3.75107e-18)
(-0.262785 0.00639401 1.42347e-18)
(-0.260251 0.00650723 2.52657e-18)
(-0.257669 0.00657865 6.34702e-19)
(-0.255055 0.00660879 6.18995e-18)
(-0.252427 0.00659866 1.54621e-18)
(-0.2498 0.00654978 1.09348e-18)
(-0.247189 0.00646416 -4.81499e-18)
(-0.244609 0.00634419 -1.63743e-18)
(-0.242074 0.00619266 1.78749e-19)
(-0.239596 0.00601261 1.73743e-19)
(-0.237184 0.00580728 1.43124e-18)
(-0.234849 0.00558004 8.94463e-19)
(-0.232598 0.00533431 -4.79355e-18)
(-0.230438 0.0050735 -2.90419e-18)
(-0.228373 0.00480096 -1.11442e-18)
(-0.226408 0.00451993 -8.85947e-19)
(-0.224544 0.00423351 -1.51562e-18)
(-0.222782 0.00394462 -2.96131e-19)
(-0.221123 0.00365601 2.40386e-18)
(-0.219565 0.0033702 1.44568e-18)
(-0.218105 0.0030895 1.28154e-18)
(-0.216741 0.00281602 -1.20363e-18)
(-0.215468 0.00255163 1.94941e-18)
(-0.214282 0.00229797 2.27895e-18)
(-0.213178 0.00205645 -4.02078e-20)
(-0.21215 0.00182827 -2.93801e-18)
(-0.211191 0.00161444 1.17801e-18)
(-0.210295 0.00141574 1.33054e-18)
(-0.209455 0.00123281 2.52075e-18)
(-0.208665 0.0010661 7.62187e-19)
(-0.207916 0.000915914 8.09452e-18)
(-0.207202 0.000782445 8.67154e-18)
(-0.206515 0.00066577 1.94278e-18)
(-0.205849 0.000565877 1.78298e-18)
(-0.205195 0.000482684 -7.07169e-18)
(-0.204546 0.000416132 9.03805e-19)
(-0.203896 0.000366353 -8.05082e-18)
(-0.203236 0.000333059 -1.55813e-18)
(-0.202559 0.000315582 -1.64648e-19)
(-0.201859 0.000314208 1.53693e-19)
(-0.201127 0.000329764 -4.54815e-19)
(-0.200357 0.000362795 2.08512e-19)
(-0.199539 0.000413695 2.02508e-18)
(-0.198666 0.00048282 9.97527e-18)
(-0.19773 0.000571138 5.76419e-18)
(-0.196721 0.000680863 4.84807e-18)
(-0.19563 0.000813929 5.02184e-18)
(-0.194447 0.000972566 6.52779e-18)
(-0.19316 0.00115974 5.8544e-18)
(-0.191758 0.00137914 1.47745e-17)
(-0.190226 0.00163521 1.57593e-17)
(-0.18855 0.00193334 8.0688e-18)
(-0.186713 0.00228014 1.85381e-17)
(-0.184696 0.00268352 4.18851e-18)
(-0.182478 0.0031532 8.83055e-19)
(-0.180036 0.0037011 -2.6002e-18)
(-0.177342 0.00434193 -1.02545e-17)
(-0.174364 0.00509401 -1.40465e-17)
(-0.171068 0.00598027 -1.23819e-17)
(-0.167412 0.0070299 -2.10344e-18)
(-0.163349 0.00828006 -9.77643e-18)
(-0.158828 0.00977938 3.3284e-18)
(-0.153779 0.011591 -9.2293e-18)
(-0.148152 0.0137994 1.17132e-17)
(-0.141819 0.0165182 -3.008e-18)
(-0.134828 0.0198866 1.11426e-17)
(-0.126757 0.0242 -4.61856e-19)
(-0.118392 0.0293883 1.19832e-17)
(-0.10757 0.0367724 3.09736e-19)
(-0.0988033 0.0436164 8.51745e-18)
(-0.08329 0.0570933 9.56555e-19)
(-0.0736367 0.0600376 -1.47234e-17)
(-0.0531035 0.0742013 -1.22936e-17)
(-0.0164128 0.0421442 -3.77862e-18)
(-0.289021 -0.000109663 -5.53604e-20)
(-0.289279 -0.000359789 4.85871e-19)
(-0.289755 -0.000731634 3.27099e-19)
(-0.29052 -0.0010224 6.93615e-19)
(-0.29143 -0.0011888 -8.60149e-19)
(-0.29239 -0.00122163 -1.25867e-18)
(-0.293321 -0.00112871 -3.74402e-19)
(-0.294154 -0.000929046 -1.59417e-18)
(-0.294841 -0.000644264 1.76806e-19)
(-0.295343 -0.000295356 -9.10347e-19)
(-0.295637 9.89285e-05 -2.1302e-18)
(-0.295707 0.000518133 1.83139e-18)
(-0.29554 0.000954846 -6.27096e-19)
(-0.295134 0.00139799 2.62405e-18)
(-0.29449 0.0018389 -1.33825e-18)
(-0.293613 0.00227068 1.52025e-19)
(-0.292511 0.00268788 -1.92402e-19)
(-0.291193 0.00308619 -2.94309e-18)
(-0.289669 0.0034622 -6.89574e-19)
(-0.287954 0.00381316 3.92029e-18)
(-0.28606 0.00413683 1.57333e-18)
(-0.284002 0.00443134 8.06509e-19)
(-0.281795 0.00469512 -3.95546e-18)
(-0.279457 0.00492681 -5.48117e-18)
(-0.277002 0.00512528 9.43488e-20)
(-0.27445 0.0052896 -9.17562e-19)
(-0.271816 0.00541913 1.96733e-18)
(-0.269119 0.00551351 5.98502e-18)
(-0.266377 0.00557275 2.02607e-18)
(-0.263607 0.00559724 4.02219e-18)
(-0.260827 0.00558781 1.46541e-18)
(-0.258053 0.00554568 -1.98444e-19)
(-0.255301 0.00547245 -3.09148e-18)
(-0.252587 0.0053701 -1.2451e-18)
(-0.249924 0.0052409 1.46918e-18)
(-0.247324 0.00508736 4.31448e-19)
(-0.2448 0.00491218 4.92373e-18)
(-0.24236 0.00471817 1.55928e-18)
(-0.240014 0.00450818 -4.25788e-18)
(-0.237768 0.00428509 -1.09515e-18)
(-0.235628 0.0040517 -1.19035e-18)
(-0.233597 0.00381076 -2.1989e-18)
(-0.231679 0.00356489 -3.87952e-18)
(-0.229875 0.00331656 -1.21709e-19)
(-0.228185 0.00306809 3.25271e-18)
(-0.226608 0.00282164 2.35364e-18)
(-0.225142 0.00257917 2.09759e-18)
(-0.223785 0.00234249 -3.81851e-18)
(-0.222532 0.0021132 5.59325e-18)
(-0.22138 0.0018927 1.06656e-18)
(-0.220324 0.00168221 2.28243e-18)
(-0.219356 0.00148278 -2.6449e-18)
(-0.218473 0.00129525 8.5469e-19)
(-0.217667 0.00112035 4.01769e-18)
(-0.216932 0.000958598 1.84692e-18)
(-0.21626 0.000810403 5.19879e-19)
(-0.215645 0.000676038 4.80417e-18)
(-0.215079 0.000555662 7.23169e-18)
(-0.214556 0.000449332 1.58345e-18)
(-0.214068 0.00035702 -1.64295e-18)
(-0.213607 0.000278616 -2.05317e-18)
(-0.213166 0.000213977 -2.95108e-20)
(-0.212739 0.000162899 -9.08866e-18)
(-0.212318 0.000124566 -1.41032e-18)
(-0.211895 0.000101379 2.15635e-18)
(-0.211463 9.16279e-05 5.92794e-19)
(-0.211015 9.47063e-05 -9.51243e-19)
(-0.210543 0.000110776 2.02256e-18)
(-0.210039 0.000140409 -3.96456e-18)
(-0.209495 0.000185796 8.60731e-18)
(-0.208903 0.000248532 1.08462e-17)
(-0.208252 0.000328528 1.0961e-17)
(-0.207535 0.000427202 1.16827e-17)
(-0.206739 0.000546706 -6.25094e-19)
(-0.205855 0.000689641 8.30794e-18)
(-0.204867 0.000859201 1.5233e-17)
(-0.203764 0.00105918 1.66832e-17)
(-0.202528 0.00129415 1.23899e-17)
(-0.201142 0.00156975 1.58563e-17)
(-0.199585 0.00189275 3.08357e-18)
(-0.197834 0.0022715 -7.4392e-18)
(-0.195862 0.00271626 5.48847e-18)
(-0.193638 0.00323974 -4.28118e-18)
(-0.191124 0.0038578 -5.86317e-18)
(-0.188279 0.00459041 -6.56713e-18)
(-0.185052 0.00546307 -1.02404e-17)
(-0.181382 0.00650845 -3.03218e-18)
(-0.177202 0.0077693 3.56112e-18)
(-0.172416 0.00930203 -2.19209e-18)
(-0.166944 0.0111804 6.58916e-18)
(-0.160601 0.0135108 1.33815e-17)
(-0.153387 0.0164011 1.48942e-17)
(-0.144737 0.0201486 4.13145e-18)
(-0.135336 0.0246189 8.64518e-18)
(-0.122855 0.0311865 -5.94603e-18)
(-0.111232 0.0371546 -3.08006e-18)
(-0.0923952 0.049297 2.20036e-18)
(-0.0763507 0.052571 -1.08751e-17)
(-0.0517344 0.0636503 -3.91598e-18)
(-0.0144808 0.0394718 1.68159e-19)
(-0.245464 -0.000385747 -4.73715e-20)
(-0.24629 -0.000969399 1.30896e-19)
(-0.247349 -0.00172282 6.73832e-19)
(-0.248839 -0.00224793 6.24097e-19)
(-0.250445 -0.00250859 -1.9107e-18)
(-0.252048 -0.00252736 -5.17612e-19)
(-0.253569 -0.00233882 2.05447e-20)
(-0.254947 -0.00198438 -2.30227e-19)
(-0.256144 -0.00150348 1.74708e-19)
(-0.257134 -0.000930247 -1.59169e-18)
(-0.257901 -0.000291818 -2.8819e-18)
(-0.258437 0.000379954 -9.45401e-19)
(-0.258743 0.00106587 1.31503e-18)
(-0.258815 0.00175817 -3.20245e-18)
(-0.258657 0.00244425 -9.9875e-19)
(-0.258276 0.00311413 3.4264e-18)
(-0.257678 0.00376003 -2.76346e-18)
(-0.256873 0.00437586 -2.86167e-18)
(-0.255871 0.00495679 2.22792e-18)
(-0.254684 0.00549893 1.14477e-18)
(-0.253323 0.00599907 4.31109e-19)
(-0.251802 0.00645453 -3.48262e-19)
(-0.250133 0.00686296 -3.90679e-18)
(-0.248331 0.00722235 2.66253e-18)
(-0.24641 0.00753097 -3.42234e-18)
(-0.244386 0.00778741 -9.01184e-19)
(-0.242272 0.00799067 1.89609e-18)
(-0.240087 0.00814023 1.36289e-18)
(-0.237844 0.00823614 -3.09113e-18)
(-0.23556 0.00827911 2.44728e-18)
(-0.233251 0.00827051 1.22753e-18)
(-0.23093 0.00821238 4.93222e-18)
(-0.228613 0.00810738 3.09573e-18)
(-0.226312 0.00795876 -3.62619e-18)
(-0.224039 0.00777022 -1.6064e-19)
(-0.221805 0.00754584 4.40641e-19)
(-0.219619 0.00728996 -3.26515e-18)
(-0.217489 0.00700705 9.31189e-20)
(-0.215422 0.00670163 -2.03327e-19)
(-0.213422 0.0063782 -5.82915e-18)
(-0.211494 0.00604113 -8.12953e-19)
(-0.20964 0.00569466 5.96887e-20)
(-0.207861 0.00534279 3.8881e-19)
(-0.206157 0.0049893 4.48512e-19)
(-0.204527 0.00463769 9.82508e-18)
(-0.202967 0.00429117 2.28614e-18)
(-0.201476 0.00395266 9.1671e-19)
(-0.20005 0.00362484 4.31502e-20)
(-0.198683 0.00331006 7.3964e-19)
(-0.197369 0.00301033 2.85819e-18)
(-0.196104 0.0027274 -5.28174e-19)
(-0.194881 0.00246269 -4.44243e-18)
(-0.193692 0.00221741 7.27613e-19)
(-0.192531 0.00199246 -2.17726e-18)
(-0.191391 0.00178853 2.10891e-18)
(-0.190264 0.0016061 1.14444e-18)
(-0.189142 0.00144547 3.9736e-18)
(-0.188018 0.00130679 2.9306e-18)
(-0.186885 0.00119007 1.3652e-18)
(-0.185734 0.00109522 3.2899e-18)
(-0.184558 0.00102213 -2.13711e-18)
(-0.18335 0.000970668 2.27039e-18)
(-0.182102 0.000940832 -4.30204e-19)
(-0.180805 0.000932368 6.11688e-20)
(-0.179454 0.000945266 -5.695e-18)
(-0.17804 0.000979657 -5.32917e-20)
(-0.176555 0.0010362 4.7541e-19)
(-0.174991 0.00111557 -5.94062e-18)
(-0.173341 0.00121859 -1.91372e-18)
(-0.171595 0.00134634 8.80185e-18)
(-0.169746 0.00150038 2.34236e-18)
(-0.167785 0.00168289 1.20721e-18)
(-0.165701 0.00189645 9.12112e-19)
(-0.163485 0.0021442 1.01789e-18)
(-0.161126 0.00243004 -3.95546e-18)
(-0.158613 0.00275874 1.06781e-17)
(-0.155934 0.00313603 4.69853e-18)
(-0.153075 0.00356883 1.12866e-17)
(-0.150023 0.00406562 1.64359e-17)
(-0.146763 0.00463638 3.44239e-18)
(-0.143279 0.0052934 4.33053e-18)
(-0.139553 0.00605166 3.76844e-18)
(-0.135569 0.0069295 -8.70241e-19)
(-0.131306 0.00794961 3.83549e-18)
(-0.126747 0.00914016 -1.55298e-18)
(-0.121873 0.0105367 2.84537e-18)
(-0.116667 0.0121839 -3.90207e-19)
(-0.11112 0.0141398 3.84412e-18)
(-0.105224 0.0164778 1.05644e-18)
(-0.0989997 0.0192955 1.26853e-17)
(-0.0924633 0.0227128 -3.28161e-19)
(-0.085766 0.0269033 -1.46285e-18)
(-0.0788242 0.0320551 -4.61788e-18)
(-0.0725677 0.0383084 1.51088e-18)
(-0.0655735 0.0462981 1.24353e-17)
(-0.0631145 0.0542766 2.16289e-18)
(-0.0557335 0.06686 3.68972e-19)
(-0.0624147 0.0692606 -3.53753e-18)
(-0.0512045 0.082832 -3.85933e-18)
(-0.0329726 0.036377 -3.65465e-18)
(-0.260945 -0.000263212 -5.50936e-20)
(-0.261525 -0.000716573 3.35838e-19)
(-0.262356 -0.00133458 9.33234e-19)
(-0.263575 -0.0017833 1.18586e-18)
(-0.264929 -0.00201917 -1.55439e-18)
(-0.266307 -0.00204922 -5.86486e-19)
(-0.267624 -0.00189699 -9.80327e-20)
(-0.268815 -0.00159609 -8.16358e-19)
(-0.269837 -0.00118013 -1.2157e-19)
(-0.270661 -0.000679472 -2.83364e-20)
(-0.271265 -0.000117252 -3.98359e-18)
(-0.271642 0.000471734 -7.67844e-19)
(-0.271785 0.00107983 4.02661e-19)
(-0.271692 0.001695 -1.65904e-18)
(-0.271366 0.0023053 -1.77654e-18)
(-0.270813 0.00290168 1.15223e-18)
(-0.27004 0.00347708 -1.83768e-18)
(-0.269057 0.00402589 -2.709e-18)
(-0.267875 0.00454369 -8.17927e-19)
(-0.266505 0.00502691 1.60277e-18)
(-0.26496 0.00547262 3.70713e-18)
(-0.263254 0.00587835 -3.59721e-19)
(-0.2614 0.00624199 -5.35597e-18)
(-0.259413 0.00656171 -3.21883e-19)
(-0.257309 0.00683597 -1.4819e-18)
(-0.255103 0.00706349 -1.86447e-18)
(-0.252812 0.00724338 3.80073e-18)
(-0.250452 0.00737515 1.73749e-18)
(-0.24804 0.00745883 -7.92066e-19)
(-0.245591 0.00749502 5.67767e-18)
(-0.243122 0.00748492 1.47608e-18)
(-0.240649 0.00743032 2.37502e-18)
(-0.238186 0.00733359 -3.21982e-18)
(-0.235747 0.00719759 -2.21483e-18)
(-0.233345 0.0070256 -2.54982e-19)
(-0.230991 0.00682122 1.58496e-19)
(-0.228695 0.00658829 -6.46325e-19)
(-0.226465 0.00633075 2.60076e-19)
(-0.22431 0.0060526 -1.69272e-18)
(-0.222234 0.00575781 -6.1939e-18)
(-0.220242 0.00545028 -1.20377e-18)
(-0.218338 0.00513374 -5.48502e-19)
(-0.216522 0.00481176 -4.38924e-19)
(-0.214796 0.00448771 -1.13544e-19)
(-0.213158 0.00416472 4.43264e-18)
(-0.211607 0.00384566 1.77756e-18)
(-0.21014 0.00353316 8.7135e-19)
(-0.208754 0.00322961 -4.01173e-19)
(-0.207445 0.00293712 8.47603e-19)
(-0.206206 0.00265751 5.27199e-18)
(-0.205034 0.00239235 -3.21671e-18)
(-0.20392 0.00214296 -6.39202e-18)
(-0.20286 0.00191042 3.7915e-18)
(-0.201847 0.00169559 -1.05626e-19)
(-0.200873 0.00149911 5.3314e-18)
(-0.19993 0.00132143 1.21922e-18)
(-0.199013 0.00116285 7.91664e-18)
(-0.198113 0.00102351 4.83042e-18)
(-0.197224 0.00090343 1.60657e-18)
(-0.196336 0.000802547 6.11512e-18)
(-0.195444 0.00072073 -6.63117e-18)
(-0.19454 0.000657843 4.91696e-18)
(-0.193616 0.000613831 -2.46113e-18)
(-0.192665 0.000588456 -7.90446e-19)
(-0.191679 0.000582171 -2.08436e-18)
(-0.190651 0.000594815 -9.08396e-20)
(-0.189574 0.000626637 -1.1805e-19)
(-0.18844 0.000678094 -1.77706e-18)
(-0.18724 0.000749963 -5.59672e-18)
(-0.185967 0.000843545 5.96931e-18)
(-0.184612 0.000960264 3.39836e-18)
(-0.183166 0.0011017 2.34857e-18)
(-0.181621 0.00126994 2.2603e-18)
(-0.179964 0.00146771 2.62255e-18)
(-0.178187 0.00169847 7.15646e-18)
(-0.176276 0.00196643 9.31511e-18)
(-0.17422 0.00227666 7.7182e-18)
(-0.172004 0.00263527 7.4352e-18)
(-0.169613 0.0030498 1.90866e-17)
(-0.16703 0.00352918 4.09978e-18)
(-0.164236 0.00408441 9.41101e-18)
(-0.161212 0.00472897 8.4977e-18)
(-0.157933 0.00547944 -2.96972e-18)
(-0.154376 0.00635644 -1.17457e-17)
(-0.150512 0.00738575 -4.90844e-18)
(-0.146312 0.00860011 7.38956e-18)
(-0.141743 0.0100411 -2.35944e-18)
(-0.136772 0.0117633 1.06355e-17)
(-0.131362 0.0138369 -2.17159e-18)
(-0.125495 0.0163571 7.50616e-18)
(-0.119113 0.0194482 -1.00674e-18)
(-0.112318 0.0232749 -5.34073e-18)
(-0.104852 0.0280968 -9.98872e-18)
(-0.097559 0.0338893 3.47526e-18)
(-0.0886584 0.0417846 4.42367e-18)
(-0.0830008 0.0492933 3.34128e-18)
(-0.0714915 0.0630798 8.84568e-19)
(-0.0695737 0.0655555 -6.56619e-18)
(-0.0536551 0.080602 -6.95002e-18)
(-0.020987 0.0402821 -1.08656e-17)
(1.30258 0.174282 1.54504e-18)
(1.30146 0.18605 2.51357e-18)
(1.29975 0.192668 -1.28912e-18)
(1.29844 0.201757 4.08874e-18)
(1.29772 0.210378 3.92143e-18)
(1.29772 0.219625 -1.43818e-18)
(1.29856 0.229065 -2.62651e-18)
(1.30042 0.238822 1.74912e-18)
(1.30356 0.248808 -6.02805e-19)
(1.30827 0.258979 6.8959e-19)
(1.31473 0.269137 1.06754e-18)
(1.32239 0.278681 2.23436e-19)
(1.32787 0.285778 -1.26291e-18)
(1.31934 0.284635 4.31062e-18)
(1.26822 0.264088 1.76204e-18)
(1.12722 0.21157 2.5109e-18)
(0.843839 0.127771 1.63079e-17)
(0.422038 0.0337194 3.52296e-18)
(0.0662043 0.0189947 2.00941e-17)
(-0.0598009 0.0237913 7.2543e-18)
(1.30598 0.175961 2.74867e-18)
(1.30502 0.18747 2.03967e-18)
(1.30339 0.193985 6.31516e-19)
(1.30226 0.20302 2.15598e-18)
(1.3017 0.211537 2.96646e-18)
(1.3019 0.22069 -4.62937e-20)
(1.30299 0.229985 -5.15344e-19)
(1.30516 0.23955 2.22878e-18)