/*--------------------------------*- C++ -*----------------------------------*\
  =========                 |
  \\      /  F ield         | OpenFOAM: The Open Source CFD Toolbox
   \\    /   O peration     | Website:  https://openfoam.org
    \\  /    A nd           | Version:  7
     \\/     M anipulation  |
\*---------------------------------------------------------------------------*/
FoamFile
{
    version     2.0;
    format      ascii;
    class       volVectorField;
    location    "5";
    object      U;
}
// * * * * * * * * * * * * * * * * * * * * * * * * * * * * * * * * * * * * * //

dimensions      [0 1 -1 0 0 0 0];

internalField   nonuniform List<vector> 
50
(
(1.0002 0.00108932 1.48715e-17)
(1.00062 0.00177386 4.05866e-19)
(1.00099 0.00210591 -3.6013e-18)
(1.00168 0.00268538 1.05702e-19)
(1.00264 0.00308906 -2.92561e-18)
(1.00123 -0.000874029 2.68935e-17)
(1.0009 -0.00154038 -2.30778e-18)
(1.00052 -0.00212098 2.03007e-17)
(0.999505 -0.00300265 -1.5964e-18)
(0.99775 -0.00380666 2.21257e-17)
(1.00023 0.00235145 7.85542e-18)
(0.999829 0.00404101 2.28187e-17)
(0.999784 0.00475533 6.46174e-18)
(1.00053 0.00601646 2.20439e-17)
(1.00249 0.00678898 6.72565e-18)
(1.00455 0.00315984 1.56569e-18)
(1.00381 0.00331198 2.24245e-18)
(1.00296 0.00259879 2.02823e-18)
(1.00055 0.00197922 2.18513e-18)
(0.996489 0.000876074 1.35432e-18)
(1.00335 0.00287396 -5.64341e-20)
(1.00124 0.00567196 1.76489e-17)
(1.00018 0.00624097 1.42161e-18)
(1.00032 0.00752233 1.63476e-17)
(1.00274 0.00780899 6.32228e-19)
(1.01176 0.015799 7.45313e-18)
(1.0086 0.0198094 2.92578e-17)
(1.00517 0.019834 8.53163e-18)
(0.999132 0.0213497 2.71133e-17)
(0.991095 0.0203724 2.53156e-18)
(1.01891 0.0105702 -2.2065e-17)
(1.01375 0.0167385 3.75192e-18)
(1.01025 0.0174451 -2.30248e-17)
(1.00655 0.0199163 3.77291e-18)
(1.00455 0.0206072 -4.20027e-18)
(1.0326 0.0399247 -2.71312e-17)
(1.02305 0.0539365 1.18973e-18)
(1.01379 0.0555074 2.22935e-18)
(1.00087 0.0617419 3.91243e-18)
(0.98608 0.0605162 2.06417e-17)
(1.06263 0.0462256 -5.37089e-17)
(1.05077 0.0648847 -4.09018e-18)
(1.03919 0.0700929 -3.37643e-17)
(1.02357 0.0819153 -6.17714e-18)
(1.00672 0.0893554 -5.24278e-18)
(1.09905 0.0882309 1.92022e-17)
(1.08367 0.124342 -2.64036e-18)
(1.0704 0.137574 -1.5563e-18)
(1.0488 0.167249 3.17431e-17)
(1.02264 0.187026 3.53465e-17)
)
;

boundaryField
{
    inlet
    {
        type            uniformFixedValue;
        uniformValue    constant (1 0 0);
        value           uniform (1 0 0);
    }
    outlet
    {
        type            pressureInletOutletVelocity;
        value           nonuniform 0();
    }
    polygon
    {
        type            fixedValue;
        value           nonuniform 0();
    }
    top
    {
        type            symmetryPlane;
    }
    bottom
    {
        type            symmetryPlane;
    }
    outside
    {
        type            zeroGradient;
    }
    procBoundary12to8
    {
        type            processor;
        value           nonuniform List<vector> 10((1.00406 0.00334646 1.33076e-17) (0.994926 -0.00435256 2.54972e-17) (1.00607 0.00709742 7.69905e-18) (0.990127 0.000301232 1.41357e-18) (1.00776 0.00726856 2.34901e-19) (0.980408 0.0197545 4.72575e-18) (1.00405 0.0195777 -1.37788e-17) (0.968201 0.0595682 -1.72103e-17) (0.987794 0.0936303 -2.02757e-17) (0.982751 0.210136 3.08732e-18));
    }
    procBoundary12to9
    {
        type            processor;
        value           uniform (1.07498 0.214763 8.9855e-18);
    }
    procBoundary12to13
    {
        type            processor;
        value           nonuniform List<vector> 4((1.13673 0.100164 -6.59693e-17) (1.12644 0.134764 -1.07052e-20) (1.11785 0.149152 -6.12235e-18) (1.09831 0.182569 -5.46842e-17));
    }
}


// ************************************************************************* //
