/*--------------------------------*- C++ -*----------------------------------*\
  =========                 |
  \\      /  F ield         | OpenFOAM: The Open Source CFD Toolbox
   \\    /   O peration     | Website:  https://openfoam.org
    \\  /    A nd           | Version:  7
     \\/     M anipulation  |
\*---------------------------------------------------------------------------*/
FoamFile
{
    version     2.0;
    format      ascii;
    class       volScalarField;
    location    "5";
    object      p;
}
// * * * * * * * * * * * * * * * * * * * * * * * * * * * * * * * * * * * * * //

dimensions      [0 2 -2 0 0 0 0];

internalField   nonuniform List<scalar> 
50
(
-0.378011
-0.397084
-0.493128
-1.17664
-0.334185
-0.394107
-0.429516
-0.593276
-0.557381
-0.353171
-0.423735
-0.465243
-0.663601
-0.63959
-0.372137
-0.452056
-0.505144
-0.67475
-0.620783
-0.388322
-0.474225
-0.544245
-0.67681
-0.668766
-0.404656
-0.496775
-0.576655
-0.687625
-0.688151
-0.417944
-0.51711
-0.59918
-0.711367
-0.70092
-0.432084
-0.54093
-0.620991
-0.74104
-0.696725
-0.440315
-0.555071
-0.630394
-0.770314
-0.680278
-0.404267
-0.453756
-0.579075
-0.667247
-0.804592
-0.638315
)
;

boundaryField
{
    inlet
    {
        type            zeroGradient;
    }
    outlet
    {
        type            fixedValue;
        value           nonuniform 0();
    }
    polygon
    {
        type            zeroGradient;
    }
    top
    {
        type            symmetryPlane;
    }
    bottom
    {
        type            symmetryPlane;
    }
    outside
    {
        type            slip;
    }
    procBoundary10to9
    {
        type            processor;
        value           nonuniform List<scalar> 4(-0.373326 -0.377571 -0.511214 -0.698878);
    }
    procBoundary10to11
    {
        type            processor;
        value           nonuniform List<scalar> 5(-0.482212 -0.523577 -0.534759 -0.55303 -0.528369);
    }
    procBoundary10to14
    {
        type            processor;
        value           nonuniform List<scalar> 
12
(
-0.32348
-0.32348
-0.324928
-0.336655
-0.348362
-0.358986
-0.369452
-0.378825
-0.388324
-0.395889
-0.395889
-0.365903
)
;
    }
    procBoundary10to15
    {
        type            processor;
        value           uniform -0.454473;
    }
}


// ************************************************************************* //
