/*--------------------------------*- C++ -*----------------------------------*\
  =========                 |
  \\      /  F ield         | OpenFOAM: The Open Source CFD Toolbox
   \\    /   O peration     | Website:  https://openfoam.org
    \\  /    A nd           | Version:  7
     \\/     M anipulation  |
\*---------------------------------------------------------------------------*/
FoamFile
{
    version     2.0;
    format      ascii;
    class       volVectorField;
    location    "5";
    object      U;
}
// * * * * * * * * * * * * * * * * * * * * * * * * * * * * * * * * * * * * * //

dimensions      [0 1 -1 0 0 0 0];

internalField   nonuniform List<vector> 
50
(
(1.22578 0.288833 2.83096e-17)
(1.27557 0.295179 -3.0187e-17)
(1.21371 0.386352 8.003e-18)
(1.22116 0.284967 7.06936e-17)
(1.2228 0.212815 -3.96599e-18)
(1.24293 0.286049 -4.49653e-17)
(1.27571 0.290021 -7.42908e-18)
(1.17236 0.36635 7.93384e-17)
(0.555259 0.239543 -5.08264e-17)
(1.23869 0.213427 -3.44157e-18)
(1.26421 0.278214 1.19165e-17)
(1.25881 0.267728 3.18216e-18)
(1.07305 0.321704 5.59904e-17)
(0.335871 0.164954 -5.00809e-17)
(1.25018 0.209534 7.22686e-19)
(1.27259 0.265453 6.66022e-18)
(1.22419 0.244134 1.17046e-17)
(0.914205 0.28603 3.99471e-17)
(0.0688876 0.101739 -2.58243e-17)
(1.26227 0.204285 -1.01213e-17)
(1.27291 0.248546 1.6608e-17)
(1.17269 0.217889 1.403e-17)
(0.738537 0.244 2.64838e-17)
(-0.0727659 0.0770881 -9.67994e-18)
(1.26481 0.19325 1.34977e-17)
(1.25575 0.226178 9.92542e-19)
(1.09863 0.191108 1.72646e-17)
(0.569244 0.206938 1.57016e-17)
(-0.185961 0.112102 -4.90777e-18)
(1.27144 0.183771 -3.30281e-17)
(1.24184 0.2048 2.6282e-17)
(1.01545 0.160571 9.58345e-18)
(0.414156 0.173016 6.90875e-18)
(-0.25308 0.161184 -4.18666e-18)
(1.26069 0.164148 -1.27829e-17)
(1.19898 0.173754 -1.51857e-17)
(0.906882 0.126533 1.81691e-17)
(0.284496 0.14996 -1.64028e-17)
(-0.301769 0.198977 -1.06585e-17)
(1.2613 0.152954 -4.33805e-17)
(1.17854 0.154232 7.40551e-17)
(0.822882 0.0925027 -2.35566e-18)
(0.178314 0.145854 -1.8193e-16)
(-0.332969 0.219909 -7.89719e-18)
(1.26225 0.145558 -6.48299e-18)
(1.23474 0.122535 -3.20263e-17)
(1.10103 0.10706 2.21183e-18)
(0.684654 0.042722 -2.10907e-17)
(0.0646076 0.166568 -2.63153e-16)
(-0.331551 0.223596 -1.22463e-17)
)
;

boundaryField
{
    inlet
    {
        type            uniformFixedValue;
        uniformValue    constant (1 0 0);
        value           nonuniform 0();
    }
    outlet
    {
        type            pressureInletOutletVelocity;
        value           nonuniform 0();
    }
    polygon
    {
        type            fixedValue;
        value           uniform (0 0 0);
    }
    top
    {
        type            symmetryPlane;
    }
    bottom
    {
        type            symmetryPlane;
    }
    outside
    {
        type            zeroGradient;
    }
    procBoundary10to9
    {
        type            processor;
        value           nonuniform List<vector> 4((1.2159 0.288615 4.88334e-18) (1.2698 0.287514 -2.71162e-17) (1.28929 0.544568 2.23067e-17) (1.32856 0.453331 -3.8334e-17));
    }
    procBoundary10to11
    {
        type            processor;
        value           nonuniform List<vector> 5((1.20089 0.0217252 -6.08512e-18) (0.948167 0.0135602 1.79023e-19) (0.41416 -0.0325001 -3.81106e-18) (-0.369722 -0.0170515 -2.11079e-18) (-0.738644 -0.0353271 -4.66577e-18));
    }
    procBoundary10to14
    {
        type            processor;
        value           nonuniform List<vector> 
12
(
(1.21445 0.209348 9.56511e-18)
(1.21445 0.209348 9.56511e-18)
(1.20892 0.193907 3.44605e-17)
(1.21996 0.193377 2.67716e-17)
(1.22931 0.190614 1.99696e-17)
(1.23959 0.187687 1.27743e-17)
(1.24643 0.181607 9.3053e-18)
(1.25527 0.176552 1.98747e-18)
(1.25826 0.166521 2.55043e-19)
(1.2645 0.159919 -5.80851e-18)
(1.2645 0.159919 -5.80851e-18)
(1.24764 0.142479 5.8942e-18)
)
;
    }
    procBoundary10to15
    {
        type            processor;
        value           uniform (1.28196 0.0510769 5.29126e-18);
    }
}


// ************************************************************************* //
