/*--------------------------------*- C++ -*----------------------------------*\
  =========                 |
  \\      /  F ield         | OpenFOAM: The Open Source CFD Toolbox
   \\    /   O peration     | Website:  https://openfoam.org
    \\  /    A nd           | Version:  7
     \\/     M anipulation  |
\*---------------------------------------------------------------------------*/
FoamFile
{
    version     2.0;
    format      ascii;
    class       volScalarField;
    location    "16";
    object      p;
}
// * * * * * * * * * * * * * * * * * * * * * * * * * * * * * * * * * * * * * //

dimensions      [0 2 -2 0 0 0 0];

internalField   nonuniform List<scalar> 
125
(
0.221873
0.345253
0.176752
0.227841
0.362046
0.236301
0.233422
0.376631
0.287586
0.237869
0.38822
0.33173
0.241174
0.396915
0.369126
0.243276
0.402979
0.400183
0.244184
0.406611
-0.396286
-0.447819
-0.43564
-0.347741
-0.388795
-0.442058
-0.443227
-0.333103
-0.368515
-0.417817
-0.409267
-0.317467
-0.350874
-0.397132
-0.385583
-0.29884
-0.329541
-0.372786
-0.36161
-0.278257
-0.307155
-0.347838
-0.337501
-0.2566
-0.283332
-0.320931
-0.312357
-0.212168
-0.236972
-0.26175
-0.294992
-0.287599
-0.193988
-0.216652
-0.240316
-0.269687
-0.266029
-0.159228
-0.177336
-0.197723
-0.22458
-0.23732
-0.382688
-0.400476
-0.410229
-0.421354
-0.404799
-0.381678
-0.402449
-0.411688
-0.426266
-0.41823
-0.382651
-0.407132
-0.418073
-0.437465
-0.433035
-0.409437
-0.426239
-0.448079
-0.450933
-0.409727
-0.435725
-0.457853
-0.471924
-0.407772
-0.444077
-0.466948
-0.49566
-0.402523
-0.447542
-0.475591
-0.516815
-0.39199
-0.4434
-0.484518
-0.53473
-0.377034
-0.433486
-0.495686
-0.542858
-0.364719
-0.419705
-0.50119
-0.60096
0.143569
0.126472
0.109086
0.0436531
0.160207
0.14388
0.144822
0.0560765
0.176768
0.162678
0.188094
0.0658168
0.192755
0.182977
0.239506
0.0721095
0.207661
0.204905
0.298461
0.0836579
)
;

boundaryField
{
    inlet
    {
        type            zeroGradient;
    }
    outlet
    {
        type            fixedValue;
        value           nonuniform 0();
    }
    polygon
    {
        type            zeroGradient;
    }
    top
    {
        type            symmetryPlane;
    }
    bottom
    {
        type            symmetryPlane;
    }
    outside
    {
        type            slip;
    }
    procBoundary25to16
    {
        type            processor;
        value           nonuniform List<scalar> 9(0.217628 0.217628 0.221127 0.224295 0.120672 0.128817 0.136915 0.144835 0.152363);
    }
    procBoundary25to17
    {
        type            processor;
        value           nonuniform List<scalar> 
28
(
-0.35587
-0.35587
-0.35587
-0.307567
-0.295021
-0.281092
-0.265096
-0.247298
-0.228897
-0.228897
-0.194489
-0.177618
-0.146805
-0.364075
-0.360526
-0.358067
-0.380803
-0.380803
-0.37722
-0.371018
-0.36183
-0.348762
-0.333614
-0.32333
0.127268
0.1104
0.079572
0.029649
)
;
    }
    procBoundary25to18
    {
        type            processor;
        value           nonuniform List<scalar> 5(-0.361676 -0.362057 -0.365451 -0.369966 -0.375426);
    }
    procBoundary25to24
    {
        type            processor;
        value           nonuniform List<scalar> 4(0.226795 0.228632 0.229805 0.230365);
    }
    procBoundary25to33
    {
        type            processor;
        value           nonuniform List<scalar> 4(0.425125 0.243627 0.425125 0.407519);
    }
}


// ************************************************************************* //
