/*--------------------------------*- C++ -*----------------------------------*\
  =========                 |
  \\      /  F ield         | OpenFOAM: The Open Source CFD Toolbox
   \\    /   O peration     | Website:  https://openfoam.org
    \\  /    A nd           | Version:  7
     \\/     M anipulation  |
\*---------------------------------------------------------------------------*/
FoamFile
{
    version     2.0;
    format      ascii;
    class       volScalarField;
    location    "36";
    object      p;
}
// * * * * * * * * * * * * * * * * * * * * * * * * * * * * * * * * * * * * * //

dimensions      [0 2 -2 0 0 0 0];

internalField   nonuniform List<scalar> 
175
(
-0.162059
-0.160237
-0.158798
-0.157696
-0.15689
-0.156342
-0.156021
-0.155899
-0.155954
-0.156164
-0.156511
-0.15698
-0.157559
-0.158236
-0.159002
-0.159849
-0.160768
-0.16228
-0.160433
-0.158971
-0.157846
-0.157018
-0.15645
-0.156111
-0.155973
-0.156013
-0.156208
-0.156542
-0.156999
-0.157567
-0.158235
-0.158992
-0.159831
-0.160742
-0.162491
-0.160618
-0.159131
-0.157983
-0.157134
-0.156546
-0.156189
-0.156034
-0.156057
-0.156238
-0.156559
-0.157005
-0.157562
-0.15822
-0.158968
-0.159798
-0.160702
-0.16269
-0.160794
-0.159284
-0.158115
-0.157245
-0.156638
-0.156263
-0.156092
-0.156101
-0.156269
-0.156578
-0.157012
-0.15756
-0.158208
-0.158948
-0.159771
-0.160667
-0.162888
-0.160968
-0.159436
-0.158245
-0.157355
-0.15673
-0.156338
-0.156151
-0.156145
-0.1563
-0.156597
-0.157021
-0.157558
-0.158197
-0.158928
-0.159743
-0.160632
-0.163083
-0.16114
-0.159585
-0.158374
-0.157464
-0.156821
-0.156412
-0.156209
-0.156189
-0.15633
-0.156615
-0.157028
-0.157555
-0.158184
-0.158907
-0.159713
-0.160595
-0.163275
-0.16131
-0.159733
-0.158501
-0.157571
-0.15691
-0.156484
-0.156265
-0.156231
-0.156359
-0.156632
-0.157033
-0.15755
-0.158171
-0.158885
-0.159683
-0.160558
-0.163468
-0.161479
-0.159881
-0.158627
-0.157678
-0.156998
-0.156555
-0.156321
-0.156272
-0.156387
-0.156648
-0.157038
-0.157545
-0.158156
-0.158862
-0.159652
-0.16052
-0.163662
-0.16165
-0.160029
-0.158754
-0.157785
-0.157086
-0.156626
-0.156376
-0.156313
-0.156414
-0.156663
-0.157042
-0.157538
-0.158141
-0.158838
-0.15962
-0.160481
-0.16382
-0.161788
-0.160149
-0.158857
-0.157872
-0.157158
-0.156683
-0.15642
-0.156345
-0.156436
-0.156674
-0.157044
-0.155644
-0.155736
-0.155978
-0.156355
-0.156849
-0.15745
-0.158147
-0.158932
-0.159795
-0.160729
)
;

boundaryField
{
    inlet
    {
        type            zeroGradient;
    }
    outlet
    {
        type            fixedValue;
        value           nonuniform 0();
    }
    polygon
    {
        type            zeroGradient;
    }
    top
    {
        type            symmetryPlane;
    }
    bottom
    {
        type            symmetryPlane;
    }
    outside
    {
        type            slip;
    }
    procBoundary44to36
    {
        type            processor;
        value           nonuniform List<scalar> 
18
(
-0.163907
-0.161865
-0.160216
-0.158914
-0.15792
-0.157198
-0.156716
-0.156446
-0.156364
-0.156448
-0.15668
-0.157043
-0.157531
-0.158123
-0.158811
-0.159585
-0.160436
-0.157531
)
;
    }
    procBoundary44to43
    {
        type            processor;
        value           nonuniform List<scalar> 8(-0.161721 -0.161673 -0.161631 -0.161589 -0.161545 -0.161501 -0.161456 -0.161411);
    }
    procBoundary44to45
    {
        type            processor;
        value           nonuniform List<scalar> 10(-0.164317 -0.164563 -0.164801 -0.165025 -0.165246 -0.165465 -0.165681 -0.165898 -0.166116 -0.166293);
    }
    procBoundary44to51
    {
        type            processor;
        value           nonuniform List<scalar> 2(-0.161753 -0.161728);
    }
    procBoundary44to52
    {
        type            processor;
        value           nonuniform List<scalar> 
18
(
-0.161462
-0.159689
-0.158302
-0.157252
-0.156497
-0.155998
-0.155723
-0.155342
-0.155453
-0.155713
-0.156105
-0.156614
-0.157229
-0.157938
-0.158732
-0.159603
-0.160545
-0.155723
)
;
    }
}


// ************************************************************************* //
