/*--------------------------------*- C++ -*----------------------------------*\
  =========                 |
  \\      /  F ield         | OpenFOAM: The Open Source CFD Toolbox
   \\    /   O peration     | Website:  https://openfoam.org
    \\  /    A nd           | Version:  7
     \\/     M anipulation  |
\*---------------------------------------------------------------------------*/
FoamFile
{
    version     2.0;
    format      ascii;
    class       surfaceScalarField;
    location    "48";
    object      phi;
}
// * * * * * * * * * * * * * * * * * * * * * * * * * * * * * * * * * * * * * //

dimensions      [0 3 -1 0 0 0 0];

internalField   nonuniform List<scalar> 
7840
(
-0.00147446
0.00976874
-0.00939954
-0.00183929
0.00973256
-0.00936773
-0.00220395
0.00967606
-0.0093114
-0.00256813
0.00963183
-0.00926764
-0.00293351
0.00958261
-0.00921723
-0.00330004
0.00954115
-0.00917463
-0.00366964
0.00949739
-0.00912779
-0.00404325
0.0094587
-0.00908508
-0.00442278
0.00941973
-0.00904019
-0.00480938
0.00938721
-0.00900061
-0.00520859
0.00935328
-0.00895407
-0.00562096
0.00933469
-0.00892233
-0.00606288
0.00930872
-0.0088668
-0.00652487
0.00932388
-0.00886189
-0.00700842
0.00927317
-0.00878962
-0.00733758
0.00914924
-0.00882007
-0.00719702
0.00843681
-0.00857737
-0.00579236
0.00698138
-0.00838604
-0.00317776
0.00401682
-0.00663141
0.00109053
-0.0042683
-0.00150068
0.0101389
-0.00186801
0.0100999
-0.00223563
0.0100437
-0.00260342
0.00999962
-0.00297274
0.00995192
-0.00334416
0.00991258
-0.0037194
0.00987262
-0.00410007
0.00983938
-0.00448879
0.00980844
-0.00488806
0.00978647
-0.00530438
0.00976961
-0.00574247
0.00977279
-0.00621136
0.00977761
-0.00666781
0.00978033
-0.00698618
0.00959154
-0.00683402
0.00899708
-0.00585925
0.00746204
-0.00382401
0.00494614
-0.00144297
0.00163578
-0.000352442
-0.00152581
0.0105103
-0.00189514
0.0104692
-0.00226544
0.010414
-0.00263645
0.0103706
-0.00300994
0.0103254
-0.00338666
0.0102893
-0.00376856
0.0102545
-0.00415726
0.0102281
-0.00455558
0.0102068
-0.00496681
0.0101977
-0.00539706
0.0101999
-0.00584488
0.0102206
-0.00627987
0.0102126
-0.00657318
0.0100736
-0.00647537
0.00949373
-0.00563142
0.00815313
-0.00390695
0.00573757
-0.00162708
0.00266627
-9.162e-05
0.000100324
-0.000444062
-0.00154975
0.0108829
-0.00192091
0.0108404
-0.0022934
0.0107865
-0.00266708
0.0107443
-0.0030436
0.0107019
-0.00342367
0.0106694
-0.00380934
0.0106402
-0.00420297
0.0106217
-0.0046086
0.0106124
-0.0050304
0.0106195
-0.00546795
0.0106374
-0.00589315
0.0106458
-0.00621354
0.010533
-0.00622328
0.0100834
-0.005644
0.00891445
-0.00427775
0.00678688
-0.00236128
0.0038211
-0.000731857
0.00103684
-5.84166e-05
-0.000573117
-0.000502478
-0.0015723
0.0112565
-0.00194512
0.0112132
-0.00231963
0.011161
-0.00269606
0.0111207
-0.0030762
0.0110821
-0.00346142
0.0110546
-0.00385429
0.0110331
-0.00425697
0.0110244
-0.00467133
0.0110267
-0.00509558
0.0110438
-0.00551224
0.0110541
-0.00585541
0.010989
-0.00597339
0.010651
-0.0056232
0.0097332
-0.00458829
0.00787954
-0.00292228
0.00512087
-0.00122269
0.00212151
-0.000163238
-2.26092e-05
0.000113869
-0.000850224
-0.000388609
-0.00159354
0.011631
-0.0019679
0.0115876
-0.00234422
0.0115373
-0.00272289
0.0114994
-0.00310531
0.0114645
-0.00349251
0.0114418
-0.00388603
0.0114266
-0.00428774
0.0114261
-0.00469898
0.011438
-0.00511137
0.0114561
-0.00548266
0.0114254
-0.00569914
0.0112055
-0.00556327
0.0105151
-0.00485231
0.00902224
-0.00350504
0.00653227
-0.00187366
0.00348949
-0.000627274
0.000875121
-6.67544e-05
-0.000583129
6.20341e-06
-0.000923182
-0.000382406
-0.00161326
0.0120062
-0.00198883
0.0119631
-0.00236663
0.0119151
-0.00274749
0.0118803
-0.00313292
0.0118499
-0.00352483
0.0118337
-0.00392542
0.0118272
-0.00433614
0.0118368
-0.00475108
0.0118529
-0.00513979
0.0118448
-0.00542185
0.0117074
-0.0054476
0.0112312
-0.00502071
0.0100882
-0.00400133
0.00800285
-0.00253119
0.00506213
-0.00115329
0.00211159
-0.00034209
6.39187e-05
-3.44817e-05
-0.000890737
6.90944e-06
-0.000964573
-0.000375496
-0.00163181
0.0123821
-0.00200863
0.0123399
-0.00238789
0.0122944
-0.00277061
0.012263
-0.00315753
0.0122369
-0.00354956
0.0122257
-0.00394625
0.0122239
-0.00434409
0.0122346
-0.00472767
0.0122365
-0.00505075
0.0121679
-0.00521136
0.011868
-0.00504217
0.011062
-0.00436514
0.00941118
-0.00315778
0.00679549
-0.0017666
0.00367095
-0.000732348
0.00107734
-0.000212839
-0.000455591
-3.82722e-05
-0.0010653
-2.17482e-05
-0.000981097
-0.000397245
-0.00164866
0.0127582
-0.00202612
0.0127174
-0.00240604
0.0126743
-0.00279023
0.0126472
-0.00317891
0.0126255
-0.00357399
0.0126208
-0.00397549
0.0126254
-0.00437819
0.0126373
-0.00475498
0.0126133
-0.0050293
0.0124422
-0.00505675
0.0118955
-0.00465813
0.0106634
-0.0037345
0.00848755
-0.00244125
0.00550225
-0.00123208
0.00246177
-0.000461937
0.000307204
-0.000101648
-0.00081588
5.24528e-06
-0.0011722
5.41817e-06
-0.000981269
-0.000391826
-0.00166429
0.013134
-0.00204376
0.0130969
-0.00242501
0.0130555
-0.00281125
0.0130334
-0.00320077
0.0130151
-0.00359444
0.0130145
-0.00398617
0.0130171
-0.00435767
0.0130088
-0.00465785
0.0129135
-0.00478503
0.0125694
-0.00459819
0.0117086
-0.00398106
0.0100463
-0.00294976
0.00745625
-0.00175384
0.00430633
-0.000787021
0.00149495
-0.000223414
-0.000256403
2.59558e-05
-0.00106525
5.88851e-05
-0.00120513
1.40733e-05
-0.000936458
-0.000377753
-0.000617973
0.0115517
-0.0117741
-0.000403586
0.0114581
-0.0116725
-0.000194161
0.0113586
-0.011568
3.45816e-06
0.0112312
-0.0114288
0.000192046
0.0111129
-0.0113014
0.000366305
0.0109644
-0.0111387
0.000526589
0.0108157
-0.0109759
0.00066853
0.0106355
-0.0107775
0.000789208
0.0104368
-0.0105574
0.000884396
0.0101968
-0.010292
0.000948849
0.00991805
-0.0099825
0.000977696
0.00957476
-0.0096036
0.000962368
0.00917082
-0.00915549
0.000905135
0.00866937
-0.00861214
0.000796618
0.00811508
-0.00800656
0.000644137
0.00740947
-0.00725698
0.000441431
0.00670857
-0.00650586
0.000178094
0.00574886
-0.00548552
-6.72195e-06
0.00458917
-0.00440435
0.00218182
-0.00218854
-0.000642704
0.0113262
-0.000426006
0.0112414
-0.000213991
0.0111466
-1.35726e-05
0.0110308
0.00017798
0.0109213
0.000355307
0.0107871
0.000518663
0.0106523
0.000663617
0.0104906
0.000787456
0.0103129
0.000885657
0.0100986
0.000953113
0.00985059
0.000985002
0.00954287
0.000974806
0.00918102
0.000921012
0.00872317
0.000821082
0.00821501
0.000667696
0.00756285
0.00048511
0.00689115
0.000229981
0.00600399
7.37426e-05
0.00474541
0.00225557
-0.00066737
0.0110979
-0.000447477
0.0110215
-0.000232525
0.0109316
-2.87211e-05
0.010827
0.000166423
0.0107262
0.000347619
0.0106059
0.000515009
0.0104849
0.000664079
0.0103415
0.000791954
0.010185
0.000893596
0.00999699
0.000963302
0.00978089
0.000995181
0.00951099
0.000981046
0.00919515
0.000916659
0.00878755
0.000798741
0.00833292
0.000618945
0.00774265
0.00040381
0.00710629
0.000120115
0.00628768
-3.65525e-05
0.00490207
0.00221901
-0.0006915
0.0108665
-0.000468077
0.0107981
-0.000249764
0.0107133
-4.21201e-05
0.0106193
0.000157044
0.010527
0.0003427
0.0104202
0.000514868
0.0103127
0.000669078
0.0101873
0.000802506
0.0100516
0.000909954
0.00988954
0.000985937
0.0097049
0.0010237
0.00947323
0.00101646
0.00920239
0.000954656
0.00884936
0.000841854
0.00844573
0.000650163
0.00793434
0.000434234
0.00732222
0.000154876
0.00656704
-1.627e-05
0.00507322
0.00220274
-0.000715276
0.0106318
-0.000488089
0.0105709
-0.000266145
0.0104914
-5.43117e-05
0.0104075
0.000149276
0.0103234
0.00033994
0.0102295
0.000517689
0.010135
0.000678236
0.0100267
0.000818962
0.00991089
0.000934486
0.00977402
0.00101962
0.00961977
0.00106644
0.00942641
0.00106899
0.00919984
0.00101532
0.00890304
0.000909576
0.00855147
0.000732644
0.00811127
0.000506521
0.00754834
0.000230478
0.00684308
2.60764e-05
0.00527762
0.00222882
-0.000738191
0.0103934
-0.000506765
0.0103395
-0.000280575
0.0102652
-6.38113e-05
0.0101907
0.000145095
0.0101145
0.000341906
0.0100327
0.000526739
0.00995016
0.000695511
0.00985796
0.000846078
0.00976032
0.000972862
0.00964724
0.00107161
0.00952102
0.00113193
0.00936609
0.00115074
0.00918103
0.00110603
0.00894775
0.00100801
0.00864948
0.000801311
0.00831797
0.000564125
0.00778552
0.000241735
0.00716547
2.50991e-05
0.00549426
0.00225392
-0.000761037
0.0101513
-0.000525422
0.0101039
-0.000295021
0.0100348
-7.33967e-05
0.00996909
0.000140797
0.0099003
0.000343665
0.00982987
0.000535512
0.00975832
0.000712673
0.0096808
0.000873358
0.00959964
0.0010118
0.00950879
0.00112406
0.00940876
0.00119967
0.00929047
0.00123598
0.00914473
0.00121557
0.00896816
0.00114826
0.00871679
0.00102503
0.0084412
0.000822929
0.00798762
0.000568963
0.00741944
0.00022622
0.005837
0.00248014
-0.000782184
0.00990494
-0.000541526
0.00986321
-0.000305697
0.00979896
-7.7838e-05
0.00974123
0.000143245
0.00967922
0.000354167
0.00961895
0.00055563
0.00955685
0.000744243
0.00949218
0.000918627
0.00942525
0.00107321
0.00935422
0.00120583
0.00927613
0.00130494
0.00919136
0.00136821
0.00908146
0.00136771
0.00896866
0.0013045
0.00878
0.00110847
0.00863723
0.00084684
0.00824925
0.00043471
0.00783157
0.000160955
0.00611075
0.00264109
-0.00080462
0.00965474
-0.00056011
0.0096187
-0.00032026
0.00955911
-8.78512e-05
0.00950882
0.000138296
0.00945307
0.000354837
0.00940241
0.000562788
0.0093489
0.000758687
0.00929629
0.000941548
0.00924239
0.00110653
0.00918923
0.0012518
0.00913086
0.00136717
0.009076
0.00145165
0.00899697
0.00148928
0.00893103
0.00149544
0.00877385
0.00148256
0.0086501
0.00142148
0.00831034
0.0012689
0.00798414
0.000772525
0.00660713
0.00341362
-0.000822761
-0.000571784
-0.000324076
-8.28981e-05
0.000152948
0.000380729
0.00060184
0.000813044
0.00101524
0.00120386
0.00138065
0.00153432
0.00166449
0.00173363
0.00171786
0.00154789
0.00128085
0.00087896
0.000854678
-0.000822761
-0.00965474
0.00939954
-0.000571784
-0.0096187
0.00936773
-0.000324076
-0.00955911
0.0093114
-8.28981e-05
-0.00950882
0.00926764
0.000152948
-0.00945307
0.00921723
0.000380729
-0.00940241
0.00917463
0.00060184
-0.0093489
0.00912779
0.000813044
-0.00929629
0.00908508
0.00101524
-0.00924239
0.00904019
0.00120386
-0.00918923
0.00900061
0.00138065
-0.00913086
0.00895407
0.00153432
-0.009076
0.00892233
0.00166449
-0.00899697
0.0088668
0.00173363
-0.00893103
0.00886189
0.00171786
-0.00877385
0.00878962
0.00154789
-0.0086501
0.00882007
0.00128085
-0.00831034
0.00857737
0.00087896
-0.00798414
0.00838604
0.000854678
-0.00660713
0.00663141
-0.00341362
0.0042683
-0.00080462
-0.00990494
-0.00056011
-0.00986321
-0.00032026
-0.00979896
-8.78512e-05
-0.00974123
0.000138296
-0.00967922
0.000354837
-0.00961895
0.000562788
-0.00955685
0.000758687
-0.00949218
0.000941548
-0.00942525
0.00110653
-0.00935422
0.0012518
-0.00927613
0.00136717
-0.00919136
0.00145165
-0.00908146
0.00148928
-0.00896866
0.00149544
-0.00878
0.00148256
-0.00863723
0.00142148
-0.00824925
0.0012689
-0.00783157
0.000772525
-0.00611075
-0.00264109
-0.000782184
-0.0101513
-0.000541526
-0.0101039
-0.000305697
-0.0100348
-7.7838e-05
-0.00996909
0.000143245
-0.0099003
0.000354167
-0.00982987
0.00055563
-0.00975832
0.000744243
-0.0096808
0.000918627
-0.00959964
0.00107321
-0.00950879
0.00120583
-0.00940876
0.00130494
-0.00929047
0.00136821
-0.00914473
0.00136771
-0.00896816
0.0013045
-0.00871679
0.00110847
-0.0084412
0.00084684
-0.00798762
0.00043471
-0.00741944
0.000160955
-0.005837
-0.00248014
-0.000761037
-0.0103934
-0.000525422
-0.0103395
-0.000295021
-0.0102652
-7.33967e-05
-0.0101907
0.000140797
-0.0101145
0.000343665
-0.0100327
0.000535512
-0.00995016
0.000712673
-0.00985796
0.000873358
-0.00976032
0.0010118
-0.00964724
0.00112406
-0.00952102
0.00119967
-0.00936609
0.00123598
-0.00918103
0.00121557
-0.00894775
0.00114826
-0.00864948
0.00102503
-0.00831797
0.000822929
-0.00778552
0.000568963
-0.00716547
0.00022622
-0.00549426
-0.00225392
-0.000738191
-0.0106318
-0.000506765
-0.0105709
-0.000280575
-0.0104914
-6.38113e-05
-0.0104075
0.000145095
-0.0103234
0.000341906
-0.0102295
0.000526739
-0.010135
0.000695511
-0.0100267
0.000846078
-0.00991089
0.000972862
-0.00977402
0.00107161
-0.00961977
0.00113193
-0.00942641
0.00115074
-0.00919984
0.00110603
-0.00890304
0.00100801
-0.00855147
0.000801311
-0.00811127
0.000564125
-0.00754834
0.000241735
-0.00684308
2.50991e-05
-0.00527762
-0.00222882
-0.000715276
-0.0108665
-0.000488089
-0.0107981
-0.000266145
-0.0107133
-5.43117e-05
-0.0106193
0.000149276
-0.010527
0.00033994
-0.0104202
0.000517689
-0.0103127
0.000678236
-0.0101873
0.000818962
-0.0100516
0.000934486
-0.00988954
0.00101962
-0.0097049
0.00106644
-0.00947323
0.00106899
-0.00920239
0.00101532
-0.00884936
0.000909576
-0.00844573
0.000732644
-0.00793434
0.000506521
-0.00732222
0.000230478
-0.00656704
2.60764e-05
-0.00507322
-0.00220274
-0.0006915
-0.0110979
-0.000468077
-0.0110215
-0.000249764
-0.0109316
-4.21201e-05
-0.010827
0.000157044
-0.0107262
0.0003427
-0.0106059
0.000514868
-0.0104849
0.000669078
-0.0103415
0.000802506
-0.010185
0.000909954
-0.00999699
0.000985937
-0.00978089
0.0010237
-0.00951099
0.00101646
-0.00919515
0.000954656
-0.00878755
0.000841854
-0.00833292
0.000650163
-0.00774265
0.000434234
-0.00710629
0.000154876
-0.00628768
-1.627e-05
-0.00490207
-0.00221901
-0.00066737
-0.0113262
-0.000447477
-0.0112414
-0.000232525
-0.0111466
-2.87211e-05
-0.0110308
0.000166423
-0.0109213
0.000347619
-0.0107871
0.000515009
-0.0106523
0.000664079
-0.0104906
0.000791954
-0.0103129
0.000893596
-0.0100986
0.000963302
-0.00985059
0.000995181
-0.00954287
0.000981046
-0.00918102
0.000916659
-0.00872317
0.000798741
-0.00821501
0.000618945
-0.00756285
0.00040381
-0.00689115
0.000120115
-0.00600399
-3.65525e-05
-0.00474541
-0.00225557
-0.000642704
-0.0115517
-0.000426006
-0.0114581
-0.000213991
-0.0113586
-1.35726e-05
-0.0112312
0.00017798
-0.0111129
0.000355307
-0.0109644
0.000518663
-0.0108157
0.000663617
-0.0106355
0.000787456
-0.0104368
0.000885657
-0.0101968
0.000953113
-0.00991805
0.000985002
-0.00957476
0.000974806
-0.00917082
0.000921012
-0.00866937
0.000821082
-0.00811508
0.000667696
-0.00740947
0.00048511
-0.00670857
0.000229981
-0.00574886
7.37426e-05
-0.00458917
-0.00218182
-0.000617973
-0.0117741
-0.000403586
-0.0116725
-0.000194161
-0.011568
3.45816e-06
-0.0114288
0.000192046
-0.0113014
0.000366305
-0.0111387
0.000526589
-0.0109759
0.00066853
-0.0107775
0.000789208
-0.0105574
0.000884396
-0.010292
0.000948849
-0.0099825
0.000977696
-0.0096036
0.000962368
-0.00915549
0.000905135
-0.00861214
0.000796618
-0.00800656
0.000644137
-0.00725698
0.000441431
-0.00650586
0.000178094
-0.00548552
-6.72195e-06
-0.00440435
-0.00218854
-0.00166429
-0.0127582
0.013134
-0.00204376
-0.0127174
0.0130969
-0.00242501
-0.0126743
0.0130555
-0.00281125
-0.0126472
0.0130334
-0.00320077
-0.0126255
0.0130151
-0.00359444
-0.0126208
0.0130145
-0.00398617
-0.0126254
0.0130171
-0.00435767
-0.0126373
0.0130088
-0.00465785
-0.0126133
0.0129135
-0.00478503
-0.0124422
0.0125694
-0.00459819
-0.0118955
0.0117086
-0.00398106
-0.0106634
0.0100463
-0.00294976
-0.00848755
0.00745625
-0.00175384
-0.00550225
0.00430633
-0.000787021
-0.00246177
0.00149495
-0.000223414
-0.000307204
-0.000256403
2.59558e-05
0.00081588
-0.00106525
5.88851e-05
0.0011722
-0.00120513
1.40733e-05
0.000981269
-0.000936458
0.000391826
-0.000377753
-0.00164866
-0.0123821
-0.00202612
-0.0123399
-0.00240604
-0.0122944
-0.00279023
-0.012263
-0.00317891
-0.0122369
-0.00357399
-0.0122257
-0.00397549
-0.0122239
-0.00437819
-0.0122346
-0.00475498
-0.0122365
-0.0050293
-0.0121679
-0.00505675
-0.011868
-0.00465813
-0.011062
-0.0037345
-0.00941118
-0.00244125
-0.00679549
-0.00123208
-0.00367095
-0.000461937
-0.00107734
-0.000101648
0.000455591
5.24528e-06
0.0010653
5.41817e-06
0.000981097
0.000397245
-0.00163181
-0.0120062
-0.00200863
-0.0119631
-0.00238789
-0.0119151
-0.00277061
-0.0118803
-0.00315753
-0.0118499
-0.00354956
-0.0118337
-0.00394625
-0.0118272
-0.00434409
-0.0118368
-0.00472767
-0.0118529
-0.00505075
-0.0118448
-0.00521136
-0.0117074
-0.00504217
-0.0112312
-0.00436514
-0.0100882
-0.00315778
-0.00800285
-0.0017666
-0.00506213
-0.000732348
-0.00211159
-0.000212839
-6.39187e-05
-3.82722e-05
0.000890737
-2.17482e-05
0.000964573
0.000375496
-0.00161326
-0.011631
-0.00198883
-0.0115876
-0.00236663
-0.0115373
-0.00274749
-0.0114994
-0.00313292
-0.0114645
-0.00352483
-0.0114418
-0.00392542
-0.0114266
-0.00433614
-0.0114261
-0.00475108
-0.011438
-0.00513979
-0.0114561
-0.00542185
-0.0114254
-0.0054476
-0.0112055
-0.00502071
-0.0105151
-0.00400133
-0.00902224
-0.00253119
-0.00653227
-0.00115329
-0.00348949
-0.00034209
-0.000875121
-3.44817e-05
0.000583129
6.90944e-06
0.000923182
0.000382406
-0.00159354
-0.0112565
-0.0019679
-0.0112132
-0.00234422
-0.011161
-0.00272289
-0.0111207
-0.00310531
-0.0110821
-0.00349251
-0.0110546
-0.00388603
-0.0110331
-0.00428774
-0.0110244
-0.00469898
-0.0110267
-0.00511137
-0.0110438
-0.00548266
-0.0110541
-0.00569914
-0.010989
-0.00556327
-0.010651
-0.00485231
-0.0097332
-0.00350504
-0.00787954
-0.00187366
-0.00512087
-0.000627274
-0.00212151
-6.67544e-05
2.26092e-05
6.20341e-06
0.000850224
0.000388609
-0.0015723
-0.0108829
-0.00194512
-0.0108404
-0.00231963
-0.0107865
-0.00269606
-0.0107443
-0.0030762
-0.0107019
-0.00346142
-0.0106694
-0.00385429
-0.0106402
-0.00425697
-0.0106217
-0.00467133
-0.0106124
-0.00509558
-0.0106195
-0.00551224
-0.0106374
-0.00585541
-0.0106458
-0.00597339
-0.010533
-0.0056232
-0.0100834
-0.00458829
-0.00891445
-0.00292228
-0.00678688
-0.00122269
-0.0038211
-0.000163238
-0.00103684
0.000113869
0.000573117
0.000502478
-0.00154975
-0.0105103
-0.00192091
-0.0104692
-0.0022934
-0.010414
-0.00266708
-0.0103706
-0.0030436
-0.0103254
-0.00342367
-0.0102893
-0.00380934
-0.0102545
-0.00420297
-0.0102281
-0.0046086
-0.0102068
-0.0050304
-0.0101977
-0.00546795
-0.0101999
-0.00589315
-0.0102206
-0.00621354
-0.0102126
-0.00622328
-0.0100736
-0.005644
-0.00949373
-0.00427775
-0.00815313
-0.00236128
-0.00573757
-0.000731857
-0.00266627
-5.84166e-05
-0.000100324
0.000444062
-0.00152581
-0.0101389
-0.00189514
-0.0100999
-0.00226544
-0.0100437
-0.00263645
-0.00999962
-0.00300994
-0.00995192
-0.00338666
-0.00991258
-0.00376856
-0.00987262
-0.00415726
-0.00983938
-0.00455558
-0.00980844
-0.00496681
-0.00978647
-0.00539706
-0.00976961
-0.00584488
-0.00977279
-0.00627987
-0.00977761
-0.00657318
-0.00978033
-0.00647537
-0.00959154
-0.00563142
-0.00899708
-0.00390695
-0.00746204
-0.00162708
-0.00494614
-9.162e-05
-0.00163578
0.000352442
-0.00150068
-0.00976874
-0.00186801
-0.00973256
-0.00223563
-0.00967606
-0.00260342
-0.00963183
-0.00297274
-0.00958261
-0.00334416
-0.00954115
-0.0037194
-0.00949739
-0.00410007
-0.0094587
-0.00448879
-0.00941973
-0.00488806
-0.00938721
-0.00530438
-0.00935328
-0.00574247
-0.00933469
-0.00621136
-0.00930872
-0.00666781
-0.00932388
-0.00698618
-0.00927317
-0.00683402
-0.00914924
-0.00585925
-0.00843681
-0.00382401
-0.00698138
-0.00144297
-0.00401682
-0.00109053
-0.00147446
-0.00183929
-0.00220395
-0.00256813
-0.00293351
-0.00330004
-0.00366964
-0.00404325
-0.00442278
-0.00480938
-0.00520859
-0.00562096
-0.00606288
-0.00652487
-0.00700842
-0.00733758
-0.00719702
-0.00579236
-0.00317776
-0.00453436
-0.0113782
-0.00493204
-0.0112748
-0.0053378
-0.0111623
-0.00573745
-0.0110291
-0.00614904
-0.0108898
-0.00655269
-0.010735
-0.00696073
-0.0105679
-0.00735383
-0.0103844
-0.0077274
-0.0101839
-0.00806285
-0.00995657
-0.00834437
-0.00970098
-0.00853525
-0.00941273
-0.00860325
-0.00908749
-0.00849769
-0.0087177
-0.00820225
-0.008302
-0.00761876
-0.00784048
-0.00678092
-0.00734369
-0.00545439
-0.00681206
-0.00352679
-0.00633195
-0.00571533
2.3628e-12
-0.00350729
-0.0110698
-0.0038008
-0.0109813
-0.00408305
-0.01088
-0.00435289
-0.0107593
-0.004614
-0.0106287
-0.00486182
-0.0104872
-0.00509684
-0.0103329
-0.00531567
-0.0101655
-0.00551615
-0.00998339
-0.0056864
-0.00978632
-0.00581362
-0.00957376
-0.00587966
-0.00934669
-0.00586068
-0.00910647
-0.0057217
-0.00885668
-0.00542369
-0.00860001
-0.00492253
-0.00834165
-0.0041769
-0.00808932
-0.00313876
-0.00785019
-0.00181624
-0.00765447
-0.00753158
1.64059e-12
-0.00288276
-0.0108022
-0.00313766
-0.0107264
-0.00337508
-0.0106426
-0.00359132
-0.0105431
-0.00378112
-0.0104389
-0.00394236
-0.0103259
-0.00407046
-0.0102048
-0.00416087
-0.0100751
-0.00420715
-0.00993711
-0.00420316
-0.0097903
-0.00414195
-0.00963497
-0.004017
-0.00947164
-0.00382169
-0.00930178
-0.00355047
-0.00912789
-0.00319583
-0.00895465
-0.00274924
-0.00878824
-0.00220323
-0.00863533
-0.00154959
-0.00850383
-0.000799135
-0.00840492
-0.00833071
1.54708e-12
-0.00208047
-0.0106007
-0.00226796
-0.0105389
-0.00244019
-0.0104704
-0.00259565
-0.0103876
-0.00273458
-0.0103
-0.00285458
-0.0102059
-0.00295275
-0.0101066
-0.00302526
-0.0100026
-0.00306781
-0.00989455
-0.00307461
-0.0097835
-0.00303904
-0.00967054
-0.00295362
-0.00955706
-0.00281078
-0.00944462
-0.0026036
-0.00933507
-0.00232779
-0.00923046
-0.00198259
-0.00913345
-0.00157042
-0.0090475
-0.00109698
-0.00897727
-0.000574538
-0.00892737
-0.00890525
1.34755e-12
-0.00167619
-0.0104444
-0.00181653
-0.0103986
-0.00193976
-0.0103471
-0.00204237
-0.010285
-0.00212289
-0.0102195
-0.00217947
-0.0101494
-0.0022104
-0.0100757
-0.00221424
-0.00999878
-0.00218967
-0.00991912
-0.00213589
-0.00983728
-0.00205233
-0.0097541
-0.00193873
-0.00967067
-0.00179484
-0.00958851
-0.0016204
-0.00950951
-0.00141496
-0.00943591
-0.00117846
-0.00936994
-0.000912277
-0.00931368
-0.000620959
-0.00926859
-0.000311987
-0.00923634
-0.00921723
1.19444e-12
-0.00116643
-0.0103244
-0.00127791
-0.0102871
-0.00137842
-0.0102466
-0.00146605
-0.0101974
-0.0015396
-0.0101459
-0.00159751
-0.0100915
-0.00163811
-0.0100351
-0.00165948
-0.00997741
-0.00165949
-0.00991911
-0.0016359
-0.00986088
-0.00158653
-0.00980346
-0.0015096
-0.0097476
-0.00140403
-0.00969407
-0.00126987
-0.00964368
-0.00110846
-0.00959731
-0.000922357
-0.00955605
-0.000714922
-0.00952112
-0.000489528
-0.00949398
-0.000250133
-0.00947574
-0.00946737
1.05255e-12
-0.00092297
-0.0102392
-0.000996389
-0.0102137
-0.00105849
-0.0101845
-0.00110671
-0.0101491
-0.00114074
-0.0101119
-0.00115984
-0.0100724
-0.00116371
-0.0100312
-0.00115227
-0.00998885
-0.00112569
-0.00994569
-0.00108436
-0.00990221
-0.00102878
-0.00985903
-0.000959514
-0.00981687
-0.000877019
-0.00977657
-0.000781682
-0.00973901
-0.000673882
-0.00970511
-0.000554317
-0.00967561
-0.00042433
-0.0096511
-0.000286401
-0.00963191
-0.000143713
-0.00961842
-0.00961108
1.02898e-12
-0.000637842
-0.0101712
-0.000701279
-0.0101503
-0.000757905
-0.0101279
-0.000806424
-0.0101006
-0.000845856
-0.0100725
-0.000875277
-0.0100429
-0.000893734
-0.0100128
-0.000900276
-0.00998231
-0.000893971
-0.00995199
-0.000873996
-0.00992219
-0.000839761
-0.00989327
-0.000791047
-0.00986559
-0.000728132
-0.00983948
-0.000651848
-0.0098153
-0.000563539
-0.00979342
-0.000464859
-0.00977429
-0.00035755
-0.00975841
-0.00024317
-0.00974629
-0.000123338
-0.00973826
-0.00973442
8.57899e-13
-0.000491069
-0.0101261
-0.000528808
-0.0101125
-0.000559824
-0.0100969
-0.000582561
-0.0100779
-0.000597136
-0.0100579
-0.000603335
-0.0100367
-0.000601274
-0.0100148
-0.000591199
-0.00999238
-0.000573481
-0.00996971
-0.000548574
-0.00994709
-0.000516946
-0.0099249
-0.000479015
-0.00990352
-0.000435116
-0.00988338
-0.00038551
-0.0098649
-0.00033047
-0.00984846
-0.000270435
-0.00983433
-0.000206152
-0.0098227
-0.000138777
-0.00981366
-6.96536e-05
-0.00980738
-0.00980407
7.37983e-13
-0.000345683
-0.0100886
-0.000380913
-0.0100773
-0.000412354
-0.0100654
-0.000439235
-0.010051
-0.000460871
-0.0100363
-0.000476695
-0.0100209
-0.000486147
-0.0100054
-0.00048871
-0.00998982
-0.000483931
-0.00997449
-0.000471476
-0.00995955
-0.000451193
-0.00994518
-0.000423174
-0.00993154
-0.00038779
-0.00991876
-0.000345679
-0.00990701
-0.000297678
-0.00989646
-0.000244704
-0.0098873
-0.000187634
-0.00987976
-0.00012725
-0.00987405
-6.43588e-05
-0.00987027
-0.00986843
6.83322e-13
-0.000253944
-0.0100651
-0.000273146
-0.0100581
-0.000288528
-0.0100501
-0.000299232
-0.0100403
-0.000305451
-0.01003
-0.000307181
-0.0100192
-0.00030461
-0.0100079
-0.000297992
-0.00999644
-0.000287631
-0.00998485
-0.000273852
-0.00997333
-0.000256952
-0.00996208
-0.000237172
-0.00995132
-0.000214683
-0.00994125
-0.000189606
-0.00993209
-0.000162071
-0.00992399
-0.000132298
-0.00991708
-0.00010066
-0.0099114
-6.76913e-05
-0.00990702
-3.3979e-05
-0.00990398
-0.00990241
6.93536e-13
-0.000186983
-0.0100446
-0.000206436
-0.0100386
-0.000223903
-0.0100326
-0.000238935
-0.0100253
-0.000251096
-0.0100179
-0.000260021
-0.0100103
-0.000265365
-0.0100026
-0.000266819
-0.00999499
-0.000264129
-0.00998754
-0.000257129
-0.00998033
-0.000245775
-0.00997343
-0.000230175
-0.00996692
-0.000210593
-0.00996084
-0.000187427
-0.00995526
-0.000161163
-0.00995026
-0.000132303
-0.00994594
-0.000101314
-0.00994239
-6.86187e-05
-0.00993971
-3.46609e-05
-0.00993794
-0.00993707
6.57555e-13
-0.00012656
-0.0100324
-0.000136243
-0.0100289
-0.000143786
-0.010025
-0.00014875
-0.0100203
-0.0001513
-0.0100153
-0.000151509
-0.01001
-0.00014954
-0.0100046
-0.00014559
-0.00999894
-0.000139876
-0.00999325
-0.000132604
-0.0099876
-0.00012395
-0.00998209
-0.00011404
-0.00997683
-0.000102949
-0.00997193
-9.07209e-05
-0.00996749
-7.74004e-05
-0.00996358
-6.30831e-05
-0.00996025
-4.79418e-05
-0.00995753
-3.22194e-05
-0.00995543
-1.6172e-05
-0.00995399
-0.00995324
4.79559e-13
-0.000100865
-0.0100211
-0.000111649
-0.0100182
-0.000121437
-0.0100153
-0.000129962
-0.0100118
-0.000136962
-0.0100083
-0.000142192
-0.0100048
-0.000145436
-0.0100013
-0.000146495
-0.00999788
-0.000145213
-0.00999453
-0.00014149
-0.00999132
-0.000135307
-0.00998827
-0.000126739
-0.0099854
-0.000115948
-0.00998272
-0.000103171
-0.00998026
-8.8688e-05
-0.00997806
-7.27793e-05
-0.00997616
-5.57051e-05
-0.00997461
-3.77052e-05
-0.00997343
-1.90342e-05
-0.00997266
-0.00997228
3.41924e-13
-5.86824e-05
-0.0100149
-6.35044e-05
-0.0100133
-6.7123e-05
-0.0100116
-6.93439e-05
-0.0100096
-7.0282e-05
-0.0100074
-7.00331e-05
-0.0100051
-6.87215e-05
-0.0100026
-6.64913e-05
-0.0100001
-6.34879e-05
-0.00999754
-5.98427e-05
-0.00999497
-5.56577e-05
-0.00999246
-5.09972e-05
-0.00999006
-4.58886e-05
-0.00998783
-4.03367e-05
-0.00998581
-3.43468e-05
-0.00998405
-2.79496e-05
-0.00998256
-2.12153e-05
-0.00998134
-1.42461e-05
-0.0099804
-7.14777e-06
-0.00997976
-0.00997943
3.08297e-13
-5.34133e-05
-0.0100087
-5.94159e-05
-0.0100073
-6.49456e-05
-0.0100061
-6.98323e-05
-0.0100047
-7.39372e-05
-0.0100033
-7.70868e-05
-0.0100019
-7.91505e-05
-0.0100006
-7.99946e-05
-0.00999926
-7.95172e-05
-0.00999802
-7.76539e-05
-0.00999683
-7.4391e-05
-0.00999572
-6.97709e-05
-0.00999468
-6.38905e-05
-0.00999371
-5.68878e-05
-0.00999282
-4.89225e-05
-0.00999202
-4.0155e-05
-0.00999133
-3.07339e-05
-0.00999076
-2.07987e-05
-0.00999034
-1.04968e-05
-0.00999006
-0.00998992
3.58498e-13
-2.23749e-05
-0.0100057
-2.46591e-05
-0.0100051
-2.62511e-05
-0.0100045
-2.71157e-05
-0.0100038
-2.73134e-05
-0.0100031
-2.69551e-05
-0.0100023
-2.6122e-05
-0.0100014
-2.49244e-05
-0.0100005
-2.34595e-05
-0.00999948
-2.18117e-05
-0.00999848
-2.0041e-05
-0.00999749
-1.81787e-05
-0.00999654
-1.62297e-05
-0.00999566
-1.41821e-05
-0.00999486
-1.20219e-05
-0.00999418
-9.74723e-06
-0.0099936
-7.37575e-06
-0.00999313
-4.94023e-06
-0.00999277
-2.47444e-06
-0.00999252
-0.0099924
3.13145e-13
-2.61874e-05
-0.0100023
-2.93865e-05
-0.0100019
-3.241e-05
-0.0100015
-3.51218e-05
-0.0100011
-3.74859e-05
-0.0100007
-3.93596e-05
-0.0100004
-4.06812e-05
-0.0100001
-4.13514e-05
-0.00999979
-4.13082e-05
-0.00999952
-4.05055e-05
-0.00999928
-3.89317e-05
-0.00999906
-3.6608e-05
-0.00999886
-3.35886e-05
-0.00999867
-2.99508e-05
-0.0099985
-2.5784e-05
-0.00999835
-2.11777e-05
-0.00999821
-1.62151e-05
-0.0099981
-1.09747e-05
-0.00999801
-5.5387e-06
-0.00999796
-0.00999794
2.81059e-13
-2.28464e-06
-0.0100013
-2.98558e-06
-0.0100012
-3.29838e-06
-0.0100012
-3.32405e-06
-0.0100011
-3.03389e-06
-0.010001
-2.58462e-06
-0.0100008
-1.99509e-06
-0.0100007
-1.37286e-06
-0.0100004
-7.71585e-07
-0.0100001
-2.52367e-07
-0.0099998
1.53318e-07
-0.00999947
4.31292e-07
-0.00999914
5.9067e-07
-0.00999883
6.52186e-07
-0.00999856
6.41687e-07
-0.00999833
5.79939e-07
-0.00999815
4.79044e-07
-0.009998
3.44225e-07
-0.00999788
1.80778e-07
-0.0099978
-0.00999775
2.31317e-14
-9.80564e-06
-1.09622e-05
-1.21435e-05
-1.32185e-05
-1.42345e-05
-1.50821e-05
-1.57461e-05
-1.61576e-05
-1.62821e-05
-1.60846e-05
-1.55535e-05
-1.46931e-05
-1.35271e-05
-1.20907e-05
-1.04256e-05
-8.57257e-06
-6.56867e-06
-4.44797e-06
-2.2454e-06
-4.52855e-14
0.00565036
-0.00696351
0.00559497
-0.00697638
0.0055262
-0.00699254
0.00544212
-0.00700858
0.00534059
-0.00702235
0.00521938
-0.00703161
0.00507616
-0.00703401
0.00490834
-0.00702709
0.00471311
-0.00700816
0.00448736
-0.00697396
0.00422766
-0.00692044
0.00393035
-0.00684248
0.00359165
-0.00673396
0.00320815
-0.00658809
0.00277737
-0.00639847
0.00229863
-0.00616171
0.00177386
-0.00588378
0.0012086
-0.00559037
0.000612649
-0.00533363
-0.00518067
-1.13813e-11
0.00567069
-0.00689714
0.0055962
-0.00690189
0.0055108
-0.00690715
0.00541223
-0.00691001
0.00529804
-0.00690816
0.00516565
-0.00689922
0.00501243
-0.00688079
0.00483567
-0.00685034
0.00463253
-0.00680502
0.00439995
-0.00674137
0.00413458
-0.00665507
0.00383296
-0.00654085
0.00349174
-0.00639274
0.00310826
-0.00620461
0.00268119
-0.00597139
0.00221107
-0.00569159
0.00170076
-0.00537347
0.00115582
-0.00504543
0.000584932
-0.00476274
-0.00459573
-1.39631e-11
0.00570924
-0.00682161
0.00562756
-0.00682021
0.00553643
-0.00681602
0.00543266
-0.00680624
0.00531304
-0.00678853
0.00517455
-0.00676073
0.00501441
-0.00672064
0.00482989
-0.00666582
0.00461823
-0.00659336
0.0043765
-0.00649964
0.00410163
-0.00638019
0.00379059
-0.00622981
0.00344084
-0.00604299
0.00305086
-0.00581464
0.00262068
-0.00554121
0.00215218
-0.00522309
0.00164919
-0.00487048
0.00111736
-0.0045136
0.000564359
-0.00420974
-0.00403138
-1.29426e-11
0.00578507
-0.00674586
0.00570416
-0.0067393
0.00561498
-0.00672684
0.0055144
-0.00670566
0.00539949
-0.00667362
0.00526744
-0.00662868
0.0051154
-0.00656861
0.00494033
-0.00649075