/*--------------------------------*- C++ -*----------------------------------*\
  =========                 |
  \\      /  F ield         | OpenFOAM: The Open Source CFD Toolbox
   \\    /   O peration     | Website:  https://openfoam.org
    \\  /    A nd           | Version:  7
     \\/     M anipulation  |
\*---------------------------------------------------------------------------*/
FoamFile
{
    version     2.0;
    format      ascii;
    class       volScalarField;
    location    "20";
    object      p;
}
// * * * * * * * * * * * * * * * * * * * * * * * * * * * * * * * * * * * * * //

dimensions      [0 2 -2 0 0 0 0];

internalField   nonuniform List<scalar> 
225
(
0.0876624
0.0821822
0.0929854
0.0811041
0.103333
0.0847926
0.136427
0.106877
0.2757
0.0876646
0.0821832
0.0930013
0.0810905
0.103378
0.0847458
0.136626
0.106812
0.277345
0.0876667
0.0821844
0.0930166
0.0810777
0.103423
0.084701
0.13683
0.106748
0.279007
0.0876688
0.0821852
0.0930316
0.0810641
0.103467
0.0846523
0.137023
0.106656
0.280534
0.0876709
0.0821857
0.0930464
0.08105
0.103509
0.0846006
0.137207
0.106542
0.281961
0.0876324
0.0821902
0.0928059
0.0812975
0.102875
0.085466
0.134583
0.108477
0.258364
0.0876363
0.0821869
0.0928325
0.0812745
0.102941
0.0854143
0.134844
0.108507
0.26134
0.0876395
0.0821866
0.0928502
0.0812536
0.102985
0.0853323
0.135018
0.108276
0.263071
0.0876425
0.0821869
0.092867
0.0812358
0.10303
0.0852667
0.135203
0.108127
0.264817
0.0876454
0.0821868
0.0928845
0.0812179
0.103076
0.0852045
0.135395
0.107997
0.266633
0.0876484
0.0821864
0.092902
0.0811992
0.103122
0.0851386
0.135582
0.107842
0.26838
0.0876514
0.0821857
0.0929193
0.08118
0.103166
0.0850693
0.135763
0.10766
0.270035
0.0876544
0.0821846
0.0929364
0.08116
0.10321
0.0849964
0.135939
0.107452
0.271624
0.0876574
0.0821833
0.0929536
0.0811393
0.103254
0.0849202
0.136115
0.107223
0.273188
0.0876602
0.0821822
0.09297
0.08112
0.103296
0.0848511
0.136286
0.107033
0.274651
0.0848704
0.0821213
0.0853393
0.0791427
0.081616
0.0710531
0.0633113
0.0489353
0.0131464
0.0854923
0.081781
0.0866733
0.0791118
0.0843331
0.0725613
0.0699873
0.0549395
0.0194462
0.0857886
0.0817267
0.0873719
0.0792452
0.0861938
0.0735218
0.0742321
0.0579707
0.0249245
0.0862208
0.0816405
0.0884177
0.0794337
0.088839
0.0749106
0.0816378
0.0623937
0.0350806
0.0865699
0.0816234
0.0893335
0.079687
0.0914077
0.076386
0.0889114
0.0667594
0.0472881
0.08687
0.0816695
0.0901678
0.0799968
0.0940302
0.077956
0.0977887
0.0715905
0.0670965
0.0871741
0.0816602
0.0910474
0.0802191
0.0966377
0.079646
0.106543
0.0777723
0.0927222
0.0873427
0.0818833
0.0915457
0.0807161
0.0985947
0.0814566
0.115331
0.0841321
0.125673
0.0875866
0.0818217
0.0923821
0.0807384
0.100969
0.0829871
0.124144
0.093149
0.176436
0.0875661
0.0822891
0.0923456
0.0815647
0.101766
0.0851931
0.130185
0.102207
0.207886
)
;

boundaryField
{
    inlet
    {
        type            zeroGradient;
    }
    outlet
    {
        type            fixedValue;
        value           nonuniform 0();
    }
    polygon
    {
        type            zeroGradient;
    }
    top
    {
        type            symmetryPlane;
    }
    bottom
    {
        type            symmetryPlane;
    }
    outside
    {
        type            slip;
    }
    procBoundary0to1
    {
        type            processor;
        value           nonuniform List<scalar> 5(0.00277868 0.0119087 0.0150625 0.0179221 0.0211374);
    }
    procBoundary0to4
    {
        type            processor;
        value           nonuniform List<scalar> 9(0.087673 0.0821859 0.093061 0.0810355 0.10355 0.0845468 0.137384 0.10641 0.283308);
    }
    procBoundary0to5
    {
        type            processor;
        value           nonuniform List<scalar> 
20
(
0.170939
0.177949
0.184318
0.19056
0.196656
0.103799
0.110949
0.117771
0.124508
0.131145
0.137668
0.144044
0.150168
0.156157
0.162875
0.0116159
0.0205037
-0.0112681
0.0386522
0.0204773
)
;
    }
}


// ************************************************************************* //
