/*--------------------------------*- C++ -*----------------------------------*\
  =========                 |
  \\      /  F ield         | OpenFOAM: The Open Source CFD Toolbox
   \\    /   O peration     | Website:  https://openfoam.org
    \\  /    A nd           | Version:  7
     \\/     M anipulation  |
\*---------------------------------------------------------------------------*/
FoamFile
{
    version     2.0;
    format      ascii;
    class       surfaceScalarField;
    location    "20";
    object      phi;
}
// * * * * * * * * * * * * * * * * * * * * * * * * * * * * * * * * * * * * * //

dimensions      [0 3 -1 0 0 0 0];

internalField   nonuniform List<scalar> 
416
(
0.00086385
1.20115e-05
-1.14273e-05
0.000864084
-3.19895e-05
3.17554e-05
0.000861136
-4.23717e-05
4.53196e-05
0.000860126
-9.42943e-05
9.53044e-05
0.000855322
-5.43611e-05
5.9165e-05
0.000842928
-0.000486146
0.00049854
0.000823443
-0.000348844
0.000368329
0.00075402
-0.00250741
0.00257683
-0.00278446
0.00289781
0.000863928
1.25174e-05
0.000864053
-3.21148e-05
0.000861239
-3.9557e-05
0.000860048
-9.31035e-05
0.000855499
-4.98124e-05
0.000842784
-0.000473431
0.000823887
-0.000329947
0.0007532
-0.00243672
-0.00267142
0.000864005
1.29466e-05
0.000864026
-3.21357e-05
0.000861338
-3.68697e-05
0.000859976
-9.17407e-05
0.00085567
-4.55068e-05
0.000842651
-0.000460412
0.000824315
-0.000311611
0.000752411
-0.00236482
-0.00255877
0.000864081
1.32999e-05
0.000863999
-3.20541e-05
0.000861437
-3.43077e-05
0.000859906
-9.02098e-05
0.000855839
-4.14392e-05
0.000842526
-0.000447099
0.000824743
-0.000293828
0.000751679
-0.00229176
-0.00244651
0.000864156
0.000863974
0.000861535
0.00085984
0.000856005
0.000842409
0.000825169
0.000751002
0.000756584
4.0015e-06
-2.90246e-06
0.000757605
-2.60914e-05
2.50699e-05
0.000753947
-7.4118e-05
7.77765e-05
0.000754482
-9.65604e-05
9.60251e-05
0.000747673
-0.000111463
0.000118272
0.000739109
-0.000587598
0.000596162
0.000713595
-0.000575693
0.000601207
0.000660724
-0.00311375
0.00316662
-0.00412506
0.00426356
0.000756622
5.06179e-06
0.000757603
-2.70721e-05
0.000753972
-7.0487e-05
0.000754454
-9.70427e-05
0.000747712
-0.000104721
0.000739024
-0.00057891
0.000713629
-0.000550298
0.000659348
-0.00305947
-0.00398603
0.00075668
6.06498e-06
0.000757572
-2.79643e-05
0.000754047
-6.69626e-05
0.000754371
-9.73666e-05
0.000747863
-9.82126e-05
0.000738853
-0.0005699
0.000714042
-0.000525488
0.000658179
-0.0030036
-0.00384766
0.000756738
7.01012e-06
0.000757541
-2.87682e-05
0.000754124
-6.35456e-05
0.000754291
-9.7533e-05
0.000748017
-9.19382e-05
0.000738695
-0.000560578
0.000714474
-0.000501267
0.000657169
-0.0029463
-0.00370993
0.000756796
7.8964e-06
0.000757512
-2.94839e-05
0.000754203
-6.02367e-05
0.000754213
-9.75431e-05
0.000748173
-8.58976e-05
0.000738546
-0.000550951
0.000714914
-0.000477635
0.00065625
-0.00288763
-0.00357285
0.000756856
8.72316e-06
0.000757484
-3.01117e-05
0.000754283
-5.70363e-05
0.000754139
-9.73984e-05
0.000748331
-8.009e-05
0.000738408
-0.000541028
0.000715367
-0.000454594
0.00065543
-0.0028277
-0.00343641
0.000756916
9.48995e-06
0.000757456
-3.06523e-05
0.000754365
-5.39443e-05
0.000754067
-9.71005e-05
0.000748491
-7.45144e-05
0.00073828
-0.000530817
0.00071583
-0.000432144
0.000654707
-0.00276658
-0.00330064
0.000756976
1.01964e-05
0.00075743
-3.11062e-05
0.000754447
-5.09608e-05
0.000753997
-9.66513e-05
0.000748652
-6.91691e-05
0.000738162
-0.000520327
0.000716301
-0.000410282
0.000654072
-0.00270435
-0.00316556
0.000757037
1.08425e-05
0.000757405
-3.14742e-05
0.000754529
-4.80851e-05
0.000753931
-9.60531e-05
0.000748813
-6.40517e-05
0.000738054
-0.000509567
0.000716779
-0.000389008
0.000653518
-0.00264109
-0.00303122
0.000757098
0.000757379
0.000754614
0.000753865
0.000748978
0.000737951
0.000717272
0.000653021
0.0165186
0.000413925
0.0164595
-0.000667518
0.0165474
0.000536884
0.0165091
-0.000945513
0.0166422
0.000775935
0.0167345
-0.00197059
0.0168927
0.000320593
0.0173658
-0.00375285
-0.000947506
0.0165318
0.000346574
0.0164526
-0.000588279
0.0165544
0.000435108
0.0164864
-0.000877547
0.0166362
0.000626119
0.0166668
-0.00200122
0.0168435
0.00014395
0.0173006
-0.00420996
-0.00113664
0.0165437
0.00026734
0.0164456
-0.000490159
0.0165602
0.000320523
0.0164608
-0.000778146
0.0166258
0.000461065
0.0165988
-0.00197418
0.0167886
-4.58902e-05
0.0171976
-0.00461897
-0.00132245
0.0165527
0.000179124
0.0164363
-0.00037382
0.0165619
0.000194916
0.0164282
-0.000644372
0.0166077
0.000281546
0.0164947
-0.00186115
0.0167197
-0.000270958
0.0170174
-0.00491664
-0.00155255
0.0165517
9.19306e-05
0.01643
-0.000252126
0.0165561
6.87388e-05
0.0164002
-0.000488464
0.0165851
9.67142e-05
0.01639
-0.00166607
0.0166341
-0.000515047
0.016751
-0.00503355
-0.00186589
0.0165356
2.07804e-05
0.0164299
-0.000146441
0.0165369
-3.82796e-05
0.0163863
-0.000337776
0.0165513
-6.82761e-05
0.0162978
-0.00141264
0.0165415
-0.000758721
0.0164253
-0.00491734
-0.00238442
0.0165055
-2.02582e-05
0.0164344
-7.53773e-05
0.016501
-0.000104826
0.0163873
-0.000224116
0.0164975
-0.00017849
0.0162432
-0.0011583
0.0164253
-0.000940794
0.0161014
-0.00459342
-0.00300801
0.0164691
-2.48773e-05
0.0164416
-4.78918e-05
0.0164525
-0.000115728
0.0163971
-0.000168696
0.0164173
-0.000198666
0.016223
-0.000964033
0.0162419
-0.000959711
0.0158777
-0.00422921
-0.00377251
0.0164492
-9.65733e-06
0.0164408
-3.94367e-05
0.0164214
-9.63343e-05
0.0163915
-0.000138827
0.0163557
-0.000162802
0.0161831
-0.000791485
0.0160624
-0.000839001
0.0155198
-0.00368656
-0.0042242
0.0164519
0.0164375
0.016419
0.0163762
0.0163317
0.0161363
0.0158985
0.0153786
)
;

boundaryField
{
    inlet
    {
        type            calculated;
        value           nonuniform List<scalar> 
25
(
-0.000864434
-0.000864434
-0.000864434
-0.000864434
-0.000864434
-0.000757683
-0.000757683
-0.000757683
-0.000757683
-0.000757683
-0.000757683
-0.000757683
-0.000757683
-0.000757683
-0.000757683
-0.0164645
-0.0164645
-0.0164645
-0.0164645
-0.0164645
-0.0164645
-0.0164645
-0.0164645
-0.0164645
-0.0164645
)
;
    }
    outlet
    {
        type            calculated;
        value           nonuniform 0();
    }
    polygon
    {
        type            calculated;
        value           nonuniform 0();
    }
    top
    {
        type            symmetryPlane;
        value           uniform 0;
    }
    bottom
    {
        type            symmetryPlane;
        value           uniform 0;
    }
    outside
    {
        type            calculated;
        value           nonuniform List<scalar> 9(-0.000468054 0.000726626 -0.000624769 0.000983766 -0.00090905 0.00187838 -0.000478867 0.00327979 0.000742263);
    }
    procBoundary0to1
    {
        type            processor;
        value           nonuniform List<scalar> 5(0.017571 0.0174897 0.0173834 0.0172475 0.0170643);
    }
    procBoundary0to4
    {
        type            processor;
        value           nonuniform List<scalar> 9(1.35783e-05 -3.1872e-05 -3.18689e-05 -8.85151e-05 -3.76039e-05 -0.000433503 -0.000276589 -0.00221759 -0.00233467);
    }
    procBoundary0to5
    {
        type            processor;
        value           nonuniform List<scalar> 
20
(
0.000640671
0.000640162
0.000639755
0.000639422
0.000639166
0.000522224
0.000520318
0.000519811
0.000519442
0.000519164
0.000518995
0.000518938
0.000518985
0.000519182
0.000519611
0.0169438
0.0167249
0.0166422
0.0159714
0.015418
)
;
    }
}


// ************************************************************************* //
