2 	0.0411612 	2.19518e-18 	1.00406 	-0.00641248 	7.33121e-17
2 	0.123483 	3.92991e-18 	1.00378 	-0.00698103 	1.37858e-16
2 	0.205806 	3.92991e-18 	1.0034 	-0.00721113 	-1.06507e-17
2 	0.288128 	3.92991e-18 	1.00295 	-0.00739949 	-1.18667e-16
2 	0.37045 	3.92991e-18 	1.0024 	-0.00748564 	-1.10245e-16
2 	0.452773 	3.92991e-18 	1.00175 	-0.00746859 	-3.27288e-17
2 	0.535095 	3.92991e-18 	1.00095 	-0.00734329 	-6.93831e-17
2 	0.617417 	3.92991e-18 	0.999949 	-0.00711476 	5.02067e-17
2 	0.69974 	3.92991e-18 	0.998687 	-0.00679051 	3.7633e-17
2 	0.782062 	3.20924e-18 	0.99711 	-0.00638444 	-4.38733e-17
2 	0.864384 	1.84824e-18 	0.995195 	-0.00591712 	1.15842e-16
2 	0.946707 	3.23602e-18 	0.992965 	-0.00541374 	5.9767e-17
2 	1.02903 	3.23602e-18 	0.990512 	-0.00490015 	4.08917e-17
2 	1.11135 	3.23602e-18 	0.987993 	-0.00439731 	1.13525e-16
2 	1.19367 	3.23602e-18 	0.985617 	-0.00391567 	1.13833e-16
2 	1.276 	1.5013e-18 	0.983603 	-0.00345223 	5.47203e-17
2 	1.35832 	-2.33428e-19 	0.982133 	-0.0029867 	1.08725e-16
2 	1.44064 	-2.33428e-19 	0.981306 	-0.00247131 	1.12654e-16
2 	1.52296 	-2.33428e-19 	0.981103 	-0.00198698 	5.91809e-17
2 	1.60529 	-2.33428e-19 	0.981407 	-0.0011359 	1.25389e-16
2 	1.65456 	1.6669e-18 	0.981767 	-0.000980163 	1.47089e-16
2 	1.67078 	7.6895e-18 	0.981894 	-0.000945338 	1.49758e-16
2 	1.687 	9.38619e-18 	0.982024 	-0.000912562 	1.47037e-16
2 	1.70322 	4.14384e-18 	0.982155 	-0.000876761 	1.39795e-16
2 	1.71944 	9.83009e-19 	0.982283 	-0.000838532 	1.26693e-16
2 	1.73566 	2.33231e-18 	0.982408 	-0.000798445 	8.48383e-17
2 	1.75188 	5.06924e-18 	0.982527 	-0.000756632 	5.60787e-17
2 	1.76811 	6.24477e-18 	0.982639 	-0.000713322 	3.63386e-17
2 	1.78433 	6.20584e-18 	0.982742 	-0.000669587 	2.23181e-17
2 	1.80055 	8.17278e-18 	0.982836 	-0.000624613 	1.32884e-17
2 	1.81823 	1.51608e-17 	0.982925 	-0.000563173 	6.7215e-18
2 	1.83736 	1.44532e-17 	0.983011 	-0.000509346 	2.3643e-18
2 	1.85649 	1.28781e-17 	0.983089 	-0.00045368 	3.1786e-18
2 	1.87563 	1.32112e-17 	0.983158 	-0.000395841 	1.29317e-17
2 	1.89476 	1.14626e-17 	0.983218 	-0.000337051 	3.38183e-18
2 	1.9139 	6.93847e-18 	0.983269 	-0.000277482 	-2.28693e-17
2 	1.93303 	6.57764e-18 	0.983311 	-0.000217234 	-2.16887e-17
2 	1.95216 	1.24618e-17 	0.983343 	-0.000156363 	-2.06723e-17
2 	1.9713 	1.69581e-17 	0.983364 	-9.48074e-05 	-2.01515e-17
2 	1.99043 	1.73542e-17 	0.983375 	-3.48251e-05 	-2.50438e-17
2 	2.00957 	2.54598e-18 	0.983375 	3.4682e-05 	-3.50446e-17
2 	2.0287 	2.90688e-18 	0.983364 	9.46636e-05 	-5.27723e-17
2 	2.04784 	4.48206e-18 	0.983343 	0.000156222 	-5.5175e-17
2 	2.06697 	6.75111e-18 	0.983311 	0.000217093 	-4.38734e-17
2 	2.0861 	5.20375e-18 	0.983269 	0.000277341 	-4.59379e-17
2 	2.10524 	5.56457e-18 	0.983218 	0.00033691 	-3.24428e-17
2 	2.12437 	8.35398e-18 	0.983158 	0.000395701 	-2.84455e-17
2 	2.14351 	1.04495e-17 	0.983089 	0.00045354 	-3.11626e-17
2 	2.16264 	1.11572e-17 	0.983011 	0.000509206 	-4.39418e-17
2 	2.18177 	1.42178e-17 	0.982925 	0.000563034 	-6.5299e-17
2 	2.19945 	-6.84367e-18 	0.982836 	0.000624473 	-7.23814e-17
2 	2.21567 	-3.85556e-18 	0.982742 	0.000669447 	-6.52415e-17
2 	2.23189 	-1.56149e-18 	0.982639 	0.000713182 	-6.81066e-17
2 	2.24812 	-4.81875e-19 	0.982527 	0.000756493 	-7.81095e-17
2 	2.26434 	-9.63027e-20 	0.982408 	0.000798306 	-7.6426e-17
2 	2.28056 	2.02384e-18 	0.982283 	0.000838393 	-6.06104e-17
2 	2.29678 	3.44995e-18 	0.982155 	0.000876623 	-5.55334e-17
2 	2.313 	2.10035e-18 	0.982024 	0.000912424 	-5.96682e-17
2 	2.32922 	2.13839e-18 	0.981894 	0.0009452 	-7.15328e-17
2 	2.34544 	4.14443e-18 	0.981767 	0.000980025 	-9.1506e-17
2 	2.39471 	4.97074e-18 	0.981407 	0.00113576 	-1.15877e-16
2 	2.47704 	6.70547e-18 	0.981103 	0.00198685 	-6.47606e-17
2 	2.55936 	6.70547e-18 	0.981306 	0.00247118 	-1.24869e-16
2 	2.64168 	6.70547e-18 	0.982133 	0.00298658 	-1.19744e-16
2 	2.724 	8.09324e-18 	0.983603 	0.00345211 	-5.829e-17
2 	2.80633 	4.6238e-18 	0.985617 	0.00391555 	-1.12514e-16
2 	2.88865 	-2.33428e-19 	0.987993 	0.00439719 	-6.13407e-17
2 	2.97097 	1.15435e-18 	0.990512 	0.00490005 	-1.13582e-16
2 	3.05329 	3.92991e-18 	0.992965 	0.00541364 	-6.34701e-17
2 	3.13562 	6.41848e-18 	0.995195 	0.00591702 	-9.6282e-17
2 	3.21794 	-1.27234e-17 	0.99711 	0.00638435 	2.94183e-17
2 	3.30026 	-1.41112e-17 	0.998686 	0.00679042 	-9.46012e-17
2 	3.38258 	-1.5499e-17 	0.999949 	0.00711467 	-6.06823e-17
2 	3.4649 	-1.5499e-17 	1.00095 	0.0073432 	-9.77965e-17
2 	3.54723 	-1.5499e-17 	1.00175 	0.00746852 	2.86148e-17
2 	3.62955 	-1.72337e-17 	1.0024 	0.00748556 	-9.24402e-17
2 	3.71187 	-1.89684e-17 	1.00295 	0.00739942 	-5.70883e-17
2 	3.79419 	-1.89684e-17 	1.0034 	0.00721107 	-1.11853e-16
2 	3.87652 	-1.89684e-17 	1.00377 	0.00698096 	-6.47893e-17
2 	3.95884 	-1.85615e-17 	1.00406 	0.00641243 	-1.19579e-16
