/*--------------------------------*- C++ -*----------------------------------*\
  =========                 |
  \\      /  F ield         | OpenFOAM: The Open Source CFD Toolbox
   \\    /   O peration     | Website:  https://openfoam.org
    \\  /    A nd           | Version:  7
     \\/     M anipulation  |
\*---------------------------------------------------------------------------*/
FoamFile
{
    version     2.0;
    format      ascii;
    class       surfaceScalarField;
    location    "15";
    object      phi;
}
// * * * * * * * * * * * * * * * * * * * * * * * * * * * * * * * * * * * * * //

dimensions      [0 3 -1 0 0 0 0];

internalField   nonuniform List<scalar> 
226
(
0.00191312
2.23803e-06
-1.93637e-06
0.00191122
-2.46832e-05
2.65792e-05
0.00191056
2.68638e-06
-2.03109e-06
0.00190527
-5.89659e-05
6.42621e-05
0.00189553
-6.60332e-05
7.57663e-05
0.00185948
-0.000356269
0.000392324
0.00183306
-0.000179488
0.000205911
0.00166261
-0.00166136
0.0018318
-0.00164315
0.00191327
2.38482e-06
0.00191112
-2.25368e-05
0.00191075
3.05624e-06
0.00190508
-5.32909e-05
0.00189602
-5.69715e-05
0.00185895
-0.000319198
0.00183426
-0.000154799
0.00165965
-0.00148675
-0.00145851
0.0019134
2.39897e-06
0.00191105
-2.01885e-05
0.00191091
3.20446e-06
0.00190493
-4.73185e-05
0.00189643
-4.84628e-05
0.00185849
-0.000281265
0.00183527
-0.000131572
0.00165702
-0.0013085
-0.00127332
0.00191352
2.29306e-06
0.00191099
-1.76583e-05
0.00191105
3.151e-06
0.0019048
-4.10766e-05
0.0018968
-4.04626e-05
0.00185809
-0.000242555
0.00183622
-0.000109694
0.00165479
-0.00112708
-0.00108793
0.00191363
2.0811e-06
0.00191094
-1.49684e-05
0.00191117
2.91841e-06
0.00190469
-3.45976e-05
0.00189715
-3.29209e-05
0.00185776
-0.000203164
0.00183712
-8.90501e-05
0.00165301
-0.000942971
-0.000902762
0.00191372
1.77836e-06
0.00191089
-1.21424e-05
0.00191128
2.53151e-06
0.0019046
-2.79177e-05
0.00189746
-2.57823e-05
0.0018575
-0.000163201
0.00183797
-6.95236e-05
0.00165168
-0.000756676
-0.000718342
0.00191379
1.40123e-06
0.00191086
-9.20573e-06
0.00191137
2.01714e-06
0.00190453
-2.10761e-05
0.00189773
-1.89867e-05
0.00185731
-0.000122781
0.00183878
-5.09916e-05
0.00165081
-0.000568701
-0.000535235
0.00191385
9.67009e-07
0.00191083
-6.18478e-06
0.00191144
1.40376e-06
0.00190448
-1.41138e-05
0.00189796
-1.24701e-05
0.00185721
-8.20242e-05
0.00183954
-3.33241e-05
0.0016504
-0.000379565
-0.000354048
0.00191389
4.9374e-07
0.00191081
-3.10687e-06
0.0019115
7.21092e-07
0.00190445
-7.07351e-06
0.00189815
-6.16514e-06
0.00185718
-4.10529e-05
0.00184023
-1.63799e-05
0.00165046
-0.000189793
-0.00017543
0.00191391
0.0019108
0.00191153
0.00190445
0.00189829
0.00185723
0.00184085
0.00165106
0.00157532
-0.000509061
0.00153516
-0.000346626
-0.00241963
0.00162131
2.33937e-07
0.00162059
-2.98847e-05
0.00161885
-1.86222e-06
0.00161543
-7.61147e-05
0.00160316
-0.000108834
0.00157507
-0.000480966
0.00153684
-0.0003084
-0.0022772
0.00162143
9.23269e-07
0.00162052
-2.89773e-05
0.001619
-3.39617e-07
0.00161531
-7.2429e-05
0.00160366
-9.71816e-05
0.00157483
-0.000452141
0.0015386
-0.000272163
-0.00213158
0.00162155
1.4922e-06
0.00162045
-2.78795e-05
0.00161914
9.6619e-07
0.0016152
-6.84874e-05
0.00160416
-8.61434e-05
0.00157463
-0.000422604
0.00154042
-0.000237955
-0.00198304
0.00162167
0.00162037
0.00161931
0.00161508
0.00160471
0.00157442
0.00154238
)
;

boundaryField
{
    inlet
    {
        type            calculated;
        value           nonuniform List<scalar> 
14
(
-0.00191342
-0.00191342
-0.00191342
-0.00191342
-0.00191342
-0.00191342
-0.00191342
-0.00191342
-0.00191342
-0.00191342
-0.00162212
-0.00162212
-0.00162212
-0.00162212
)
;
    }
    outlet
    {
        type            calculated;
        value           nonuniform 0();
    }
    polygon
    {
        type            calculated;
        value           nonuniform 0();
    }
    top
    {
        type            symmetryPlane;
        value           uniform 0;
    }
    bottom
    {
        type            symmetryPlane;
        value           uniform 0;
    }
    outside
    {
        type            calculated;
        value           nonuniform 0();
    }
    procBoundary4to0
    {
        type            processor;
        value           nonuniform List<scalar> 9(0.000536418 0.000386786 0.00255865 5.77645e-07 3.0595e-05 3.60553e-06 7.95378e-05 -0.00160267 0.000121101);
    }
    procBoundary4to5
    {
        type            processor;
        value           nonuniform List<scalar> 
16
(
0.00147878
0.00182698
0.00147501
0.00147183
0.0014694
0.00146785
0.00146726
0.0014677
0.00146922
0.00147184
0.00147563
0.00139614
0.0013944
0.00139298
0.00139188
0.00139115
)
;
    }
    procBoundary4to8
    {
        type            processor;
        value           nonuniform List<scalar> 9(-4.24549e-12 -2.88853e-12 3.27186e-12 1.15586e-11 -1.95423e-11 -5.89042e-12 -1.0853e-12 1.618e-11 -5.85299e-12);
    }
}


// ************************************************************************* //
