/*--------------------------------*- C++ -*----------------------------------*\
  =========                 |
  \\      /  F ield         | OpenFOAM: The Open Source CFD Toolbox
   \\    /   O peration     | Website:  https://openfoam.org
    \\  /    A nd           | Version:  7
     \\/     M anipulation  |
\*---------------------------------------------------------------------------*/
FoamFile
{
    version     2.0;
    format      ascii;
    class       volScalarField;
    location    "24";
    object      p;
}
// * * * * * * * * * * * * * * * * * * * * * * * * * * * * * * * * * * * * * //

dimensions      [0 2 -2 0 0 0 0];

internalField   nonuniform List<scalar> 
11200
(
0.00786862
0.0143545
0.0263786
0.0343321
0.044936
0.0535868
0.063513
0.0725171
0.0821385
0.0913337
0.100824
0.110111
0.119517
0.128794
0.138067
0.14719
0.156182
0.164928
0.173376
0.181404
0.188901
0.195708
0.201654
0.206524
0.210075
0.212024
0.212052
0.209807
0.204896
0.196923
0.185468
0.170133
0.150609
0.126612
0.0980602
0.0650719
0.0280054
-0.0124592
-0.0553538
-0.0994408
-0.143312
-0.185508
-0.224641
-0.259508
-0.289153
-0.312915
-0.330411
-0.341533
-0.346433
-0.34541
-0.338971
-0.327717
-0.31232
-0.293507
-0.272009
-0.248536
-0.223755
-0.198277
-0.172642
-0.147314
-0.122681
-0.0990561
-0.0766812
-0.0557354
-0.036342
-0.0185773
-0.00247842
0.0119494
0.0247261
0.0358915
0.0455013
0.053623
0.0603341
0.0657206
0.0698746
0.0728955
0.0748862
0.0759563
0.0762192
0.0757932
0.0747871
0.0733164
0.0714861
0.0694096
0.0671741
0.0648936
0.0626147
0.0604715
0.0584196
0.0566959
0.055034
0.0540236
0.0527667
0.0529322
0.0517624
0.0539551
0.0519024
0.056763
0.053343
0.0566771
0.0079071
0.014348
0.0264203
0.0343499
0.044983
0.0536259
0.0635693
0.0725734
0.0822063
0.0914055
0.100905
0.110198
0.119613
0.128899
0.138182
0.147315
0.156319
0.165078
0.173542
0.181587
0.189104
0.195935
0.201907
0.206808
0.210396
0.212388
0.212467
0.21028
0.205439
0.197546
0.186184
0.170958
0.151557
0.127703
0.0993099
0.0664963
0.0296143
-0.0106646
-0.0533848
-0.0973232
-0.141086
-0.183223
-0.222353
-0.25727
-0.287015
-0.310916
-0.328581
-0.339895
-0.344991
-0.344186
-0.337952
-0.3269
-0.311697
-0.293066
-0.271736
-0.248415
-0.223769
-0.198409
-0.172875
-0.147631
-0.123067
-0.0994951
-0.0771601
-0.0562419
-0.0368653
-0.0191077
-0.00300753
0.0114289
0.0242208
0.035407
0.0450424
0.0531941
0.0599391
0.0653626
0.0695565
0.0726195
0.0746542
0.0757697
0.0760772
0.0756905
0.0747191
0.0732795
0.0714773
0.0694278
0.0672183
0.0649624
0.0627032
0.0605772
0.0585355
0.0568252
0.0551667
0.0541748
0.0529195
0.0531177
0.0519791
0.0541917
0.0523275
0.0570656
0.0541604
0.0576623
0.00794362
0.0143395
0.0264623
0.0343663
0.0450296
0.0536636
0.0636247
0.0726283
0.082273
0.0914757
0.100984
0.110284
0.119708
0.129001
0.138293
0.147437
0.156452
0.165223
0.173701
0.181762
0.189296
0.196147
0.202142
0.207069
0.210687
0.212714
0.212833
0.210694
0.205907
0.198078
0.186791
0.171654
0.152352
0.128617
0.100357
0.0676929
0.0309713
-0.00914311
-0.0517053
-0.0955053
-0.139162
-0.181235
-0.220348
-0.255297
-0.285117
-0.30913
-0.326935
-0.338411
-0.343681
-0.343052
-0.337001
-0.326128
-0.311097
-0.29263
-0.271451
-0.248267
-0.223745
-0.198493
-0.173052
-0.147887
-0.123387
-0.0998666
-0.0775708
-0.0566807
-0.0373224
-0.0195743
-0.00347589
0.0109656
0.0237683
0.0349707
0.0446268
0.0528033
0.0595766
0.0650316
0.0692596
0.0723588
0.0744313
0.0755856
0.0759314
0.0755812
0.0746453
0.0732397
0.071469
0.0694474
0.0672607
0.0650235
0.0627784
0.0606655
0.0586321
0.0569337
0.05528
0.0543064
0.0530585
0.0532883
0.0521877
0.054418
0.0527199
0.0573386
0.0547704
0.0583346
0.00797501
0.0143316
0.0264977
0.0343792
0.0450685
0.0536943
0.0636706
0.0726732
0.0823279
0.0915334
0.10105
0.110354
0.119786
0.129085
0.138386
0.147538
0.156562
0.165344
0.173834
0.181909
0.189459
0.196328
0.202344
0.207295
0.210941
0.213
0.213157
0.211062
0.206326
0.198559
0.187341
0.172289
0.153082
0.129459
0.101325
0.0688002
0.0322274
-0.00773554
-0.0501537
-0.0938289
-0.137392
-0.179411
-0.218515
-0.2535
-0.283396
-0.307519
-0.325461
-0.337094
-0.342531
-0.342074
-0.336196
-0.325492
-0.310624
-0.292308
-0.271269
-0.248211
-0.223801
-0.198646
-0.173287
-0.14819
-0.123744
-0.100266
-0.0780007
-0.0571309
-0.0377836
-0.0200387
-0.00393639
0.0105149
0.0233327
0.0345545
0.0442341
0.0524373
0.0592402
0.0647271
0.0689891
0.0721236
0.0742323
0.0754228
0.0758042
0.0754897
0.0745882
0.0732145
0.0714722
0.0694751
0.0673081
0.0650871
0.0628535
0.0607508
0.0587225
0.0570329
0.0553807
0.0544214
0.053177
0.0534315
0.0523605
0.0546009
0.0530497
0.0575705
0.0553182
0.0590551
0.00800114
0.0143245
0.0265263
0.0343886
0.0450992
0.0537177
0.0637063
0.0727077
0.0823703
0.0915776
0.1011
0.110408
0.119845
0.12915
0.138457
0.147616
0.156648
0.165439
0.173939
0.182026
0.18959
0.196475
0.202509
0.207483
0.211154
0.213244
0.213436
0.211382
0.206696
0.198987
0.187837
0.172865
0.153748
0.13023
0.102214
0.0698178
0.0333813
-0.00644426
-0.0487334
-0.0922985
-0.13578
-0.177756
-0.216858
-0.251881
-0.281853
-0.306084
-0.324156
-0.335938
-0.341532
-0.341238
-0.335522
-0.324976
-0.310257
-0.292082
-0.27117
-0.248227
-0.223917
-0.198848
-0.173561
-0.148522
-0.124123
-0.100679
-0.0784367
-0.0575808
-0.0382392
-0.0204927
-0.00438258
0.0100819
0.0229174
0.0341608
0.0438652
0.0520961
0.0589289
0.0644478
0.0687431
0.0719119
0.0740553
0.0752803
0.0756955
0.0754139
0.0745434
0.0731981
0.0714808
0.0695054
0.0673562
0.06515
0.0629267
0.060833
0.0588086
0.0571259
0.0554733
0.0545251
0.0532807
0.0535548
0.0525056
0.0547524
0.0533266
0.0577704
0.0557951
0.0597203
0.00802243
0.0143179
0.0265487
0.0343945
0.0451223
0.0537342
0.0637325
0.0727325
0.0824011
0.0916095
0.101137
0.110447
0.119889
0.129197
0.138509
0.147673
0.156711
0.16551
0.174018
0.182115
0.189691
0.196589
0.202641
0.207633
0.211328
0.213445
0.21367
0.211655
0.207014
0.199358
0.188271
0.173374
0.15434
0.130918
0.10301
0.0707312
0.0344175
-0.00528571
-0.047461
-0.0909303
-0.134343
-0.176284
-0.215389
-0.250452
-0.280497
-0.30483
-0.323025
-0.334945
-0.340685
-0.340543
-0.334976
-0.324574
-0.309992
-0.291943
-0.271147
-0.248306
-0.224084
-0.199091
-0.173866
-0.148876
-0.124514
-0.101097
-0.0788716
-0.058024
-0.0386831
-0.0209309
-0.00480966
0.00967063
0.0225259
0.0337923
0.0435225
0.0517813
0.058644
0.064194
0.0685215
0.071723
0.0738993
0.0751568
0.0756033
0.0753519
0.0745095
0.0731897
0.0714951
0.0695391
0.0674055
0.0652119
0.0629973
0.0609109
0.0588891
0.0572116
0.0555572
0.0546173
0.0533702
0.0536596
0.0526251
0.0548764
0.0535521
0.057936
0.0561849
0.0602827
0.00803907
0.0143116
0.026565
0.034397
0.0451381
0.053744
0.0637495
0.0727477
0.0824206
0.0916292
0.101159
0.110471
0.119916
0.129227
0.138542
0.147709
0.156753
0.165556
0.174072
0.182176
0.189762
0.196672
0.202737
0.207747
0.211462
0.213604
0.213858
0.211879
0.20728
0.199674
0.188644
0.173815
0.154857
0.131523
0.103712
0.071538
0.0353332
-0.00426264
-0.0463394
-0.0897272
-0.133084
-0.174999
-0.214111
-0.249216
-0.279332
-0.30376
-0.32207
-0.334119
-0.339994
-0.33999
-0.334559
-0.324288
-0.309831
-0.291895
-0.271201
-0.248449
-0.224305
-0.199375
-0.174202
-0.149252
-0.124919
-0.10152
-0.0793055
-0.0584603
-0.0391151
-0.021353
-0.00521698
0.00928196
0.0221591
0.0334501
0.0432069
0.051494
0.0583863
0.0639668
0.0683253
0.0715579
0.073765
0.0750525
0.0755278
0.0753039
0.0744871
0.0731904
0.0715158
0.0695768
0.0674565
0.0652735
0.0630655
0.0609845
0.0589637
0.0572894
0.0556313
0.0546969
0.0534443
0.0537446
0.0527169
0.0549703
0.0537223
0.0580611
0.0564846
0.0607421
0.00805111
0.0143054
0.0265749
0.0343958
0.0451459
0.0537467
0.0637567
0.0727528
0.082428
0.091636
0.101168
0.11048
0.119926
0.129238
0.138555
0.147725
0.156771
0.165578
0.174098
0.182209
0.189802
0.196722
0.202799
0.207824
0.211557
0.213721
0.214003
0.212056
0.207495
0.199935
0.188959
0.174192
0.155303
0.13205
0.104325
0.0722434
0.0361331
-0.00337101
-0.0453653
-0.0886871
-0.132
-0.1739
-0.213026
-0.248174
-0.278359
-0.302878
-0.321296
-0.333463
-0.339461
-0.339583
-0.334275
-0.324122
-0.309774
-0.291939
-0.271333
-0.248658
-0.224578
-0.199701
-0.174569
-0.14965
-0.125337
-0.101949
-0.0797376
-0.0588889
-0.0395344
-0.0217581
-0.005604
0.00891631
0.0218174
0.0331343
0.0429186
0.0512344
0.0581559
0.0637662
0.0681544
0.0714165
0.0736524
0.0749677
0.0754694
0.0752706
0.0744764
0.0731999
0.0715429
0.0696189
0.0675098
0.0653348
0.0631311
0.0610533
0.0590318
0.0573587
0.0556955
0.0547637
0.0535023
0.0538088
0.052778
0.0550313
0.0538327
0.0581395
0.0566929
0.061097
0.00805861
0.0142995
0.0265786
0.0343911
0.0451461
0.0537425
0.0637544
0.072748
0.0824236
0.0916302
0.101162
0.110473
0.119919
0.129231
0.138548
0.147718
0.156766
0.165575
0.174098
0.182213
0.189812
0.19674
0.202827
0.207864
0.211613
0.213797
0.214102
0.212185
0.20766
0.200142
0.189215
0.174506
0.155683
0.132503
0.104857
0.0728583
0.0368311
-0.00259452
-0.0445208
-0.0877909
-0.131074
-0.172969
-0.212117
-0.247312
-0.277567
-0.302176
-0.320695
-0.332974
-0.339088
-0.339325
-0.334129
-0.324083
-0.309832
-0.292085
-0.271556
-0.248946
-0.22492
-0.200084
-0.174983
-0.150084
-0.125782
-0.102398
-0.0801822
-0.0593234
-0.0399538
-0.0221583
-0.00598169
0.00856369
0.0214918
0.0328371
0.0426507
0.0509964
0.0579481
0.0635884
0.0680062
0.0712971
0.0735608
0.0749026
0.0754292
0.0752531
0.0744788
0.0732187
0.0715746
0.0696603
0.067559
0.0653908
0.0631916
0.061117
0.0590944
0.0574211
0.0557509
0.0548185
0.0535446
0.0538532
0.0528103
0.055062
0.0538859
0.0581743
0.0568185
0.0613544
0.00806212
0.0142957
0.0265793
0.0343869
0.0451436
0.053737
0.0637489
0.0727406
0.0824154
0.0916205
0.101151
0.110461
0.119906
0.129217
0.138534
0.147704
0.156752
0.165562
0.174087
0.182204
0.189807
0.196739
0.202833
0.207878
0.211637
0.213832
0.214152
0.212251
0.20775
0.200262
0.189372
0.174709
0.155939
0.13282
0.105241
0.0733147
0.0373603
-0.00199608
-0.0438619
-0.087086
-0.130343
-0.172233
-0.211402
-0.24664
-0.27696
-0.30165
-0.320265
-0.332648
-0.338868
-0.339215
-0.334123
-0.324173
-0.310011
-0.292342
-0.271879
-0.249323
-0.225338
-0.200533
-0.175451
-0.150561
-0.12626
-0.102868
-0.0806388
-0.059761
-0.0403683
-0.0225464
-0.00634108
0.00823466
0.0211941
0.0325714
0.042417
0.0507944
0.0577771
0.0634474
0.067894
0.0712123
0.0735012
0.0748658
0.0754112
0.0752513
0.0744968
0.0732558
0.0716287
0.0697282
0.0676352
0.06547
0.0632686
0.0611899
0.0591593
0.0574798
0.0557976
0.0548608
0.0535723
0.0538812
0.0528295
0.0550817
0.0539159
0.0582016
0.0569042
0.0615474
0.00709073
0.0146441
0.0258614
0.0342368
0.0444355
0.0532444
0.0629543
0.0719965
0.0814858
0.0906609
0.100051
0.109283
0.118593
0.127785
0.136943
0.145943
0.154782
0.163352
0.171588
0.179365
0.186561
0.193009
0.198524
0.20288
0.205818
0.207036
0.206194
0.202913
0.19678
0.187363
0.174221
0.156929
0.135156
0.108622
0.0772687
0.0412784
0.00113345
-0.0423022
-0.0878227
-0.133938
-0.179022
-0.221481
-0.259898
-0.293134
-0.320369
-0.341105
-0.355137
-0.362506
-0.363576
-0.358667
-0.348474
-0.333646
-0.314925
-0.293096
-0.268923
-0.243134
-0.216403
-0.189334
-0.162452
-0.136199
-0.110936
-0.0869453
-0.0644365
-0.0435573
-0.0244013
-0.00701734
0.00858185
0.0224121
0.0345115
0.0449352
0.0537522
0.0610416
0.0668921
0.0714004
0.0746705
0.0768139
0.0779477
0.0781923
0.077662
0.0765008
0.074835
0.0727903
0.0704853
0.0680359
0.0655333
0.0630675
0.0606983
0.0585051
0.0565013
0.0547833
0.0532799
0.052201
0.051213
0.0510248
0.0501332
0.0515182
0.0483212
0.0530251
0.0394365
0.0479657
0.00723917
0.0145684
0.0259593
0.0342426
0.0445261
0.0532969
0.0630526
0.0720825
0.0815994
0.0907749
0.100185
0.109425
0.118752
0.127956
0.137132
0.14615
0.155012
0.163606
0.171871
0.17968
0.186913
0.193405
0.198971
0.203386
0.206393
0.207691
0.206943
0.203774
0.197771
0.188508
0.175547
0.158463
0.136941
0.110687
0.0796487
0.0440019
0.00421432
-0.038872
-0.0840811
-0.129954
-0.174893
-0.217317
-0.255813
-0.289232
-0.316737
-0.337811
-0.352229
-0.360014
-0.361513
-0.357043
-0.347272
-0.332846
-0.3145
-0.293014
-0.269147
-0.243625
-0.217121
-0.19024
-0.163507
-0.137369
-0.112187
-0.0882474
-0.0657638
-0.0448871
-0.0257139
-0.00829617
0.00735081
0.0212406
0.0334093
0.0439105
0.0528117
0.0601907
0.066135
0.0707398
0.0741077
0.0763481
0.0775759
0.0779116
0.0774777
0.0764081
0.0748241
0.0728486
0.0705963
0.0681825
0.0657007
0.0632466
0.0608804
0.0586873
0.0566756
0.0549562
0.0534386
0.0523735
0.0513651
0.0512357
0.0503107
0.0518519
0.0486889
0.0536292
0.040928
0.0481636
0.0073462
0.014533
0.0260186
0.0342574
0.0445855
0.0533413
0.0631207
0.0721482
0.0816801
0.0908594
0.100281
0.109528
0.118867
0.128083
0.137273
0.146306
0.155187
0.163803
0.172094
0.179934
0.187204
0.19374
0.199359
0.203838
0.20692
0.208309
0.207668
0.204627
0.198775
0.18969
0.176936
0.16009
0.138845
0.112896
0.0821956
0.0469069
0.00748257
-0.0352592
-0.080172
-0.125827
-0.170651
-0.213076
-0.251688
-0.285328
-0.31314
-0.334585
-0.349421
-0.357651
-0.359593
-0.355572
-0.346231
-0.332212
-0.314244
-0.293099
-0.269534
-0.244271
-0.217985
-0.191281
-0.164686
-0.138649
-0.113536
-0.089635
-0.067164
-0.0462773
-0.0270749
-0.00961196
0.00609372
0.0200533
0.0323009
0.0428884
0.0518818
0.0593576
0.0654021
0.0701091
0.0735797
0.0759221
0.0772492
0.0776826
0.0773412
0.0763526
0.0748384
0.0729217
0.0707176
0.0683424
0.0658893
0.0634545
0.0610968
0.058906
0.0568862
0.0551608
0.0536221
0.0525569
0.0515126
0.0514186
0.0504429
0.0521128
0.048999
0.0541254
0.0426378
0.0483223
0.00744063
0.0145039
0.0260751
0.0342736
0.0446433
0.0533856
0.0631876
0.0722134
0.0817596
0.0909429
0.100376
0.109631
0.118981
0.128207
0.137411
0.146459
0.155357
0.163994
0.172309
0.180178
0.187483
0.19406
0.199727
0.204264
0.207415
0.208886
0.208344
0.205418
0.199702
0.190777
0.17821
0.161579
0.140582
0.114912
0.0845186
0.0495584
0.0104703
-0.0319484
-0.0765778
-0.122017
-0.166717
-0.209122
-0.247821
-0.281647
-0.309727
-0.331505
-0.346718
-0.355354
-0.357705
-0.354102
-0.345163
-0.331527
-0.313915
-0.293094
-0.269815
-0.244802
-0.218726
-0.192194
-0.165736
-0.139801
-0.114758
-0.0908989
-0.0684453
-0.0475546
-0.02833
-0.0108292
0.00492711
0.018948
0.0312658
0.0419307
0.0510072
0.0585708
0.0647064
0.069507
0.0730722
0.075509
0.0769291
0.077452
0.0771941
0.076281
0.0748344
0.0729769
0.0708224
0.0684869
0.0660629
0.0636489
0.0613019
0.0591169
0.0570927
0.0553658
0.0538106
0.0527501
0.0516758
0.0516196
0.0506046
0.0523871
0.0493463
0.0545638
0.0442221
0.048692
0.00752778
0.0144738
0.0261311
0.0342866
0.0446989
0.053426
0.0632509
0.0722737
0.0818342
0.0910205
0.100465
0.109726
0.119087
0.128323
0.13754
0.146602
0.155516
0.164172
0.172511
0.180407
0.187744
0.194359
0.200073
0.204664
0.207881
0.209429
0.208978
0.206161
0.200574
0.1918
0.17941
0.162983
0.142222
0.116818
0.086719
0.0520749
0.0133118
-0.0287925
-0.0731434
-0.118367
-0.162937
-0.205314
-0.244088
-0.278085
-0.306418
-0.328513
-0.344089
-0.353119
-0.355869
-0.352674
-0.344129
-0.330868
-0.313606
-0.293102
-0.270105
-0.245337
-0.219468
-0.193105
-0.166779
-0.140944
-0.115969
-0.0921515
-0.0697146
-0.0488193
-0.029572
-0.0120335
0.0037733
0.0178551
0.0302423
0.0409835
0.050142
0.057792
0.0640171
0.0689093
0.0725671
0.0750962
0.0766068
0.0772165
0.0770412
0.0762046
0.0748271
0.07303
0.0709258
0.0686298
0.0662346
0.0638406
0.0615039
0.0593246
0.0572964
0.0555691
0.0539988
0.0529458
0.0518446
0.0518287
0.0507811
0.0526667
0.0497184
0.0549684
0.0457053
0.0492246
0.00760635
0.0144451
0.0261834
0.0342966
0.0447495
0.0534609
0.0633074
0.0723266
0.0819002
0.0910886
0.100543
0.109809
0.11918
0.128425
0.137653
0.146728
0.155658
0.164332
0.172692
0.180614
0.187982
0.194634
0.200392
0.205036
0.208315
0.209938
0.209577
0.206866
0.201404
0.192779
0.180563
0.164337
0.143806
0.118663
0.0888526
0.0545177
0.016072
-0.0257254
-0.0698045
-0.114818
-0.159261
-0.201608
-0.240454
-0.274617
-0.303198
-0.325604
-0.341538
-0.350955
-0.354092
-0.351306
-0.343149
-0.330258
-0.313339
-0.293147
-0.270427
-0.245899
-0.220232
-0.194034
-0.167838
-0.142099
-0.11719
-0.0934105
-0.0709876
-0.0500856
-0.0308139
-0.013236
0.00262246
0.0167661
0.0292236
0.0400417
0.0492824
0.0570187
0.0633333
0.0683167
0.0720663
0.0746867
0.0762867
0.0769823
0.0768893
0.0761288
0.0748195
0.0730821
0.0710275
0.0687711
0.0664049
0.0640315
0.0617054
0.0595321
0.0574999
0.0557725
0.0541867
0.0531412
0.0520132
0.0520362
0.0509591
0.0529366
0.0500974
0.0553413
0.0471185
0.0498853
0.00767608
0.0144185
0.0262311
0.0343039
0.0447943
0.0534904
0.0633566
0.0723718
0.0819572
0.091147
0.10061
0.109881
0.119261
0.128513
0.137752
0.146838
0.155782
0.164472
0.172853
0.180799
0.188196
0.194883
0.200683
0.205378
0.208718
0.210415
0.21014
0.207533
0.202195
0.193715
0.181668
0.16564
0.145334
0.120447
0.0909172
0.056883
0.0187452
-0.022755
-0.0665711
-0.11138
-0.1557
-0.198019
-0.236934
-0.271258
-0.30008
-0.32279
-0.339072
-0.348868
-0.352393
-0.349998
-0.342222
-0.329693
-0.313111
-0.293224
-0.270775
-0.246481
-0.221011
-0.194973
-0.168903
-0.143256
-0.118409
-0.0946655
-0.0722546
-0.051344
-0.0320465
-0.0144282
0.00148277
0.0156888
0.0282166
0.0391115
0.048434
0.0562561
0.062659
0.0677325
0.0715728
0.0742831
0.075971
0.076751
0.0767391
0.0760534
0.0748111
0.0731323
0.071127
0.0689101
0.066573
0.0642204
0.0619051
0.0597381
0.0577019
0.0559745
0.0543729
0.0533346
0.052179
0.0522385
0.0511332
0.0531902
0.0504721
0.055679
0.0484534
0.050661
0.0077375
0.0143934
0.026274
0.034308
0.0448332
0.053514
0.0633981
0.0724086
0.0820045
0.0911949
0.100665
0.10994
0.119327
0.128586
0.137834
0.146929
0.155887
0.164592
0.172991
0.18096
0.188384
0.195105
0.200946
0.205689
0.209089
0.210857
0.210668
0.208163
0.202946
0.194609
0.18273
0.166897
0.146811
0.122174
0.0929195
0.0591786
0.0213406
-0.0198709
-0.0634316
-0.108043
-0.152242
-0.194533
-0.233515
-0.267997
-0.297054
-0.320062
-0.336686
-0.346855
-0.350772
-0.348755
-0.341353
-0.32918
-0.31293
-0.293344
-0.271161
-0.247096
-0.221819
-0.195938
-0.169989
-0.144431
-0.119644
-0.0959333
-0.0735317
-0.0526103
-0.0332848
-0.0156242
0.000340801
0.0146105
0.0272098
0.0381823
0.0475873
0.0554954
0.0619869
0.0671503
0.0710809
0.0738806
0.0756558
0.0765197
0.0765884
0.0759777
0.074802
0.0731812
0.0712243
0.0690464
0.066738
0.0644059
0.0621015
0.0599413
0.0579016
0.0561748
0.0545574
0.0535263
0.0523423
0.0524362
0.0513014
0.0534283
0.0508332
0.0559816
0.0496897
0.0514878
0.00779066
0.01437
0.0263122
0.0343092
0.0448661
0.0535316
0.0634318
0.0724372
0.082042
0.091232
0.100709
0.109986
0.119379
0.128643
0.137898
0.147003
0.155971
0.16469
0.173106
0.181095
0.188546
0.195298
0.201177
0.205968
0.209424
0.211261
0.211156
0.208751
0.203652
0.195456
0.183742
0.168102
0.148235
0.123846
0.0948631
0.0614125
0.023871
-0.0170549
-0.0603626
-0.104777
-0.148856
-0.191117
-0.230164
-0.2648
-0.29409
-0.317393
-0.334358
-0.344899
-0.349191
-0.347568
-0.340541
-0.328726
-0.312808
-0.293523
-0.271606
-0.24777
-0.222685
-0.196959
-0.171129
-0.145658
-0.120927
-0.0972455
-0.0748497
-0.0539139
-0.0345568
-0.0168503
-0.000827532
0.0135094
0.0261834
0.0372368
0.0467271
0.0547238
0.0613061
0.0665616
0.0705843
0.0734751
0.0753393
0.0762885
0.0764367
0.0759007
0.0747924
0.0732302
0.0713218
0.0691823
0.0669025
0.0645923
0.0623007
0.0601492
0.0581069
0.0563816
0.0547485
0.0537254
0.0525131
0.0526418
0.0514806
0.0536712
0.0512053
0.0562791
0.0508624
0.0523045
0.00783366
0.0143551
0.026346
0.0343144
0.0448977
0.0535519
0.0634658
0.0724679
0.0820806
0.0912713
0.100754
0.110034
0.119433
0.128702
0.137964
0.147077
0.156056
0.164787
0.173218
0.181227
0.1887
0.19548
0.201394
0.206226
0.209732
0.21163
0.211596
0.209277
0.204282
0.196209
0.184639
0.169169
0.149495
0.125328
0.0965902
0.0634028
0.0261325
-0.0145296
-0.0576006
-0.101827
-0.145786
-0.188007
-0.227102
-0.261869
-0.291361
-0.314926
-0.332196
-0.343073
-0.347716
-0.346433
-0.339748
-0.328258
-0.312642
-0.293631
-0.271956
-0.248329
-0.223418
-0.197833
-0.172113
-0.146721
-0.122042
-0.0983885
-0.0759994
-0.055052
-0.0356679
-0.0179216
-0.0018486
0.0125471
0.0252866
0.0364107
0.0459759
0.0540505
0.0607127
0.0660491
0.0701528
0.0731238
0.0750662
0.0760904
0.0763054
0.0758324
0.0747847
0.073279
0.0714215
0.0693255
0.0670782
0.0647896
0.0625076
0.0603613
0.0583138
0.0565891
0.0549401
0.053926
0.0526891
0.0528511
0.0516866
0.0539149
0.0516377
0.0566073
0.0521119
0.053654
0.157807
0.164389
0.165046
0.167418
0.167016
0.166334
0.163819
0.160138
0.154652
0.147384
0.137828
0.125772
0.11037
0.0915401
0.0674856
0.0392509
0.00136906
-0.0286358
-0.0523958
-0.0713894
0.155903
0.162305
0.162857
0.165101
0.164573
0.163765
0.161115
0.157301
0.151678
0.144279
0.134603
0.122439
0.106957
0.0880264
0.0639008
0.035843
-0.00152757
-0.0255369
-0.04972
-0.0574286
0.154099
0.160254
0.160748
0.162836
0.162192
0.16124
0.158443
0.154466
0.148669
0.141085
0.131218
0.118849
0.103184
0.0840808
0.0599899
0.0326187
-0.00256811
-0.0194951
-0.0440557
-0.0458903
0.152357
0.15824
0.158685
0.160609
0.159859
0.158763
0.155827
0.151695
0.145737
0.137983
0.127949
0.115412
0.0996157
0.0804308
0.0565149
0.0299158
-0.00300814
-0.0152449
-0.039986
-0.0353793
0.150662
0.156261
0.156658
0.158416
0.157564
0.156329
0.153265
0.148992
0.142894
0.135
0.124841
0.112197
0.0963523
0.0772068
0.0536196
0.0278554
-0.00275148
-0.0123184
-0.0360718
-0.025045
0.149016
0.154316
0.15467
0.156255
0.155307
0.153936
0.150751
0.146345
0.140122
0.132107
0.121854
0.109145
0.0933157
0.074305
0.0511865
0.0263435
-0.00179539
-0.0100516
-0.0316146
-0.0151263
0.147424
0.152403
0.152722
0.154127
0.153092
0.151583
0.148285
0.143752
0.137413
0.129293
0.118967
0.10623
0.0904677
0.0716722
0.049147
0.0252906
-0.000387936
-0.00834573
-0.026627
-0.0057081
0.145885
0.150517
0.150816
0.152032
0.150918
0.149271
0.145867
0.141212
0.134769
0.126558
0.116184
0.103454
0.0878103
0.0693052
0.0474931
0.0246834
0.0011501
-0.00732657
-0.0211796
0.00336135
0.144399
0.148655
0.14895
0.149969
0.148786
0.147
0.143498
0.138728
0.132193
0.123908
0.113515
0.100841
0.0853968
0.0672982
0.0463071
0.0243981
0.00204351
-0.00765403
-0.0158917
0.0125037
0.142966
0.146814
0.147127
0.147939
0.146698
0.144775
0.141186
0.136309
0.129697
0.121354
0.110956
0.0983287
0.0830093
0.0651326
0.044724
0.0237213
0.00302729
-0.00667405
-0.0108054
0.0215977
0.183938
0.192117
0.193986
0.197716
0.198753
0.199475
0.198505
0.196376
0.192526
0.186907
0.178967
0.168475
0.154212
0.136368
0.111098
0.0813485
0.0350094
-0.0197746
-0.0884077
-0.140969
0.181028
0.189023
0.190794
0.194367
0.195265
0.195836
0.194709
0.192415
0.188394
0.182599
0.174484
0.163813
0.149401
0.131381
0.106068
0.0759598
0.0300124
-0.0256311
-0.0881729
-0.138918
0.178195
0.186017
0.187693
0.191114
0.191866
0.192275
0.190967
0.188476
0.184237
0.178198
0.169815
0.15884
0.144111
0.12569
0.100088
0.0694702
0.0243455
-0.0295253
-0.0817444
-0.130758
0.175425
0.183076
0.184652
0.187926
0.18853
0.188778
0.187289
0.184603
0.180145
0.173864
0.165216
0.153938
0.138901
0.120102
0.0942842
0.0633325
0.019305
-0.032389
-0.0757533
-0.124082
0.172711
0.18019
0.181661
0.184789
0.185248
0.185342
0.183683
0.180816
0.176161
0.169668
0.160794
0.149273
0.134011
0.114962
0.0891196
0.0581433
0.0154571
-0.0338798
-0.0702655
-0.117116
0.170054
0.177363
0.178723
0.181709
0.182025
0.18197
0.18015
0.177117
0.172284
0.165606
0.156545
0.144833
0.129419
0.110236
0.0845389
0.0538217
0.0126811
-0.0337373
-0.0644604
-0.108744
0.167454
0.174599
0.17584
0.178688
0.178861
0.178665
0.176691
0.173503
0.168506
0.161664
0.152443
0.140581
0.125072
0.105843
0.0804194
0.0501972
0.0107305
-0.0320457
-0.058323
-0.0992993
0.164913
0.171899
0.173013
0.175728
0.175759
0.175427
0.173305
0.169972
0.164825
0.157838
0.148483
0.136506
0.120952
0.10176
0.0767324
0.0472349
0.00946788
-0.029019
-0.0519232
-0.0893677
0.162428
0.169266
0.170241
0.172831
0.172717
0.172257
0.169994
0.166527
0.161244
0.154132
0.144669
0.132614
0.117062
0.0979709
0.0734075
0.0447752
0.00863785
-0.0246036
-0.0442966
-0.0784171
0.159999
0.1667
0.167523
0.169996
0.169736
0.169155
0.166755
0.163165
0.15776
0.150541
0.140996
0.128905
0.113422
0.0945717
0.0707341
0.0435024
0.00916192
-0.0186698
-0.0372599
-0.0638831
0.216034
0.22635
0.229082
0.234587
0.237124
0.239509
0.240389
0.240329
0.238743
0.23563
0.230478
0.223134
0.212391
0.198835
0.177884
0.155459
0.111156
0.0760357
-0.0341492
-0.0910866
0.212627
0.222651
0.225342
0.230626
0.233028
0.235226
0.235918
0.235634
0.233807
0.230422
0.224961
0.217262
0.206084
0.191998
0.170331
0.146878
0.101293
0.0632104
-0.0420562
-0.0946758
0.209242
0.219062
0.221665
0.226768
0.228997
0.231025
0.231499
0.23096
0.228841
0.225118
0.219255
0.211076
0.199301
0.184469
0.161836
0.13704
0.0902405
0.0503346
-0.045176
-0.0888974
0.205902
0.215527
0.218034
0.222963
0.225019
0.226874
0.227128
0.226337
0.223927
0.219869
0.213608
0.204956
0.1926
0.177043
0.153525
0.127469
0.079841
0.0380443
-0.0500512
-0.0907352
0.202614
0.212032
0.214447
0.219198
0.221093
0.222771
0.222818
0.221793
0.219117
0.214755
0.208142
0.199078
0.186232
0.170071
0.145864
0.118794
0.0707153
0.0269258
-0.0559382
-0.0954947
0.199376
0.208581
0.210906
0.215482
0.217222
0.218727
0.21858
0.217336
0.214416
0.209781
0.202858
0.193439
0.180186
0.163529
0.138805
0.110935
0.062711
0.0171532
-0.0611626
-0.0996681
0.196188
0.205182
0.207417
0.211818
0.213409
0.214746
0.214414
0.212964
0.209819
0.204934
0.197735
0.188005
0.174407
0.157339
0.132233
0.10373
0.0556336
0.00867192
-0.0652852
-0.10294
0.193051
0.201836
0.203981
0.208211
0.209656
0.21083
0.210321
0.208678
0.205324
0.200211
0.192764
0.182762
0.168879
0.151475
0.126113
0.0971333
0.0494419
0.00141114
-0.0684692
-0.105378
0.189963
0.198544
0.200599
0.204661
0.205964
0.20698
0.206304
0.20448
0.200934
0.195615
0.187952
0.17772
0.163613
0.145948
0.120458
0.0911403
0.044061
-0.00488917
-0.0706387
-0.105816
0.186926
0.195307
0.197273
0.201169
0.202337
0.203201
0.202368
0.200376
0.196657
0.191158
0.183314
0.172895
0.158633
0.140792
0.115325
0.0859027
0.0398999
-0.00933182
-0.0711863
-0.106829
0.247918
0.260805
0.264241
0.271667
0.275694
0.280498
0.283657
0.286289
0.287734
0.288095
0.287004
0.28441
0.279803
0.273673
0.264632
0.257192
0.244804
0.252369
0.237854
0.336144
0.243711
0.256827
0.259765
0.267106
0.270705
0.275073
0.277664
0.279655
0.280326
0.279784
0.277627
0.273808
0.267741
0.259987
0.24877
0.239162
0.222383
0.227606
0.201408
0.303904
0.240252
0.253228
0.255976
0.263172
0.266563
0.270668
0.272991
0.274697
0.27505
0.274164
0.27162
0.267362
0.260702
0.252226
0.239597
0.228238
0.206637
0.207645
0.166468
0.269132
0.237203
0.249847
0.25259
0.259609
0.262874
0.266795
0.268941
0.270452
0.270587
0.269457
0.266616
0.261994
0.254792
0.245583
0.231545
0.218295
0.192257
0.188431
0.13589
0.234936
0.234193
0.246497
0.249246
0.256078
0.259212
0.262944
0.264894
0.266175
0.266041
0.264594
0.261363
0.256257
0.248377
0.238301
0.222788
0.207672
0.177655
0.169267
0.10772
0.199785
0.231144
0.243135
0.245866
0.252505
0.2555
0.259022
0.260759
0.261786
0.261357
0.259563
0.255911
0.250299
0.241741
0.230831
0.213958
0.19717
0.163574
0.150728
0.0803546
0.162983
0.228099
0.239785
0.24249
0.248928
0.251794
0.255097
0.25663
0.257409
0.256701
0.254585
0.250549
0.244485
0.235332
0.223705
0.205656
0.187397
0.150608
0.133232
0.0538571
0.124455
0.225089
0.236462
0.239151
0.245378
0.248134
0.251216
0.252561
0.25311
0.25215
0.249744
0.245371
0.238913
0.229248
0.217005
0.197948
0.178387
0.138863
0.117063
0.0291666
0.0837998
0.222121
0.233167
0.235855
0.241861
0.244524
0.247382
0.248557
0.248889
0.247697
0.245026
0.24035
0.23354
0.223427
0.210643
0.190738
0.170034
0.128321
0.102358
0.00711604
0.0407762
0.21919
0.229897
0.232601
0.238375
0.240967
0.243597
0.244619
0.244751
0.24335
0.240441
0.2355
0.228388
0.217903
0.204678
0.184127
0.162523
0.119301
0.0902019
-0.00978011
-0.00794688
0.513594
0.512947
0.514143
0.513211
0.515194
0.514042
0.517322
0.515975
0.521506
0.520104
0.529771
0.528703
0.546358
0.546549
0.580653
0.584018
0.655043
0.663327
0.81961
0.780947
0.513592
0.51294
0.514137
0.513209
0.515184
0.514045
0.517306
0.515984
0.521485
0.520131
0.529746
0.528777
0.546332
0.546729
0.580593
0.584363
0.65462
0.662938
0.816048
0.761831
0.513589
0.512933
0.514129
0.513208
0.515173
0.514045
0.51729
0.515992
0.521465
0.52016
0.529725
0.528859
0.546314
0.546932
0.580552
0.584763
0.654214
0.662687
0.812209
0.744762
0.513586
0.512925
0.514122
0.513206
0.51516
0.514044
0.517272
0.515997
0.521441
0.520182
0.529695
0.528925
0.546276
0.547095
0.58046
0.585053
0.653645
0.662075
0.807764
0.726754
0.513583
0.512917
0.514113
0.513203
0.515147
0.514043
0.517253
0.516
0.521413
0.520199
0.529657
0.528979
0.546219
0.547228
0.58032
0.585255
0.652911
0.661134
0.802591
0.707409
0.51358
0.512908
0.514105
0.513199
0.515133
0.51404
0.517231
0.516
0.521381
0.520211
0.52961
0.529022
0.546145
0.547335
0.580135
0.585374
0.652019
0.659901
0.796687
0.687083
0.513577
0.512898
0.514096
0.513196
0.515117
0.514036
0.517207
0.515998
0.521345
0.520217
0.529555
0.529052
0.54605
0.547409
0.579898
0.5854
0.650957
0.658355
0.790043
0.665887
0.513574
0.512886
0.514087
0.513191
0.515102
0.514031
0.517184
0.515994
0.521308
0.520218
0.529497
0.529071
0.545946
0.547456
0.579627
0.585345
0.649758
0.656536
0.782743
0.643677
0.513571
0.512874
0.514078
0.513184
0.515087
0.514023
0.51716
0.515986
0.521272
0.520218
0.529442
0.529093
0.545852
0.547517
0.579377
0.585308
0.648549
0.654654
0.774815
0.620116
0.513567
0.512865
0.514062
0.513183
0.515061
0.514014
0.517118
0.515983
0.521206
0.520218
0.529337
0.5291
0.545665
0.547519
0.578937
0.585076
0.646847
0.65205
0.764966
0.596617
0.513609
0.512988
0.514183
0.513229
0.515259
0.514059
0.517424
0.515984
0.521665
0.520075
0.530023
0.528567
0.546802
0.546177
0.581707
0.583577
0.658891
0.669183
0.838093
0.894552
0.513609
0.512987
0.514182
0.51323
0.515259
0.514065
0.517424
0.515995
0.52167
0.520103
0.530041
0.528633
0.546854
0.546335
0.581846
0.583963
0.659251
0.670016
0.839043
0.892374
0.513608
0.512986
0.51418
0.51323
0.515257
0.514066
0.517422
0.516002
0.52167
0.520121
0.530049
0.52868
0.546882
0.546451
0.581916
0.584237
0.659395
0.670459
0.839276
0.888469
0.513607
0.512984
0.514178
0.51323
0.515253
0.514068
0.517418