/*--------------------------------*- C++ -*----------------------------------*\
  =========                 |
  \\      /  F ield         | OpenFOAM: The Open Source CFD Toolbox
   \\    /   O peration     | Website:  https://openfoam.org
    \\  /    A nd           | Version:  7
     \\/     M anipulation  |
\*---------------------------------------------------------------------------*/
FoamFile
{
    version     2.0;
    format      ascii;
    class       volVectorField;
    location    "24";
    object      U;
}
// * * * * * * * * * * * * * * * * * * * * * * * * * * * * * * * * * * * * * //

dimensions      [0 1 -1 0 0 0 0];

internalField   nonuniform List<vector> 
11200
(
(0.824189 -0.0168664 -3.233e-19)
(0.804241 -0.0176792 -9.70317e-19)
(0.800193 -0.017321 6.88984e-19)
(0.78387 -0.0185671 1.39122e-19)
(0.776054 -0.0184246 3.76629e-19)
(0.761442 -0.0197238 1.64185e-18)
(0.750952 -0.0200209 6.91509e-19)
(0.736677 -0.0213181 -1.16613e-18)
(0.72408 -0.0220494 -2.45052e-20)
(0.709211 -0.0234164 7.33235e-18)
(0.694683 -0.0245335 -9.11849e-18)
(0.678558 -0.0260589 -1.15427e-17)
(0.662019 -0.0275314 1.84644e-18)
(0.644113 -0.0292923 -2.21108e-18)
(0.625322 -0.0311175 1.60737e-17)
(0.605155 -0.0331787 -7.73839e-18)
(0.58376 -0.0353753 9.3985e-18)
(0.56085 -0.0377932 1.97783e-17)
(0.536413 -0.0403918 1.71091e-17)
(0.510248 -0.0432142 2.50897e-17)
(0.482265 -0.0462457 2.17052e-17)
(0.452295 -0.0495058 -4.39439e-18)
(0.420215 -0.052986 1.2765e-18)
(0.385872 -0.0566878 2.10388e-18)
(0.349135 -0.0605951 -7.37177e-19)
(0.309873 -0.0646884 1.27276e-17)
(0.267978 -0.0689317 -1.38727e-17)
(0.223362 -0.0732763 -5.79041e-18)
(0.175978 -0.0776539 -1.23492e-17)
(0.125814 -0.081974 9.49839e-18)
(0.0729492 -0.0861215 1.02836e-17)
(0.017493 -0.0899541 -6.36917e-19)
(-0.0402795 -0.0932728 1.00003e-17)
(-0.0999997 -0.0959078 -1.14857e-17)
(-0.161197 -0.0976089 2.53538e-18)
(-0.223173 -0.0981453 3.88169e-18)
(-0.285125 -0.0972982 8.30786e-19)
(-0.346083 -0.0948967 2.86932e-19)
(-0.40499 -0.0908548 -2.64258e-18)
(-0.460763 -0.0851957 -8.1611e-18)
(-0.512374 -0.0780601 -1.47296e-17)
(-0.55894 -0.0696885 -2.44474e-17)
(-0.599771 -0.0603868 1.54736e-18)
(-0.634401 -0.0504834 -1.21928e-17)
(-0.662585 -0.0402959 -4.51041e-19)
(-0.684269 -0.0301053 2.73585e-17)
(-0.699575 -0.0201522 -1.00416e-17)
(-0.708731 -0.0106208 -4.43156e-17)
(-0.712093 -0.00167322 -4.77904e-18)
(-0.710086 0.00657622 -1.18009e-17)
(-0.703165 0.0140739 2.51735e-17)
(-0.691847 0.0207498 2.78528e-17)
(-0.67666 0.026569 6.31712e-18)
(-0.658154 0.0315184 4.82504e-18)
(-0.636875 0.035604 -6.98737e-18)
(-0.613359 0.0388475 -5.21595e-18)
(-0.58812 0.041284 -3.04704e-17)
(-0.56165 0.0429595 9.37024e-18)
(-0.534404 0.0439297 5.52381e-18)
(-0.5068 0.0442567 4.51999e-18)
(-0.479217 0.0440074 -1.01061e-17)
(-0.451986 0.0432509 -6.79301e-18)
(-0.425399 0.0420566 -1.18799e-17)
(-0.399702 0.0404922 -1.08897e-17)
(-0.375099 0.0386219 -4.81086e-18)
(-0.351759 0.0365056 -4.4494e-18)
(-0.329811 0.0341977 -2.41823e-18)
(-0.309356 0.0317471 -1.18993e-18)
(-0.290464 0.0291972 -7.78267e-19)
(-0.273184 0.0265869 -8.23125e-19)
(-0.257538 0.0239507 2.87956e-18)
(-0.243532 0.0213205 2.47398e-18)
(-0.231151 0.0187265 -1.62424e-18)
(-0.220364 0.0161985 4.81349e-18)
(-0.211118 0.0137665 -3.18618e-18)
(-0.203346 0.0114606 5.08156e-18)
(-0.196958 0.00931238 -6.75435e-18)
(-0.191843 0.00735224 2.11005e-18)
(-0.187872 0.00561216 7.36496e-18)
(-0.184898 0.00411979 -4.08451e-18)
(-0.182755 0.00289842 2.36977e-18)
(-0.181266 0.00197002 8.22404e-18)
(-0.180228 0.00134857 2.79254e-18)
(-0.17945 0.00104838 2.73236e-20)
(-0.178703 0.00106554 -1.18086e-18)
(-0.177821 0.00141541 4.95016e-18)
(-0.176542 0.00207598 -3.85691e-18)
(-0.174794 0.00309211 -5.72696e-18)
(-0.172201 0.00441413 -8.65346e-18)
(-0.16892 0.00617849 -5.54605e-18)
(-0.164186 0.00828505 -4.58681e-18)
(-0.158772 0.01105 -2.69196e-18)
(-0.150773 0.0143695 1.62449e-18)
(-0.142608 0.0185862 1.47656e-19)
(-0.129514 0.0243343 -2.49243e-18)
(-0.117571 0.0301121 -2.41905e-18)
(-0.0970955 0.0407642 3.76596e-18)
(-0.0774895 0.0450197 1.87196e-18)
(-0.0505391 0.0553914 9.53146e-19)
(-0.0122005 0.0386356 1.22876e-18)
(0.822786 -0.0151175 -3.58233e-19)
(0.80276 -0.0158329 -1.42643e-18)
(0.798711 -0.0155281 -1.04247e-18)
(0.782308 -0.0166323 -2.27546e-18)
(0.774486 -0.0165135 7.85962e-19)
(0.759796 -0.0176726 -2.84467e-18)
(0.749288 -0.0179411 -2.51923e-18)
(0.734944 -0.0191022 -1.59435e-18)
(0.722315 -0.0197574 -1.06606e-18)
(0.707383 -0.020982 1.149e-19)
(0.692811 -0.0219822 -4.34323e-18)
(0.676625 -0.0233486 -1.43391e-17)
(0.660034 -0.0246671 -1.36546e-18)
(0.642065 -0.0262442 -6.83213e-18)
(0.623215 -0.0278785 1.30234e-17)
(0.602981 -0.0297244 -1.1474e-17)
(0.58152 -0.0316912 8.15964e-18)
(0.558539 -0.0338562 2.26478e-17)
(0.534029 -0.0361827 1.30262e-17)
(0.507787 -0.0387095 1.59714e-17)
(0.479724 -0.0414231 1.57917e-17)
(0.449672 -0.0443411 -3.35626e-18)
(0.417507 -0.0474557 7.03922e-18)
(0.383077 -0.050768 -4.23298e-18)
(0.346252 -0.0542637 -1.04235e-19)
(0.306901 -0.0579249 6.82173e-18)
(0.264917 -0.0617195 -4.40777e-18)
(0.220213 -0.065604 -3.26626e-18)
(0.172746 -0.0695172 -1.30358e-17)
(0.122503 -0.0733786 1.48832e-17)
(0.0695678 -0.0770842 1.20875e-17)
(0.014052 -0.0805092 -3.21295e-18)
(-0.04377 -0.0834739 6.35717e-18)
(-0.103527 -0.0858286 -8.12538e-18)
(-0.164746 -0.0873493 1.35812e-18)
(-0.226734 -0.0878326 4.25765e-18)
(-0.288695 -0.0870832 -1.00444e-19)
(-0.349666 -0.08495 4.4619e-19)
(-0.408607 -0.0813556 -3.18907e-18)
(-0.464444 -0.0763196 -1.01964e-17)
(-0.516163 -0.0699648 -1.6259e-17)
(-0.562882 -0.0625027 -2.03757e-17)
(-0.60391 -0.0542035 -4.12889e-18)
(-0.638773 -0.0453586 -1.95657e-19)
(-0.667215 -0.0362511 1.23164e-17)
(-0.68917 -0.0271324 9.58351e-18)
(-0.704748 -0.018219 -5.66631e-18)
(-0.714168 -0.00967699 -3.8335e-17)
(-0.717778 -0.0016537 -1.58753e-17)
(-0.715995 0.00575474 -9.75548e-18)
(-0.709272 0.012487 4.89741e-18)
(-0.698125 0.018485 2.71541e-17)
(-0.683078 0.0237169 1.29664e-18)
(-0.664681 0.0281701 -2.00669e-19)
(-0.64348 0.0318493 -1.51466e-17)
(-0.62001 0.0347735 -6.94498e-18)
(-0.594788 0.0369736 -2.26261e-17)
(-0.568305 0.0384908 2.02189e-17)
(-0.541021 0.0393746 3.81053e-18)
(-0.513356 0.0396806 7.9185e-19)
(-0.485689 0.0394685 -4.89052e-18)
(-0.458358 0.0388003 -1.01256e-17)
(-0.431655 0.0377382 -1.01061e-17)
(-0.405831 0.0363428 -9.33257e-18)
(-0.381094 0.0346718 -5.48311e-18)
(-0.357614 0.0327789 -5.96311e-18)
(-0.335523 0.0307131 -2.85125e-18)
(-0.314926 0.0285183 -1.53447e-18)
(-0.295895 0.0262336 -7.38907e-19)
(-0.278478 0.023894 -1.77293e-18)
(-0.262701 0.0215305 2.52012e-18)
(-0.24857 0.0191719 2.97557e-18)
(-0.236072 0.0168453 1.32168e-18)
(-0.225174 0.0145773 5.02478e-18)
(-0.215828 0.012395 -2.94099e-18)
(-0.207962 0.0103253 2.87931e-18)
(-0.20149 0.00839672 -6.31799e-18)
(-0.196301 0.00663669 2.59619e-18)
(-0.192267 0.00507171 6.6354e-18)
(-0.189243 0.0037241 -9.74935e-20)
(-0.187063 0.00261741 2.94153e-18)
(-0.185553 0.00177243 9.48611e-18)
(-0.184512 0.00120243 3.72476e-18)
(-0.183753 0.000921204 2.99314e-18)
(-0.183043 0.000925447 -1.79034e-18)
(-0.182222 0.00122926 3.46785e-18)
(-0.181018 0.00181285 -3.30606e-18)
(-0.179361 0.00271818 -4.01623e-18)
(-0.176852 0.00390109 -1.00022e-17)
(-0.173658 0.00548674 -5.64562e-18)
(-0.168961 0.00738672 -5.57475e-18)
(-0.163563 0.00988565 -2.0365e-18)
(-0.155454 0.0129031 1.43673e-18)
(-0.147096 0.0167294 -1.78644e-19)
(-0.133599 0.0219981 -2.79778e-18)
(-0.120909 0.0272692 -3.66423e-18)
(-0.099563 0.0369985 4.69989e-18)
(-0.0781885 0.0410109 1.48216e-18)
(-0.0498099 0.0499104 7.863e-19)
(-0.0116925 0.0346709 1.52725e-18)
(0.821506 -0.0133583 -2.5961e-19)
(0.80141 -0.0139838 -1.04102e-18)
(0.797356 -0.0137218 -9.32734e-19)
(0.780882 -0.01469 -2.8148e-18)
(0.773052 -0.0145891 -1.71793e-18)
(0.758293 -0.01561 -3.79581e-18)
(0.747766 -0.0158474 -6.55312e-18)
(0.733359 -0.0168722 -2.43906e-18)
(0.7207 -0.0174498 -2.7999e-18)
(0.705709 -0.0185311 -1.04316e-19)
(0.691097 -0.0194131 -5.70666e-18)
(0.674854 -0.0206195 -1.23399e-17)
(0.658214 -0.0217827 -4.83701e-18)
(0.640187 -0.0231749 -5.77679e-18)
(0.621281 -0.0246171 3.33876e-18)
(0.600986 -0.0262464 -7.5708e-18)
(0.579463 -0.0279823 4.94055e-18)
(0.556416 -0.0298932 1.72271e-17)
(0.531838 -0.0319467 1.07546e-17)
(0.505524 -0.034177 8.29104e-18)
(0.477388 -0.0365723 1.3851e-17)
(0.447259 -0.0391481 -3.01581e-18)
(0.415016 -0.0418976 -1.95858e-19)
(0.380505 -0.0448218 -1.16634e-17)
(0.343598 -0.047908 3.04838e-19)
(0.304165 -0.0511407 2.62575e-18)
(0.2621 -0.0544915 -1.0196e-17)
(0.217316 -0.057922 -7.51325e-19)
(0.169773 -0.0613782 -1.76757e-17)
(0.11946 -0.0647892 8.62837e-18)
(0.0664607 -0.0680627 2.5039e-18)
(0.0108924 -0.07109 -7.06402e-18)
(-0.046972 -0.0737113 3.96677e-18)
(-0.10676 -0.0757958 -6.43658e-18)
(-0.167995 -0.0771454 5.80312e-19)
(-0.22999 -0.0775823 5.24601e-18)
(-0.291953 -0.0769343 5.40341e-19)
(-0.352932 -0.0750686 6.47315e-19)
(-0.411896 -0.0719166 -5.07697e-18)
(-0.467785 -0.067494 -7.71946e-18)
(-0.519592 -0.0619071 -1.08922e-17)
(-0.566441 -0.0553398 -1.85738e-17)
(-0.607638 -0.0480282 -9.2054e-18)
(-0.642703 -0.040228 1.52393e-17)
(-0.671371 -0.0321887 2.84978e-17)
(-0.693564 -0.0241325 -8.9104e-18)
(-0.70938 -0.0162521 -6.86303e-18)
(-0.719033 -0.00869481 -3.9812e-17)
(-0.722862 -0.00159465 -2.55949e-17)
(-0.721277 0.00497462 -7.69636e-18)
(-0.714729 0.0109392 -1.0067e-17)
(-0.703733 0.016257 6.56698e-18)
(-0.68881 0.0208983 -6.76521e-18)
(-0.670509 0.0248515 -6.77599e-18)
(-0.649375 0.0281201 -6.32101e-18)
(-0.625945 0.0307205 -9.80307e-18)
(-0.600738 0.0326799 -1.78123e-17)
(-0.574245 0.0340344 2.24937e-17)
(-0.546927 0.0348277 1.16127e-18)
(-0.519207 0.0351087 7.27366e-18)
(-0.491467 0.0349303 -1.16943e-18)
(-0.464047 0.0343472 -7.57079e-18)
(-0.437244 0.0334144 -9.25144e-18)
(-0.411308 0.0321855 -8.74856e-18)
(-0.386452 0.0307117 -6.20363e-18)
(-0.362848 0.0290405 -6.02247e-18)
(-0.340632 0.0272153 -3.19699e-18)
(-0.319908 0.0252752 -1.53493e-18)
(-0.300751 0.0232549 -6.60366e-19)
(-0.283212 0.0211853 -3.12172e-18)
(-0.267317 0.019094 3.24064e-18)
(-0.253073 0.0170066 5.82723e-19)
(-0.240468 0.0149469 2.57131e-20)
(-0.22947 0.0129387 6.80604e-18)
(-0.22003 0.0110058 -3.76518e-18)
(-0.212078 0.00917191 1.58433e-18)
(-0.205528 0.00746208 -7.68176e-18)
(-0.20027 0.0059005 3.99502e-18)
(-0.196176 0.00451007 1.85482e-18)
(-0.193103 0.00331182 -1.92035e-18)
(-0.190887 0.00232714 -8.4279e-19)
(-0.189354 0.00157356 1.28045e-17)
(-0.188306 0.00106215 5.03398e-18)
(-0.187558 0.000804546 6.3484e-18)
(-0.186877 0.000797506 -2.90186e-18)
(-0.186105 0.00105464 2.92537e-18)
(-0.184961 0.00155959 -3.53465e-18)
(-0.183381 0.00235154 -3.24718e-18)
(-0.180942 0.003392 -9.31443e-18)
(-0.177822 0.00479377 -6.5672e-18)
(-0.173156 0.00648056 -3.95464e-18)
(-0.16777 0.00870289 -1.54846e-18)
(-0.159566 0.0114044 1.715e-18)
(-0.151029 0.0148174 -4.37136e-19)
(-0.137185 0.0195679 -3.86885e-18)
(-0.123819 0.0242875 -2.1592e-18)
(-0.10172 0.0330259 3.55457e-18)
(-0.0788138 0.0367253 1.15645e-18)
(-0.0491393 0.0442839 7.18201e-19)
(-0.01124 0.03078 2.12317e-18)
(0.820359 -0.0115926 -5.91253e-20)
(0.800201 -0.0121297 -7.38435e-19)
(0.796141 -0.0119089 -6.53087e-19)
(0.779605 -0.0127426 -3.72705e-18)
(0.771766 -0.0126588 -1.18254e-18)
(0.756945 -0.0135417 -8.74607e-19)
(0.746401 -0.0137482 -7.58453e-18)
(0.731937 -0.0146363 -4.18728e-18)
(0.71925 -0.0151368 -4.97193e-18)
(0.704206 -0.0160743 2.54422e-19)
(0.689557 -0.0168385 -6.4213e-18)
(0.673262 -0.0178846 -1.2969e-17)
(0.656578 -0.0188926 -1.04591e-17)
(0.638498 -0.0200996 -6.80128e-18)
(0.619541 -0.0213495 -5.06091e-18)
(0.59919 -0.022762 -5.5154e-18)
(0.57761 -0.0242666 1.86807e-19)
(0.554502 -0.0259231 1.40567e-17)
(0.529862 -0.0277031 1.08397e-17)
(0.503483 -0.0296365 1.33543e-18)
(0.47528 -0.0317128 1.5637e-17)
(0.445082 -0.0339458 -2.63774e-18)
(0.412767 -0.0363292 -6.78568e-18)
(0.378182 -0.0388643 -6.77767e-18)
(0.341202 -0.04154 4.66554e-20)
(0.301694 -0.044343 -1.71838e-17)
(0.259556 -0.0472486 -2.99002e-18)
(0.214701 -0.0502235 2.91344e-18)
(0.16709 -0.0532209 -2.70989e-17)
(0.116714 -0.0561795 3.32779e-18)
(0.0636589 -0.0590187 6.09458e-18)
(0.00804493 -0.0616456 -1.28333e-17)
(-0.0498556 -0.0639206 2.3368e-18)
(-0.109668 -0.0657316 -6.15202e-18)
(-0.170916 -0.0669066 3.27231e-19)
(-0.232915 -0.0672927 7.30198e-18)
(-0.294877 -0.0667412 9.89202e-19)
(-0.355858 -0.0651372 8.37666e-19)
(-0.414839 -0.0624212 -4.7268e-18)
(-0.470769 -0.0586058 -6.65313e-18)
(-0.522649 -0.0537812 -1.84825e-17)
(-0.569608 -0.0481048 -1.98775e-17)
(-0.610949 -0.0417794 -1.28634e-17)
(-0.646189 -0.0350253 1.77815e-17)
(-0.675052 -0.0280584 2.77946e-17)
(-0.697451 -0.0210712 -1.13276e-17)
(-0.713475 -0.0142321 -1.20335e-17)
(-0.723331 -0.007669 -2.61203e-17)
(-0.727349 -0.00149949 -3.61627e-17)
(-0.725937 0.00421224 -3.88827e-18)
(-0.719541 0.0093999 -2.52076e-17)
(-0.708674 0.0140278 -1.04495e-17)
(-0.693858 0.0180693 -1.68043e-17)
(-0.675638 0.0215138 -1.28365e-17)
(-0.654562 0.0243642 5.65422e-20)
(-0.631166 0.0266344 -1.49399e-17)
(-0.605968 0.0283477 -1.36625e-17)
(-0.579465 0.0295351 1.63137e-17)
(-0.552116 0.0302345 -3.5068e-18)
(-0.524347 0.0304883 1.42151e-17)
(-0.496543 0.0303422 4.0287e-19)
(-0.469046 0.0298436 -6.7488e-18)
(-0.442153 0.0290404 -9.88116e-18)
(-0.41612 0.027979 -8.57478e-18)
(-0.39116 0.0267039 -4.25428e-18)
(-0.367448 0.0252564 -6.24073e-18)
(-0.345121 0.0236744 -3.48288e-18)
(-0.324286 0.0219918 -1.60536e-18)
(-0.30502 0.0202388 -3.53423e-19)
(-0.287373 0.0184423 -3.21106e-18)
(-0.271374 0.0166265 2.23987e-18)
(-0.25703 0.0148135 1.69287e-18)
(-0.244329 0.0130242 -1.12007e-18)
(-0.233241 0.011279 5.5708e-18)
(-0.223716 0.00959853 -1.174e-18)
(-0.215687 0.00800353 9.75135e-19)
(-0.209066 0.00651546 -5.97366e-18)
(-0.203745 0.0051552 1.37229e-18)
(-0.199597 0.00394258 2.5854e-18)
(-0.196478 0.00289702 7.12746e-19)
(-0.194227 0.00203695 4.97491e-19)
(-0.192671 0.00137673 1.40176e-17)
(-0.191614 0.000925622 6.44583e-18)
(-0.190872 0.00069384 6.05649e-18)
(-0.190213 0.000678796 -6.87081e-19)
(-0.18948 0.000892898 3.34315e-18)
(-0.188386 0.00132225 -4.81964e-18)
(-0.186869 0.00200224 -3.04476e-18)
(-0.184489 0.00289985 -6.67116e-18)
(-0.181431 0.00411476 -4.62177e-18)
(-0.176791 0.00558221 -2.87657e-18)
(-0.171414 0.00751848 -1.222e-18)
(-0.163129 0.00988669 2.52358e-18)
(-0.154431 0.0128673 -8.01315e-19)
(-0.140294 0.0170581 -5.81495e-18)
(-0.126328 0.021192 -1.07817e-18)
(-0.103582 0.0288832 -6.5424e-20)
(-0.0793621 0.0322218 8.63896e-19)
(-0.0485197 0.0386157 7.09237e-19)
(-0.0108253 0.0270133 3.27183e-18)
(0.819355 -0.00982073 -3.60158e-19)
(0.799143 -0.0102711 -4.75516e-19)
(0.795076 -0.0100893 -3.91198e-20)
(0.778487 -0.0107904 -2.92497e-18)
(0.770639 -0.0107224 -1.01729e-18)
(0.755765 -0.0114678 -1.06564e-18)
(0.745204 -0.0116432 -9.64703e-18)
(0.730691 -0.0123946 -6.95588e-18)
(0.717978 -0.0128179 -9.00973e-18)
(0.702888 -0.0136115 1.20754e-18)
(0.688205 -0.0142579 -6.65468e-18)
(0.671865 -0.0151433 -1.54709e-17)
(0.655141 -0.0159961 -9.36944e-18)
(0.637013 -0.0170176 -9.76547e-18)
(0.618011 -0.0180753 -1.49393e-17)
(0.59761 -0.0192706 -4.53801e-18)
(0.57598 -0.0205438 4.1529e-18)
(0.552818 -0.0219457 1.24364e-17)
(0.528123 -0.023452 1.56322e-18)
(0.501686 -0.0250882 -7.41205e-18)
(0.473423 -0.0268454 7.01668e-18)
(0.443163 -0.0287351 -1.55186e-18)
(0.410784 -0.0307524 -1.45135e-17)
(0.376135 -0.032898 -3.92622e-18)
(0.339089 -0.0351629 1.46752e-18)
(0.299516 -0.0375356 -2.63912e-17)
(0.257313 -0.0399956 4.01768e-18)
(0.212396 -0.0425146 -6.29802e-18)
(0.164726 -0.0450527 -2.74548e-17)
(0.114295 -0.0475585 -2.12337e-18)
(0.0611922 -0.0499631 1.17969e-17)
(0.00553931 -0.052189 -9.21504e-18)
(-0.0523914 -0.0541174 1.43439e-18)
(-0.112225 -0.0556543 -6.11995e-18)
(-0.173482 -0.0566538 1.10645e-19)
(-0.235481 -0.0569877 6.19792e-18)
(-0.297441 -0.05653 1.13989e-18)
(-0.358423 -0.0551841 9.96356e-19)
(-0.417416 -0.0528991 -1.64118e-18)
(-0.473379 -0.0496849 -7.47026e-18)
(-0.52532 -0.0456163 -2.06701e-17)
(-0.572371 -0.040825 -1.0138e-17)
(-0.613835 -0.0354811 -1.60783e-17)
(-0.649223 -0.02977 1.01817e-17)
(-0.678252 -0.0238742 2.90822e-17)
(-0.700827 -0.0179569 -2.0393e-17)
(-0.717029 -0.0121611 -2.0719e-17)
(-0.727058 -0.00659563 -1.73827e-17)
(-0.731238 -0.00136084 -5.08765e-17)
(-0.729972 0.00348679 1.73884e-18)
(-0.723705 0.00789265 -4.46852e-17)
(-0.712947 0.0118249 -2.7204e-17)
(-0.698219 0.0152608 -8.18403e-18)
(-0.680068 0.0181909 -2.06119e-17)
(-0.659038 0.0206175 -1.21503e-17)
(-0.635667 0.0225519 -5.56779e-18)
(-0.610477 0.0240139 -2.47608e-17)
(-0.583961 0.0250295 1.48564e-17)
(-0.556583 0.0256307 -9.56308e-18)
(-0.528771 0.0258534 1.27956e-17)
(-0.500911 0.0257363 3.54257e-19)
(-0.473345 0.0253195 -7.40835e-20)
(-0.446376 0.0246436 -1.16945e-17)
(-0.420258 0.0237479 -4.72119e-18)
(-0.395209 0.0226703 -2.34502e-18)
(-0.371403 0.0214458 -5.31719e-18)
(-0.348981 0.0201066 -3.61534e-18)
(-0.328051 0.0186814 -1.43233e-18)
(-0.308689 0.0171961 3.3614e-19)
(-0.290949 0.0156734 -1.93274e-18)
(-0.27486 0.014134 2.36219e-18)
(-0.260429 0.0125965 2.91222e-18)
(-0.247645 0.0110786 1.60393e-18)
(-0.236479 0.00959786 5.91305e-18)
(-0.22688 0.00817154 8.42939e-19)
(-0.218783 0.00681721 5.96929e-19)
(-0.2121 0.005553 -5.59006e-18)
(-0.206723 0.0043965 -3.01222e-20)
(-0.202526 0.0033645 3.67749e-18)
(-0.199367 0.00247339 3.3876e-18)
(-0.197084 0.00173952 1.68287e-18)
(-0.195507 0.0011747 1.3533e-17)
(-0.19444 0.000786617 8.50915e-18)
(-0.193702 0.000583977 7.13304e-18)
(-0.193059 0.000564534 1.02983e-18)
(-0.192357 0.000739099 4.45581e-18)
(-0.191304 0.00109612 -3.2037e-18)
(-0.189838 0.00166651 9.43253e-19)
(-0.187506 0.0024226 -5.56008e-18)
(-0.1845 0.0034499 -3.34669e-18)
(-0.179881 0.00469493 -2.04253e-18)
(-0.174512 0.0063393 -1.03412e-18)
(-0.16616 0.00836191 3.82493e-18)
(-0.157323 0.0108975 -1.49514e-18)
(-0.14294 0.0144969 -5.49948e-18)
(-0.128456 0.0180224 -4.16195e-20)
(-0.105165 0.0246167 2.88558e-19)
(-0.0798347 0.027546 8.83029e-19)
(-0.047963 0.0328699 7.07009e-19)
(-0.0104508 0.0231831 5.17649e-18)
(0.818504 -0.00804329 -6.87674e-19)
(0.798246 -0.00840874 -1.35514e-18)
(0.794173 -0.00826326 -8.47385e-19)
(0.777538 -0.00883374 -2.70912e-18)
(0.769682 -0.00877992 -1.35288e-18)
(0.754763 -0.00938857 -5.70287e-20)
(0.744187 -0.00953235 -8.18136e-18)
(0.729632 -0.0101468 -5.58689e-18)
(0.716896 -0.0104929 -9.846e-18)
(0.701767 -0.0111422 2.64112e-18)
(0.687055 -0.0116708 -5.97822e-18)
(0.670676 -0.0123952 -1.26697e-17)
(0.653917 -0.0130927 -1.04453e-17)
(0.635749 -0.0139285 -1.32576e-17)
(0.616708 -0.0147936 -1.8437e-17)
(0.596264 -0.0157716 4.44316e-18)
(0.57459 -0.0168132 6.94928e-18)
(0.551382 -0.0179603 1.33077e-17)
(0.52664 -0.0191927 6.40011e-18)
(0.500153 -0.0205315 -5.01126e-18)
(0.471838 -0.0219694 -5.38553e-19)
(0.441525 -0.0235159 1.4397e-18)
(0.409092 -0.0251669 -1.05496e-17)
(0.374387 -0.0269232 -1.96729e-18)
(0.337285 -0.0287773 5.24034e-18)
(0.297656 -0.0307201 -2.60841e-17)
(0.255399 -0.0327348 -3.40199e-18)
(0.210428 -0.0347982 -1.5924e-17)
(0.162708 -0.0368777 -1.86905e-17)
(0.112232 -0.0389312 5.43746e-18)
(0.0590887 -0.0409023 2.0781e-17)
(0.00340343 -0.042728 -7.52792e-18)
(-0.054552 -0.0443108 1.21683e-18)
(-0.114401 -0.0455741 2.13806e-18)
(-0.175666 -0.0463985 7.84019e-18)
(-0.237665 -0.0466794 6.24952e-18)
(-0.299622 -0.0463139 1.12132e-18)
(-0.360604 -0.0452228 5.94371e-19)
(-0.419606 -0.0433642 -2.94981e-18)
(-0.475596 -0.0407451 -3.90298e-18)
(-0.527589 -0.037426 -1.72585e-17)
(-0.574716 -0.0335133 -1.40451e-17)
(-0.616283 -0.0291452 -2.12061e-17)
(-0.651794 -0.0244729 8.36678e-18)
(-0.680962 -0.0196457 1.26866e-17)
(-0.703684 -0.0147973 -1.79904e-17)
(-0.720034 -0.0100455 -3.26428e-17)
(-0.730207 -0.00547975 -1.50415e-17)
(-0.734521 -0.00118296 -4.74229e-17)
(-0.733375 0.00279736 -1.42468e-17)
(-0.727214 0.00641708 -5.03637e-17)
(-0.716545 0.00964904 -4.20988e-17)
(-0.701889 0.0124743 -2.23805e-17)
(-0.683791 0.0148851 -3.05298e-17)
(-0.662796 0.0168829 -2.34471e-17)
(-0.639445 0.0184768 2.47265e-18)
(-0.614256 0.0196829 -2.18997e-17)
(-0.587728 0.0205225 4.04855e-18)
(-0.560324 0.0210216 -4.94144e-18)
(-0.532473 0.0212097 3.59309e-18)
(-0.504563 0.0211184 -7.95217e-19)
(-0.476939 0.0207807 -1.77438e-18)
(-0.449904 0.0202298 -1.53149e-17)
(-0.423715 0.0194981 -9.14362e-19)
(-0.39859 0.0186166 -8.1514e-19)
(-0.374705 0.0176141 -6.72344e-18)
(-0.352204 0.016517 -3.11227e-18)
(-0.331193 0.015349 -1.22424e-18)
(-0.311752 0.0141312 5.02914e-19)
(-0.293934 0.0128826 -1.37185e-18)
(-0.277769 0.0116198 3.59901e-18)
(-0.263264 0.0103583 4.90441e-18)
(-0.250411 0.00911279 4.48177e-18)
(-0.239178 0.00789732 7.74647e-18)
(-0.229517 0.00672621 2.54654e-18)
(-0.221362 0.0056138 1.09919e-19)
(-0.214626 0.00457489 -1.59223e-18)
(-0.209202 0.00362385 -1.28644e-18)
(-0.204964 0.00277436 5.56495e-18)
(-0.201771 0.00203961 6.50452e-18)
(-0.19946 0.00143423 2.93867e-18)
(-0.197864 0.000967554 1.08645e-17)
(-0.196788 0.000645556 1.13414e-17)
(-0.196051 0.000475148 9.08392e-18)
(-0.195421 0.000454322 2.61098e-18)
(-0.194743 0.000592117 6.49285e-18)
(-0.193722 0.000879313 -2.74712e-18)
(-0.192298 0.00134188 1.23988e-18)
(-0.190006 0.00195754 -5.83527e-18)
(-0.187042 0.00279684 -2.52965e-18)
(-0.182441 0.00381736 -1.60824e-18)
(-0.177077 0.00516583 -8.40977e-19)
(-0.16867 0.0068336 6.32873e-18)
(-0.159718 0.00891527 -2.81831e-18)
(-0.145136 0.0118978 -6.59123e-18)
(-0.130219 0.0147976 1.24665e-18)
(-0.106478 0.0202534 5.01802e-19)
(-0.0802339 0.0227258 8.64167e-19)
(-0.0474827 0.0270376 7.48747e-19)
(-0.0101234 0.0192499 4.30199e-18)
(0.817812 -0.00626111 -1.00374e-18)
(0.797518 -0.00654317 -2.50338e-18)
(0.793438 -0.00643174 -1.58697e-18)
(0.776768 -0.00687328 -2.81445e-18)
(0.768904 -0.00683229 -2.15997e-18)
(0.753948 -0.00730468 -2.02077e-18)
(0.74336 -0.00741643 -7.41486e-18)
(0.72877 -0.00789395 -4.53811e-18)
(0.716017 -0.00816274 -7.50373e-18)
(0.700855 -0.0086675 4.42306e-18)
(0.686119 -0.00907819 -4.6924e-18)
(0.669708 -0.00964138 -1.15833e-17)
(0.652921 -0.0101835 -1.27683e-17)
(0.634719 -0.0108333 -1.82641e-17)
(0.615646 -0.0115059 -1.73279e-17)
(0.595167 -0.0122663 1.70859e-18)
(0.573457 -0.0130762 -1.23395e-18)
(0.550211 -0.0139681 1.6966e-17)
(0.525429 -0.0149266 1.15341e-18)
(0.498901 -0.0159679 -2.99839e-18)
(0.470545 -0.0170864 -8.46401e-18)
(0.440188 -0.0182896 5.76909e-18)
(0.40771 -0.0195742 -8.79957e-18)
(0.37296 -0.0209411 -1.38101e-18)
(0.335812 -0.0223846 1.29145e-17)
(0.296138 -0.0238977 -3.08387e-17)
(0.253835 -0.0254675 -1.1583e-17)
(0.208822 -0.0270758 -1.2911e-17)
(0.161062 -0.0286972 -1.35325e-17)
(0.110549 -0.0302989 -1.88355e-19)
(0.0573734 -0.0318369 2.14319e-17)
(0.00166247 -0.0332627 -7.66551e-18)
(-0.0563123 -0.0345 1.13734e-18)
(-0.116174 -0.0354895 1.88018e-18)
(-0.177444 -0.0361381 1.01449e-17)
(-0.239443 -0.0363648 6.74066e-18)
(-0.301397 -0.036089 8.75185e-19)
(-0.362379 -0.0352493 7.32388e-20)
(-0.42139 -0.0338123 -1.63864e-18)
(-0.477403 -0.0317831 -1.60538e-18)
(-0.529437 -0.0292078 -6.97417e-18)
(-0.576627 -0.0261683 -7.5783e-18)
(-0.618277 -0.0227717 -2.83139e-17)
(-0.653888 -0.0191352 1.1787e-17)
(-0.683168 -0.0153751 1.50007e-17)
(-0.706008 -0.0115957 -6.64659e-19)
(-0.722477 -0.00788939 -2.63803e-17)
(-0.732765 -0.00432606 -1.38055e-17)
(-0.737186 -0.000970863 -5.17278e-17)
(-0.736136 0.00213822 -3.09359e-17)
(-0.730058 0.00496718 -6.81214e-17)
(-0.719458 0.00749408 -3.7953e-17)
(-0.704856 0.00970401 -3.72939e-17)
(-0.686798 0.0115906 -2.49944e-17)
(-0.66583 0.0131549 -1.57084e-17)
(-0.64249 0.0144039 1.17197e-17)
(-0.6173 0.01535 -7.20613e-18)
(-0.590758 0.0160097 -3.23588e-18)
(-0.563331 0.0164033 -1.12787e-18)
(-0.535446 0.0165538 -4.19411e-18)
(-0.507494 0.0164858 -3.1986e-18)
(-0.479822 0.016225 -4.53758e-18)
(-0.452732 0.0157975 -1.50639e-17)
(-0.426485 0.0152284 -5.0523e-19)
(-0.401298 0.0145421 4.44055e-19)
(-0.37735 0.0137609 -7.09552e-18)
(-0.354783 0.0129057 -2.47167e-18)
(-0.333708 0.0119948 -1.00674e-18)
(-0.314203 0.0110448 3.83604e-19)
(-0.296322 0.0100705 -1.07613e-18)
(-0.280095 0.00908502 3.36662e-18)
(-0.265532 0.00810038 4.76093e-18)
(-0.252621 0.00712795 4.1551e-18)
(-0.241335 0.0061788 6.8662e-18)
(-0.231624 0.00526405 4.56367e-18)
(-0.223423 0.00439484 4.55874e-18)
(-0.216644 0.00358269 -3.04323e-18)
(-0.211182 0.0028387 -2.63993e-18)
(-0.206911 0.00217347 9.0244e-18)
(-0.203689 0.00159701 5.73359e-18)
(-0.201356 0.00112234 4.43789e-18)
(-0.199745 0.000756098 1.0797e-17)
(-0.19866 0.000502612 1.17533e-17)
(-0.197924 0.000367013 7.67797e-18)
(-0.197304 0.000347447 4.12806e-18)
(-0.196644 0.000450915 9.80468e-18)
(-0.195648 0.00067052 1.12448e-18)
(-0.194257 0.00102697 2.12048e-18)
(-0.191996 0.00150331 -3.34862e-18)
(-0.189067 0.00215459 -2.05676e-18)
(-0.184479 0.00294906 -1.35538e-18)
(-0.179121 0.00399881 -7.45205e-19)
(-0.170672 0.00530431 6.88645e-18)
(-0.161628 0.00692596 -1.50695e-18)
(-0.14689 0.00927088 -5.62069e-18)
(-0.131626 0.0115324 3.17885e-18)
(-0.107529 0.0158159 7.03558e-19)
(-0.0805601 0.0177894 1.12455e-18)
(-0.0470879 0.0211305 8.028e-19)
(-0.00984886 0.0152138 4.6115e-18)
(0.817286 -0.00447504 -1.26999e-18)
(0.796964 -0.00467464 -3.00388e-18)
(0.79288 -0.00459555 -2.51225e-18)
(0.776183 -0.00490933 -3.23798e-18)
(0.768312 -0.0048801 -3.50324e-18)
(0.753329 -0.00521661 -3.37977e-18)
(0.742731 -0.00529601 -8.07057e-18)
(0.728116 -0.00563652 -4.25365e-18)
(0.715348 -0.00582793 -7.77031e-18)
(0.700161 -0.00618799 8.6041e-19)
(0.685407 -0.00648072 -9.66111e-18)
(0.668971 -0.00688251 -1.17448e-17)
(0.652162 -0.00726913 -1.64368e-17)
(0.633936 -0.00773277 -1.64605e-17)
(0.614838 -0.00821263 -1.14742e-17)
(0.594331 -0.00875531 -1.76778e-18)
(0.572594 -0.00933333 -6.7059e-20)
(0.549319 -0.00997006 1.2212e-17)
(0.524507 -0.0106544 -2.13809e-18)
(0.497948 -0.011398 -7.55502e-19)
(0.469559 -0.012197 -1.94088e-17)
(0.439168 -0.0130567 1.16909e-17)
(0.406657 -0.0139751 -8.98389e-18)
(0.371872 -0.0149528 -2.56568e-18)
(0.334689 -0.015986 2.56535e-17)
(0.29498 -0.01707 -2.53205e-17)
(0.252644 -0.018196 -6.7165e-18)
(0.207598 -0.0193503 -1.19514e-17)
(0.159807 -0.0205143 -1.01889e-17)
(0.109267 -0.0216648 -7.83756e-18)
(0.0560677 -0.0227701 2.59941e-17)
(0.000337867 -0.0237957 -9.72321e-18)
(-0.057651 -0.024687 1.5064e-18)
(-0.117522 -0.0254016 1.981e-18)
(-0.178795 -0.0258727 1.41944e-17)
(-0.240795 -0.0260424 2.74434e-18)
(-0.302748 -0.025853 3.95116e-19)
(-0.36373 -0.0252601 -1.43454e-19)
(-0.422749 -0.0242396 -7.92966e-19)
(-0.47878 -0.0227947 -1.00493e-19)
(-0.530847 -0.0209577 1.82239e-18)
(-0.578086 -0.0187868 -3.63204e-18)
(-0.6198 -0.0163581 -2.39779e-17)
(-0.655488 -0.0137554 2.23366e-17)
(-0.684854 -0.0110621 1.89661e-17)
(-0.707784 -0.008353 1.28906e-17)
(-0.724343 -0.00569459 -2.6165e-17)
(-0.734717 -0.00313729 -1.76482e-17)
(-0.739218 -0.000728098 -4.25282e-17)
(-0.738239 0.00150499 -2.69959e-17)
(-0.732222 0.00353807 -7.36125e-17)
(-0.721672 0.0053547 -3.38072e-17)
(-0.707109 0.0069441 -3.23848e-17)
(-0.689078 0.00830157 -1.89951e-17)
(-0.668126 0.00942767 -5.97896e-18)
(-0.644792 0.0103274 2.43395e-17)
(-0.619599 0.0110095 -1.25277e-17)
(-0.593045 0.0114858 -1.04898e-17)
(-0.565597 0.0117709 2.22633e-18)
(-0.537685 0.0118812 -1.25535e-17)
(-0.509699 0.0118344 -5.88457e-18)
(-0.481989 0.011649 -8.05459e-19)
(-0.454856 0.0113436 -1.0828e-17)
(-0.428564 0.0109364 1.02543e-18)
(-0.403329 0.0104447 1.49441e-18)
(-0.379333 0.00988483 -6.47088e-18)
(-0.356717 0.00927153 -1.71865e-18)
(-0.335592 0.00861817 -7.86916e-19)
(-0.316038 0.00793661 -1.33162e-19)
(-0.298109 0.00723746 -9.34748e-19)
(-0.281836 0.00653016 1.77149e-18)
(-0.267228 0.00582336 5.93443e-18)
(-0.254276 0.00512521 4.97492e-18)
(-0.242949 0.00444363 7.68489e-18)
(-0.2332 0.0037866 7.10159e-18)
(-0.224964 0.00316207 4.65128e-18)
(-0.218153 0.00257826 -5.45619e-18)
(-0.212662 0.00204303 -4.23596e-18)
(-0.208366 0.00156369 9.34014e-18)
(-0.205123 0.0011469 5.67943e-18)
(-0.202773 0.000804998 6.95532e-18)
(-0.201151 0.000541182 7.8387e-18)
(-0.20006 0.000357993 8.96168e-18)
(-0.199325 0.000258915 7.41574e-18)
(-0.198712 0.000242632 6.38894e-18)
(-0.198067 0.000314192 1.08112e-17)
(-0.197089 0.000468716 1.74545e-19)
(-0.195723 0.000721058 -8.05979e-19)
(-0.193485 0.00105939 -2.0766e-18)
(-0.190581 0.00152297 -1.6541e-18)
(-0.186004 0.00209028 -1.25762e-18)
(-0.180651 0.00283961 -6.79034e-19)
(-0.17217 0.00377726 5.76372e-18)
(-0.163058 0.00493561 -9.10593e-19)
(-0.148206 0.00662827 -2.34896e-18)
(-0.132683 0.0082441 2.47423e-18)
(-0.108322 0.0113301 8.90408e-19)
(-0.080811 0.0127699 1.46769e-18)
(-0.0467846 0.0151648 9.68371e-19)
(-0.00963313 0.0110676 6.13255e-18)
(0.816932 -0.00268594 -1.45423e-18)
(0.796592 -0.00280356 -2.82557e-18)
(0.792504 -0.00275548 -3.71032e-18)
(0.77579 -0.00294224 -4.11919e-18)
(0.767914 -0.00292388 -5.3329e-18)
(0.752913 -0.00312469 -4.58048e-18)
(0.742308 -0.00317137 -1.00372e-17)
(0.727675 -0.00337473 -4.29441e-18)
(0.714897 -0.00348857 -1.04027e-17)
(0.699694 -0.00370368 -1.94329e-18)
(0.684927 -0.00387832 -1.503e-17)
(0.668474 -0.00411845 -1.25896e-17)
(0.651651 -0.00434943 -1.35032e-17)
(0.633407 -0.00462668 -1.73718e-17)
(0.614292 -0.00491365 -9.535e-18)
(0.593767 -0.0052384 -6.67293e-18)
(0.572011 -0.0055844 -3.02565e-19)
(0.548716 -0.00596576 1.01739e-17)
(0.523884 -0.00637584 7.31403e-18)
(0.497304 -0.00682178 3.77868e-18)
(0.468893 -0.00730127 -2.28732e-17)
(0.43848 -0.00781772 5.84828e-18)
(0.405945 -0.00837003 -9.86515e-18)
(0.371137 -0.00895891 -6.7642e-18)
(0.333931 -0.00958243 3.1016e-17)
(0.294198 -0.0102384 -2.37366e-17)
(0.25184 -0.0109222 -2.66384e-18)
(0.206772 -0.0116242 2.8644e-18)
(0.158961 -0.0123326 -9.10404e-18)
(0.108403 -0.0130336 -3.6659e-18)
(0.0551882 -0.0137079 2.31333e-17)
(-0.000553896 -0.0143348 -1.6456e-18)
(-0.0585518 -0.0148812 2.0559e-18)
(-0.118429 -0.0153214 2.51758e-18)
(-0.179704 -0.0156148 1.37977e-17)
(-0.241704 -0.0157264 3.35775e-18)
(-0.303656 -0.015621 -1.36233e-19)
(-0.364641 -0.0152714 -4.25427e-19)
(-0.423665 -0.0146629 -3.07771e-19)
(-0.479711 -0.0137967 -5.09382e-18)
(-0.531802 -0.0126923 9.1828e-19)