/*--------------------------------*- C++ -*----------------------------------*\
  =========                 |
  \\      /  F ield         | OpenFOAM: The Open Source CFD Toolbox
   \\    /   O peration     | Website:  https://openfoam.org
    \\  /    A nd           | Version:  7
     \\/     M anipulation  |
\*---------------------------------------------------------------------------*/
FoamFile
{
    version     2.0;
    format      ascii;
    class       surfaceScalarField;
    location    "60";
    object      phi;
}
// * * * * * * * * * * * * * * * * * * * * * * * * * * * * * * * * * * * * * //

dimensions      [0 3 -1 0 0 0 0];

internalField   nonuniform List<scalar> 
206
(
0.00067514
2.15626e-05
0.000667533
2.46733e-05
0.000659289
2.82468e-05
0.000650339
3.2348e-05
0.000640607
3.70539e-05
0.000630008
4.24579e-05
0.000618442
4.86697e-05
0.000605799
5.58233e-05
6.40813e-05
0.00066381
1.5183e-05
0.000657513
1.64812e-05
0.000650805
1.80685e-05
0.000643654
1.99505e-05
0.000636021
2.21447e-05
0.000627865
2.46778e-05
0.000619141
2.75837e-05
0.000609801
3.09032e-05
0.000599788
3.4686e-05
0.000589042
3.89924e-05
0.000577497
4.38935e-05
0.000565077
4.94736e-05
0.0005517
5.58352e-05
0.000537273
6.30967e-05
0.000521693
7.14035e-05
8.09313e-05
0.00127086
3.28321e-05
0.00125227
3.50731e-05
0.00123267
3.76628e-05
0.00121201
4.06125e-05
0.00119021
4.39438e-05
0.0011672
4.76865e-05
0.00114291
5.1878e-05
0.00111725
5.65631e-05
0.00109014
6.1796e-05
0.00106149
6.76407e-05
0.00103121
7.4172e-05
0.000999208
8.14772e-05
0.00096538
8.96628e-05
0.000929631
9.88459e-05
0.000891862
0.000109172
0.000120813
0.000960133
5.97808e-05
0.000931835
6.33705e-05
0.000902126
6.73722e-05
0.000870937
7.18016e-05
0.000838197
7.66833e-05
0.000803834
8.205e-05
0.00076777
8.79415e-05
0.000729929
9.44048e-05
0.00069023
0.000101495
0.000648594
0.000109276
0.000604943
0.000117823
0.000559202
0.000127218
0.000511298
0.000137567
0.000461168
0.000148976
0.000408761
0.000161579
0.000175531
0.000566857
9.87945e-05
0.000525979
0.000104248
0.000483166
0.000110185
0.000438342
0.000116626
0.000391427
0.000123598
0.000342342
0.000131135
0.000291004
0.00013928
0.000237329
0.000148079
0.000181237
0.000157587
0.000122647
0.000167867
6.14809e-05
0.000178988
-2.334e-06
0.000191033
-6.8853e-05
0.000204086
-0.000138138
0.000218261
-0.000210224
0.000233665
0.000250433
8.04184e-05
0.000152998
2.37099e-05
0.000160957
-3.55913e-05
0.000169486
-9.75771e-05
0.000178612
-0.000162343
0.000188364
-0.000229987
0.00019878
-0.00030061
0.000209902
-0.000374312
0.000221781
-0.000451195
0.000234471
-0.000531363
0.000248035
-0.000614918
0.000262543
-0.00070196
0.000278075
-0.000792592
0.000294719
-0.000886909
0.000312578
-0.000985006
0.000331762
0.000352399
-0.000509998
0.000225795
-0.000586076
0.000237035
-0.000665548
0.000248958
-0.000748531
0.000261595
-0.000835149
0.000274982
-0.000925532
0.000289162
-0.00101981
0.000304184
-0.00111814
0.000320104
-0.00122065
0.000336984
-0.00132751
0.000354896
-0.00143889
-0.00155497
-0.00167596
-0.00180207
-0.00193356
-0.00121383
-0.00131286
-0.00141621
-0.00152403
-0.00163649
-0.00175376
-0.00187602
-0.00200349
-0.00213637
)
;

boundaryField
{
    inlet
    {
        type            calculated;
        value           nonuniform 0();
    }
    outlet
    {
        type            calculated;
        value           nonuniform 0();
    }
    polygon
    {
        type            calculated;
        value           nonuniform 0();
    }
    top
    {
        type            symmetryPlane;
        value           uniform 0;
    }
    bottom
    {
        type            symmetryPlane;
        value           uniform 0;
    }
    outside
    {
        type            calculated;
        value           nonuniform 0();
    }
    procBoundary19to11
    {
        type            processor;
        value           nonuniform List<scalar> 
17
(
0.000373922
0.000394156
0.000415703
0.00043869
0.000463258
0.000489575
0.000320648
0.000336065
0.000352309
0.000369418
0.000387441
0.000406431
0.000426449
0.000447568
0.00046987
-0.00227493
0.000493449
)
;
    }
    procBoundary19to18
    {
        type            processor;
        value           nonuniform List<scalar> 5(0.000851981 0.000354043 -0.000285126 -0.00108697 -0.00207074);
    }
    procBoundary19to20
    {
        type            processor;
        value           nonuniform List<scalar> 7(-0.000669729 -0.00128851 -0.000987081 -0.000605871 -0.000134622 0.000437201 0.00111897);
    }
    procBoundary19to26
    {
        type            processor;
        value           nonuniform List<scalar> 2(0.00059195 0.000504843);
    }
    procBoundary19to27
    {
        type            processor;
        value           nonuniform List<scalar> 
17
(
-9.2641e-06
-1.01837e-05
-1.13613e-05
-1.27991e-05
-1.45112e-05
-1.65218e-05
-0.000682169
-1.88604e-05
-1.45332e-05
-1.70667e-05
-2.00025e-05
-2.33982e-05
-2.73223e-05
-3.18581e-05
-3.7104e-05
-4.318e-05
-5.02325e-05
)
;
    }
}


// ************************************************************************* //
