/*--------------------------------*- C++ -*----------------------------------*\
  =========                 |
  \\      /  F ield         | OpenFOAM: The Open Source CFD Toolbox
   \\    /   O peration     | Website:  https://openfoam.org
    \\  /    A nd           | Version:  7
     \\/     M anipulation  |
\*---------------------------------------------------------------------------*/
FoamFile
{
    version     2.0;
    format      ascii;
    class       surfaceScalarField;
    location    "88";
    object      phi;
}
// * * * * * * * * * * * * * * * * * * * * * * * * * * * * * * * * * * * * * //

dimensions      [0 3 -1 0 0 0 0];

internalField   nonuniform List<scalar> 
206
(
-0.00686354
0.00117192
-0.00703481
0.00121836
-0.00720946
0.00126483
-0.00738702
0.00131124
-0.00756698
0.00135751
-0.00774878
0.00140354
-0.00793186
0.00144926
-0.00811561
0.00149457
-0.00829942
0.00153937
-0.00848264
0.00158357
-0.0086646
0.00162708
-0.00884462
0.0016698
0.00171164
-0.00713435
0.00113756
-0.00728803
0.0011872
-0.00744531
0.0012367
-0.00760571
0.00128597
-0.00776871
0.00133492
-0.00793377
0.00138342
-0.00810033
0.00143139
-0.0082678
0.00147871
-0.00843557
0.00152527
-0.00860302
0.00157099
-0.00876951
0.00161575
-0.0089344
0.00165946
-0.00909706
0.00170203
-0.00925686
0.00174336
-0.00941317
0.00178339
-0.00956539
0.00182202
0.00185919
-0.00798094
0.00128151
-0.00812738
0.00133364
-0.00827577
0.00138509
-0.00842555
0.00143575
-0.00857613
0.0014855
-0.00872692
0.0015342
-0.0088773
0.00158177
-0.00902666
0.00162807
-0.00917441
0.00167302
-0.00931993
0.00171651
-0.00946265
0.00175847
-0.009602
0.00179881
-0.00973744
0.00183747
-0.00986847
0.0018744
-0.00999463
0.00190955
-0.0101155
0.00194288
0.00197439
-0.00872854
0.00141334
-0.00886126
0.00146637
-0.00899432
0.00151815
-0.00912712
0.00156856
-0.0092591
0.00161747
-0.00938968
0.00166478
-0.0095183
0.00171039
-0.00964442
0.00175419
-0.00976752
0.00179612
-0.00988711
0.00183611
-0.0100027
0.00187411
-0.010114
0.00191008
-0.0102206
0.00194401
-0.010322
0.00197589
-0.0104182
0.00200573
-0.0105089
0.00203356
0.0020594
-0.00935575
0.00152847
-0.00947037
0.00158098
-0.00958396
0.00163174
-0.00969602
0.00168061
-0.00980603
0.00172749
-0.00991354
0.00177229
-0.0100181
0.00181494
-0.0101193
0.00185538
-0.0102167
0.00189357
-0.0103101
0.00192949
-0.0103992
0.00196315
-0.0104836
0.00199454
-0.0105633
0.00202372
-0.0106382
0.00205071
-0.010708
0.0020756
-0.0107729
0.00209844
0.00211933
-0.00985118
0.00162536
-0.00994645
0.00167625
-0.0100397
0.00172497
-0.0101305
0.00177142
-0.0102185
0.00181552
-0.0103034
0.00185721
-0.0103849
0.00189646
-0.0104628
0.00193325
-0.0105368
0.00196758
-0.0106068
0.00199949
-0.0106727
0.002029
-0.0107343
0.00205619
-0.0107917
0.00208114
-0.010845
0.00210392
-0.010894
0.00212465
-0.010939
0.00214344
0.00216042
-0.0101888
-0.0102691
-0.0103465
-0.0104208
-0.0104918
-0.0105593
-0.0106232
-0.0106835
-0.0107399
-0.0107927
-0.0108416
-0.0108869
-0.0109286
-0.0109668
-0.0110017
-0.0110334
)
;

boundaryField
{
    inlet
    {
        type            calculated;
        value           nonuniform 0();
    }
    outlet
    {
        type            calculated;
        value           nonuniform 0();
    }
    polygon
    {
        type            calculated;
        value           nonuniform 0();
    }
    top
    {
        type            symmetryPlane;
        value           uniform 0;
    }
    bottom
    {
        type            symmetryPlane;
        value           uniform 0;
    }
    outside
    {
        type            calculated;
        value           nonuniform List<scalar> 
17
(
0.0017082
0.00175651
0.00180237
0.00184572
0.00188652
0.00192474
0.00196038
0.00199348
0.00202406
0.0020522
0.00207797
0.00210148
0.00212283
0.00214214
0.00215954
0.00217517
0.00218916
)
;
    }
    procBoundary4to3
    {
        type            processor;
        value           nonuniform List<scalar> 7(-0.00902202 -0.00971295 -0.0102307 -0.0105939 -0.0108328 -0.0109801 -0.0110622);
    }
    procBoundary4to5
    {
        type            processor;
        value           nonuniform List<scalar> 6(0.00698471 0.00783699 0.0085967 0.00924063 0.00975429 0.010106);
    }
    procBoundary4to12
    {
        type            processor;
        value           nonuniform List<scalar> 
18
(
-0.00100448
-0.00104709
-0.00109017
-0.00113368
-0.00117755
-0.00122174
-0.00126618
-0.00131081
-0.00135556
-0.00140035
-0.00144512
-0.00148978
-0.00153424
-0.000987925
-0.00103351
-0.00107942
0.0066961
-0.00112558
)
;
    }
}


// ************************************************************************* //
