/*--------------------------------*- C++ -*----------------------------------*\
  =========                 |
  \\      /  F ield         | OpenFOAM: The Open Source CFD Toolbox
   \\    /   O peration     | Website:  https://openfoam.org
    \\  /    A nd           | Version:  7
     \\/     M anipulation  |
\*---------------------------------------------------------------------------*/
FoamFile
{
    version     2.0;
    format      ascii;
    class       surfaceScalarField;
    location    "50";
    object      phi;
}
// * * * * * * * * * * * * * * * * * * * * * * * * * * * * * * * * * * * * * //

dimensions      [0 3 -1 0 0 0 0];

internalField   nonuniform List<scalar> 
212
(
0.00251177
-0.00428161
0.00464828
0.00188798
-0.00580681
0.00643059
-0.0161298
0.0180178
0.00247151
-0.00387852
0.00183996
-0.00517526
-0.0142898
0.0024408
-0.00344229
0.00179795
-0.00453241
-0.0124919
0.00242093
-0.00297987
0.00176907
-0.00388055
-0.0107228
0.0024112
-0.00249811
0.00175339
-0.00322274
-0.00896943
0.00241057
-0.00200328
0.00175054
-0.0025627
0.00241811
0.000125917
-0.0094286
0.00942705
0.000159458
-0.00771683
0.00768329
-0.00351039
0.00366985
4.60092e-05
-0.00984813
5.3092e-05
-0.00943568
6.48662e-05
-0.00772861
-0.00344552
-3.48665e-05
-0.00983948
-3.79371e-05
-0.00943261
9.03841e-06
-0.00777558
-0.00343648
-0.000114925
-0.00981717
-0.000121021
-0.00942651
-6.11411e-05
-0.00783546
-0.00349763
-0.000192104
-0.00978125
-0.000203037
-0.00941558
-0.000123761
-0.00791474
-0.00362139
-0.000266391
-0.00973227
-0.000285102
-0.00939687
-0.000191867
-0.00800797
-0.00381325
-0.000337246
-0.00966995
-0.000365921
-0.0093682
-0.000266821
-0.00810707
-0.00408007
-0.000326178
-0.00958351
-0.000401323
-0.00959481
-0.000443455
-0.00932606
-0.000350195
-0.00820033
-0.00443027
-0.000375662
-0.00950668
-0.000461886
-0.00950858
-0.000518824
-0.00926913
-0.000438803
-0.00828035
-0.00486907
-0.000438216
-0.00941792
-0.000538408
-0.00940839
-0.000613333
-0.0091942
-0.000554214
-0.00833947
-0.00542329
-0.00157421
-0.00882433
-0.000900995
-0.00634886
-0.000296379
-0.00294437
-4.99835e-05
-0.000233427
0.00054386
-0.00177063
-0.00922152
-0.00109169
-0.0070278
-0.000379147
-0.00365691
-3.95517e-05
-0.000573022
0.000504308
-0.00194238
-0.00129611
-0.00767407
-0.000494721
-0.0044583
-3.80646e-05
-0.00102968
0.000466243
-0.00152534
-0.00826892
-0.000659679
-0.00532396
-6.2449e-05
-0.00162691
0.000403794
-0.0017699
-0.00879036
-0.000879858
-0.006214
-0.000126005
-0.00238076
0.000277789
-0.00201862
-0.00922429
-0.0011556
-0.00707702
-0.000243675
-0.00329269
3.41145e-05
-0.00226776
-0.00955354
-0.00147987
-0.00786491
-0.00042896
-0.0043436
-0.000394845
-0.00250816
-0.00976576
-0.00183665
-0.00853642
-0.000694993
-0.00548526
-0.00108984
-0.0027326
-0.00985589
-0.00220151
-0.0090675
-0.0010716
-0.00661517
-0.00216144
-0.00293608
-0.00257653
-0.00150841
0.00779698
-0.00264977
0.00767137
-0.00611951
0.00785246
-0.00547031
-0.0146804
0.00765244
-0.00261952
0.00739776
-0.00586483
0.00767568
-0.00574824
-0.0164131
0.00748047
-0.00249771
0.00713191
-0.00551627
0.00749716
-0.00611349
-0.0181101
0.00729108
-0.00226341
0.00688959
-0.00511479
0.00722947
-0.00645336
-0.0192201
0.00711494
0.00664843
0.00662566
)
;

boundaryField
{
    inlet
    {
        type            calculated;
        value           nonuniform 0();
    }
    outlet
    {
        type            calculated;
        value           nonuniform 0();
    }
    polygon
    {
        type            calculated;
        value           uniform 0;
    }
    top
    {
        type            symmetryPlane;
        value           uniform 0;
    }
    bottom
    {
        type            symmetryPlane;
        value           uniform 0;
    }
    outside
    {
        type            calculated;
        value           nonuniform 0();
    }
    procBoundary25to16
    {
        type            processor;
        value           nonuniform List<scalar> 9(-0.00287843 -0.00193351 -0.0028746 -0.00287702 -0.00777257 -0.00768268 -0.00760228 -0.00752537 -0.00744485);
    }
    procBoundary25to17
    {
        type            processor;
        value           nonuniform List<scalar> 
28
(
-0.000124369
0.00983913
-0.00982399
-3.70113e-05
2.62254e-05
9.26136e-05
0.000156179
0.000217413
0.00027493
0.00965092
0.000258769
0.000298826
0.000349458
0.00202254
0.00216782
0.00227248
-0.00955163
0.0021202
0.00229134
0.00245254
0.00259702
0.00272037
0.00282273
0.00290418
0.00262535
0.00624512
0.00528923
0.0131149
)
;
    }
    procBoundary25to18
    {
        type            processor;
        value           nonuniform List<scalar> 5(0.00837601 0.00567564 0.00233975 -1.29685e-05 -0.000593843);
    }
    procBoundary25to24
    {
        type            processor;
        value           nonuniform List<scalar> 4(-0.00288335 -0.00289296 -0.0029054 -0.0029203);
    }
    procBoundary25to33
    {
        type            processor;
        value           nonuniform List<scalar> 4(-0.00721888 -0.00150109 0.00176027 -0.00190486);
    }
}


// ************************************************************************* //
