/*--------------------------------*- C++ -*----------------------------------*\
  =========                 |
  \\      /  F ield         | OpenFOAM: The Open Source CFD Toolbox
   \\    /   O peration     | Website:  https://openfoam.org
    \\  /    A nd           | Version:  7
     \\/     M anipulation  |
\*---------------------------------------------------------------------------*/
FoamFile
{
    version     2.0;
    format      ascii;
    class       volScalarField;
    location    "66";
    object      p;
}
// * * * * * * * * * * * * * * * * * * * * * * * * * * * * * * * * * * * * * //

dimensions      [0 2 -2 0 0 0 0];

internalField   nonuniform List<scalar> 
11200
(
-0.000638274
-0.00198489
-0.00326574
-0.00456532
-0.00576713
-0.00685785
-0.00778868
-0.00853782
-0.0090837
-0.0094152
-0.00952575
-0.00941431
-0.0090836
-0.0085398
-0.00779182
-0.00685079
-0.00572957
-0.00444227
-0.00300384
-0.00142972
0.000264426
0.00206292
0.00395017
0.00591077
0.00792948
0.00999132
0.0120815
0.0141856
0.0162894
0.0183792
0.0204416
0.0224637
0.0244336
0.0263396
0.0281712
0.0299184
0.0315722
0.0331246
0.0345686
0.0358981
0.0371083
0.0381958
0.0391582
0.0399947
0.0407055
0.0412923
0.0417578
0.0421056
0.0423405
0.0424675
0.0424925
0.0424216
0.042261
0.0420171
0.041696
0.0413037
0.0408459
0.0403281
0.039755
0.0391312
0.0384607
0.037747
0.0369933
0.0362021
0.0353757
0.0345158
0.0336244
0.0327011
0.0317482
0.0307664
0.0297564
0.02872
0.0276577
0.0265707
0.0254597
0.0243267
0.0231731
0.0220015
0.0208142
0.0196155
0.0184083
0.0172004
0.015994
0.0148047
0.0136298
0.0125028
0.0114024
0.0104088
0.0094385
0.00870001
0.00791365
0.00765673
0.00703743
0.00771844
0.00696245
0.0094558
0.00762144
0.0126042
0.00925711
0.0126158
-0.000639126
-0.00197975
-0.00325648
-0.00454609
-0.00573868
-0.0068215
-0.00774603
-0.00849069
-0.00903371
-0.00936377
-0.00947409
-0.00936339
-0.00903419
-0.00849255
-0.00774722
-0.00680923
-0.00569132
-0.00440753
-0.00297275
-0.00140236
0.000288036
0.00208278
0.00396631
0.00592322
0.00793833
0.00999665
0.0120834
0.0141842
0.0162849
0.0183716
0.0204312
0.0224507
0.0244182
0.026322
0.0281516
0.0298971
0.0315495
0.0331007
0.0345437
0.0358726
0.0370825
0.0381699
0.0391326
0.0399696
0.0406813
0.0412692
0.0417361
0.0420856
0.0423223
0.0424514
0.0424786
0.04241
0.0422516
0.0420099
0.0416909
0.0413007
0.0408449
0.0403289
0.0397574
0.039135
0.0384657
0.0377529
0.0369999
0.036209
0.0353826
0.0345225
0.0336275
0.0327063
0.0317541
0.0307744
0.0297699
0.0287356
0.0276758
0.0265911
0.0254825
0.0243516
0.0232003
0.0220311
0.0208462
0.0196501
0.0184456
0.0172407
0.0160374
0.0148517
0.0136804
0.0125581
0.0114619
0.0104753
0.00950973
0.00878313
0.00800141
0.00776682
0.00715501
0.00787466
0.00715678
0.00967427
0.00803344
0.0128972
0.010066
0.0135927
-0.000639611
-0.00197503
-0.00324783
-0.00452895
-0.00571342
-0.00678915
-0.00770796
-0.00844846
-0.00898872
-0.00931729
-0.00942714
-0.00931682
-0.00898872
-0.00844874
-0.00770552
-0.00676999
-0.00565482
-0.00437396
-0.00294224
-0.00137499
0.000312202
0.00210373
0.00398405
0.00593777
0.00794972
0.0100049
0.0120887
0.0141865
0.0162843
0.0183682
0.0204251
0.0224421
0.0244071
0.0263088
0.0281363
0.0298799
0.0315306
0.0330803
0.034522
0.0358498
0.0370589
0.0381457
0.0391081
0.0399451
0.0406571
0.0412456
0.0417133
0.0420639
0.0423019
0.0424325
0.0424614
0.0423945
0.0422381
0.0419984
0.0416815
0.0412934
0.0408396
0.0403256
0.0397561
0.0391356
0.0384681
0.0377572
0.037006
0.036217
0.0353926
0.0345335
0.033649
0.032728
0.0317782
0.0307976
0.0297856
0.0287545
0.0276955
0.0266116
0.0255038
0.024374
0.0232238
0.0220558
0.0208722
0.0196776
0.0184746
0.0172716
0.0160703
0.0148871
0.0137184
0.0125999
0.0115072
0.0105269
0.0095659
0.00885064
0.00807526
0.00786242
0.00726265
0.00801885
0.00734364
0.0098836
0.00841229
0.01316
0.0106673
0.0142578
-0.000639794
-0.00197063
-0.00323989
-0.00451356
-0.00569093
-0.00676043
-0.0076742
-0.00841106
-0.00894894
-0.00927623
-0.00938574
-0.00927587
-0.00894885
-0.00841047
-0.00766927
-0.00673608
-0.00562349
-0.00434539
-0.00291654
-0.00135224
0.000331969
0.0021205
0.00399784
0.00594861
0.00795764
0.01001
0.0120909
0.0141861
0.0162812
0.0183627
0.0204172
0.0224319
0.0243949
0.0262946
0.0281203
0.0298623
0.0315116
0.0330602
0.0345009
0.0358279
0.0370365
0.0381231
0.0390854
0.0399226
0.040635
0.0412242
0.0416928
0.0420446
0.0422839
0.0424161
0.0424467
0.0423816
0.0422272
0.0419895
0.0416746
0.0412886
0.0408369
0.0403249
0.0397574
0.0391389
0.0384733
0.0377643
0.0370148
0.0362275
0.0354048
0.0345499
0.0336594
0.03274
0.0317908
0.0308138
0.0298106
0.0287749
0.0277173
0.0266345
0.0255278
0.0243991
0.02325
0.0220831
0.0209006
0.0197073
0.0185056
0.017304
0.0161042
0.0149229
0.013756
0.0126404
0.01155
0.0105743
0.0096163
0.00891009
0.00813857
0.00794362
0.00735175
0.00813745
0.00749627
0.0100508
0.00873027
0.0133832
0.0112081
0.0149722
-0.000639771
-0.00196668
-0.00323283
-0.00450003
-0.00567127
-0.00673537
-0.00764481
-0.00837856
-0.00891442
-0.0092407
-0.00935004
-0.00924069
-0.00891477
-0.00837795
-0.00763867
-0.0067077
-0.00559755
-0.00432204
-0.00289589
-0.00133434
0.000347099
0.00213286
0.00400744
0.00595549
0.00796186
0.0100116
0.01209
0.0141827
0.0162755
0.0183548
0.0204072
0.02242
0.0243812
0.0262792
0.0281036
0.0298443
0.0314925
0.0330402
0.0344802
0.0358068
0.0370151
0.0381017
0.0390643
0.0399019
0.0406149
0.041205
0.0416747
0.0420277
0.0422685
0.0424022
0.0424344
0.0423712
0.0422186
0.0419829
0.04167
0.0412859
0.0408362
0.0403261
0.0397604
0.0391437
0.0384798
0.0377724
0.0370244
0.0362385
0.035416
0.0345626
0.0336752
0.032757
0.0318092
0.0308325
0.0298279
0.0287953
0.0277387
0.0266577
0.0255523
0.0244247
0.0232767
0.022111
0.0209298
0.0197377
0.0185373
0.0173371
0.0161387
0.0149591
0.0137938
0.0126804
0.0115918
0.0106199
0.00966375
0.00896485
0.00819526
0.00801497
0.00742742
0.00823737
0.00762263
0.010188
0.00899663
0.0135758
0.011679
0.015632
-0.000639621
-0.00196322
-0.0032267
-0.00448847
-0.00565456
-0.00671412
-0.00761992
-0.00835109
-0.00888532
-0.00921083
-0.00932012
-0.00921135
-0.00888649
-0.00835115
-0.00761368
-0.00668476
-0.00557685
-0.00430372
-0.00288003
-0.00132098
0.000357927
0.00214117
0.00401326
0.00595887
0.00796285
0.0100103
0.0120865
0.014177
0.0162678
0.0183451
0.0203957
0.0224069
0.0243665
0.0262633
0.0280864
0.0298262
0.0314736
0.0330206
0.0344603
0.0357866
0.0369949
0.0380816
0.0390445
0.0398828
0.0405966
0.0411876
0.0416584
0.0420127
0.042255
0.0423902
0.0424242
0.0423627
0.0422119
0.041978
0.041667
0.0412847
0.0408368
0.0403285
0.0397646
0.0391495
0.0384873
0.0377813
0.0370349
0.0362506
0.0354314
0.0345771
0.0336908
0.0327739
0.0318272
0.0308519
0.0298491
0.0288208
0.0277633
0.0266819
0.0255773
0.0244508
0.0233039
0.0221392
0.0209591
0.0197681
0.0185689
0.0173699
0.0161727
0.0149945
0.0138304
0.0127189
0.0116315
0.0106626
0.00970742
0.00901427
0.0082451
0.00807658
0.00749048
0.00832015
0.0077247
0.0102987
0.00921241
0.0137347
0.0120636
0.01619
-0.000639403
-0.00196031
-0.00322156
-0.00447894
-0.00564087
-0.00669676
-0.00759965
-0.00832877
-0.00886176
-0.00918675
-0.00929615
-0.00918799
-0.00886419
-0.00833024
-0.00759443
-0.0066674
-0.00556153
-0.00429054
-0.00286907
-0.00131228
0.000364374
0.00214537
0.00401526
0.0059587
0.00796058
0.010006
0.0120802
0.0141689
0.0162579
0.0183336
0.0203827
0.0223925
0.024351
0.0262467
0.0280689
0.029808
0.0314548
0.0330015
0.0344409
0.0357672
0.0369757
0.0380628
0.0390263
0.0398652
0.0405799
0.041172
0.041644
0.0419997
0.0422433
0.0423802
0.0424158
0.042356
0.042207
0.0419748
0.0416656
0.0412851
0.0408389
0.0403323
0.03977
0.0391566
0.0384959
0.0377914
0.0370464
0.0362627
0.0354456
0.0345924
0.0337075
0.0327917
0.0318462
0.030872
0.0298699
0.0288403
0.0277817
0.0267055
0.0256027
0.0244774
0.0233316
0.022168
0.0209888
0.0197988
0.0186005
0.0174025
0.0162062
0.0150291
0.0138657
0.0127555
0.0116686
0.0107018
0.00974663
0.00905758
0.00828724
0.00812748
0.00753963
0.00838435
0.00780004
0.0103802
0.0093738
0.0138537
0.0123588
0.0166456
-0.000639162
-0.00195798
-0.00321748
-0.00447148
-0.00563024
-0.00668334
-0.00758405
-0.00831168
-0.00884382
-0.00916857
-0.00927824
-0.00917079
-0.00884804
-0.00831543
-0.00758119
-0.00665589
-0.00555188
-0.00428284
-0.00286337
-0.0013086
0.000366045
0.00214506
0.00401299
0.00595454
0.0079546
0.00999824
0.0120708
0.0141579
0.0162455
0.0183199
0.0203677
0.0223765
0.024334
0.0262289
0.0280506
0.0297891
0.0314357
0.0329823
0.0344218
0.0357483
0.0369572
0.0380449
0.0390091
0.0398489
0.0405647
0.041158
0.0416313
0.0419884
0.0422336
0.0423721
0.0424093
0.0423513
0.042204
0.0419735
0.0416659
0.041287
0.0408424
0.0403373
0.0397766
0.0391646
0.0385055
0.0378028
0.0370588
0.0362778
0.0354605
0.0346088
0.0337251
0.0328106
0.0318663
0.0308933
0.0298927
0.0288658
0.0278157
0.0267335
0.02563
0.0245051
0.0233599
0.0221971
0.0210187
0.0198295
0.0186319
0.0174346
0.0162389
0.0150625
0.0138995
0.0127901
0.0117032
0.0107375
0.00978132
0.00909465
0.00832138
0.00816721
0.00757372
0.00842859
0.00784562
0.0104294
0.00947594
0.0139267
0.0125633
0.0169977
-0.000638926
-0.00195625
-0.00321445
-0.00446609
-0.00562267
-0.00667389
-0.00757317
-0.0082999
-0.00883163
-0.00915641
-0.0092665
-0.0091598
-0.00883809
-0.00830673
-0.00757394
-0.00665022
-0.0055479
-0.00428061
-0.00286291
-0.00130993
0.000362933
0.0021402
0.00400643
0.00594635
0.00794483
0.00998699
0.0120582
0.014144
0.0162304
0.0183037
0.0203507
0.0223586
0.0243155
0.02621
0.0280313
0.0297698
0.0314164
0.0329631
0.034403
0.0357301
0.0369396
0.0380281
0.0389933
0.0398343
0.0405513
0.041146
0.0416208
0.0419794
0.0422262
0.0423662
0.0424051
0.0423487
0.042203
0.0419742
0.0416682
0.0412909
0.0408478
0.0403441
0.0397846
0.0391736
0.038515
0.0378116
0.0370713
0.0362927
0.0354756
0.0346252
0.0337426
0.0328291
0.0318856
0.0309133
0.0299132
0.0288857
0.0278306
0.0267521
0.0256528
0.0245301
0.0233866
0.0222251
0.0210479
0.0198597
0.018663
0.0174666
0.0162715
0.0150956
0.0139328
0.0128237
0.0117362
0.0107706
0.00981235
0.00912625
0.00834813
0.00819649
0.00759408
0.0084547
0.00786289
0.0104489
0.00952138
0.0139567
0.0126859
0.017253
-0.000638701
-0.00195502
-0.00321243
-0.0044629
-0.00561847
-0.00666886
-0.00756757
-0.00829399
-0.00882566
-0.00915058
-0.00926096
-0.00915473
-0.00883368
-0.00830315
-0.0075713
-0.00664864
-0.00554743
-0.00428131
-0.00286482
-0.00131304
0.000358618
0.0021347
0.00399979
0.0059386
0.00793605
0.00997723
0.0120475
0.0141325
0.0162182
0.0182909
0.0203374
0.022345
0.0243017
0.026196
0.0280173
0.0297559
0.0314028
0.0329499
0.0343903
0.035718
0.0369282
0.0380176
0.0389837
0.0398256
0.0405436
0.0411393
0.0416152
0.0419748
0.0422227
0.0423637
0.0424035
0.0423481
0.0422036
0.0419761
0.0416717
0.041296
0.0408547
0.0403529
0.0397957
0.0391873
0.0385319
0.0378337
0.0370917
0.0363113
0.0354961
0.0346471
0.033766
0.032854
0.0319124
0.0309419
0.0299439
0.0289193
0.0278693
0.0267939
0.0256911
0.0245675
0.0234237
0.0222622
0.0210851
0.0198969
0.0187001
0.0175035
0.0163079
0.0151315
0.0139676
0.0128574
0.0117678
0.0108008
0.00983893
0.00915165
0.00836768
0.0082167
0.00760763
0.00847172
0.00787254
0.010462
0.00954644
0.0139812
0.01277
0.0174449
-0.000588642
-0.00204452
-0.0033887
-0.00481471
-0.00613898
-0.00732342
-0.0083269
-0.0091234
-0.00969525
-0.0100338
-0.0101359
-0.010003
-0.00964027
-0.00905605
-0.008261
-0.00726781
-0.00609068
-0.00474485
-0.0032462
-0.00161094
0.000144644
0.00200432
0.00395203
0.00597191
0.00804831
0.0101658
0.0123092
0.0144636
0.0166145
0.0187477
0.0208494
0.0229067
0.024907
0.0268387
0.0286908
0.0304534
0.0321173
0.0336742
0.0351172
0.0364402
0.0376384
0.0387084
0.0396483
0.0404573
0.0411363
0.0416872
0.0421134
0.042419
0.0426092
0.0426899
0.0426673
0.0425481
0.042339
0.0420469
0.0416786
0.0412403
0.0407381
0.0401775
0.0395634
0.0389005
0.0381926
0.0374433
0.0366555
0.0358317
0.0349739
0.0340837
0.0331625
0.0322115
0.0312314
0.0302232
0.0291875
0.0281252
0.027037
0.025924
0.0247873
0.0236285
0.0224494
0.0212525
0.0200405
0.0188173
0.0175871
0.0163561
0.0151298
0.013919
0.0127299
0.0115817
0.0104778
0.00945569
0.00850332
0.00770277
0.00698134
0.00655036
0.00609046
0.00630941
0.00573048
0.0073203
0.00426342
0.00901927
-0.00450652
0.00399549
-0.000599523
-0.00204164
-0.00337513
-0.00478694
-0.00609511
-0.00726838
-0.0082634
-0.00905427
-0.00962291
-0.00996038
-0.0100631
-0.0099322
-0.0095727
-0.0089926
-0.00820239
-0.0072146
-0.0060433
-0.0047036
-0.0032113
-0.00158255
0.000166424
0.00201946
0.00396052
0.00597381
0.0080437
0.0101548
0.0122921
0.0144405
0.0165857
0.0187135
0.0208103
0.0228629
0.024859
0.026787
0.0286359
0.0303958
0.0320575
0.0336128
0.0350547
0.0363772
0.0375757
0.0386465
0.0395878
0.0403989
0.0410805
0.0416346
0.0420643
0.042374
0.0425687
0.042654
0.0426364
0.0425224
0.0423187
0.0420322
0.0416693
0.0412364
0.0407394
0.0401838
0.0395745
0.0389161
0.0382125
0.0374671
0.036683
0.0358626
0.0350078
0.0341204
0.0332017
0.032253
0.031275
0.0302687
0.0292349
0.0281742
0.0270877
0.0259762
0.0248409
0.0236835
0.0225057
0.0213099
0.020099
0.0188768
0.0176473
0.0164172
0.0151915
0.0139815
0.0127926
0.0116456
0.0105417
0.00952257
0.00856959
0.00777781
0.00705404
0.00664894
0.00617885
0.0064672
0.00586377
0.00762076
0.00460475
0.00960479
-0.00303281
0.00418519
-0.000608977
-0.00203456
-0.00336116
-0.00475762
-0.00605026
-0.00721416
-0.00820098
-0.00898677
-0.00955283
-0.00988987
-0.00999389
-0.00986584
-0.00951032
-0.00893513
-0.00815055
-0.00716895
-0.00600423
-0.0046714
-0.00318616
-0.00156456
0.000177236
0.00202312
0.00395712
0.00596347
0.00802662
0.0101312
0.0122623
0.0144049
0.0165446
0.0186673
0.0207595
0.0228081
0.0248007
0.0267257
0.0285723
0.0303305
0.0319911
0.0335461
0.0349883
0.0363117
0.0375118
0.0385849
0.0395291
0.0403436
0.0410292
0.0415877
0.0420223
0.0423372
0.0425373
0.0426283
0.0426165
0.0425083
0.0423105
0.0420296
0.0416723
0.0412446
0.0407527
0.0402018
0.039597
0.0389428
0.0382431
0.0375014
0.0367208
0.0359037
0.0350521
0.0341679
0.0332524
0.0323066
0.0313317
0.0303285
0.0292977
0.0282402
0.0271567
0.0260483
0.0249161
0.0237617
0.0225869
0.0213941
0.020186
0.0189666
0.0177397
0.016512
0.0152883
0.0140803
0.0128925
0.0117468
0.0106422
0.00962412
0.00866741
0.00787832
0.0071446
0.00675196
0.00625934
0.00659552
0.00595265
0.00784907
0.00489069
0.0100844
-0.00133979
0.0043373
-0.000616646
-0.00202796
-0.00334798
-0.00472989
-0.00600865
-0.0071623
-0.00814111
-0.00892183
-0.00948518
-0.00982161
-0.00992669
-0.0098011
-0.00944916
-0.00887843
-0.00809903
-0.00712313
-0.00596451
-0.00463805
-0.00315936
-0.0015444
0.000190721
0.00202995
0.00395737
0.00595727
0.00801413
0.0101127
0.0122379
0.014375
0.0165095
0.0186275
0.0207154
0.0227601
0.0247493
0.0266715
0.0285158
0.0302722
0.0319317
0.0334861
0.0349283
0.0362525
0.0374537
0.0385287
0.0394753
0.0402928
0.0409818
0.0415443
0.0419832
0.0423026
0.0425076
0.0426038
0.0425972
0.0424942
0.0423016
0.0420259
0.0416735
0.0412507
0.0407633
0.0402168
0.0396162
0.0389659
0.0382699
0.0375318
0.0367545
0.0359406
0.0350922
0.0342109
0.0332983
0.0323555
0.0313835
0.0303831
0.0293552
0.0283006
0.02722
0.0261145
0.0249853
0.0238338
0.022662
0.0214722
0.020267
0.0190506
0.0178265
0.0166016
0.0153805
0.0141751
0.0129893
0.0118461
0.0107424
0.00972718
0.00876899
0.00798537
0.00724495
0.0068682
0.00635772
0.00674331
0.00607235
0.00809055
0.00521389
0.0105055
0.00022814
0.00469877
-0.000622699
-0.00202177
-0.00333525
-0.00470358
-0.00596925
-0.00711249
-0.00808353
-0.00885924
-0.00941985
-0.00975553
-0.00986152
-0.00973819
-0.0093896
-0.00882312
-0.00804865
-0.00707822
-0.00592546
-0.00460514
-0.00313276
-0.00152423
0.000204436
0.00203723
0.00395828
0.00595193
0.0080027
0.0100954
0.0122149
0.0143467
0.0164762
0.0185896
0.0206732
0.0227141
0.0247001
0.0266194
0.0284615
0.0302161
0.0318744
0.0334282
0.0348704
0.036195
0.0373974
0.0384741
0.0394229
0.0402431
0.0409354
0.0415015
0.0419444
0.0422683
0.0424779
0.0425789
0.0425773
0.0424794
0.0422918
0.0420211
0.0416737
0.0412557
0.040773
0.0402309
0.0396346
0.0389884
0.0382963
0.0375619
0.0367882
0.0359776
0.0351324
0.0342542
0.0333446
0.0324047
0.0314355
0.0304379
0.0294128
0.0283609
0.0272831
0.0261804
0.0250539
0.0239052
0.0227361
0.0215491
0.0203466
0.0191329
0.0179114
0.0166891
0.0154703
0.0142674
0.0130835
0.0119428
0.01084
0.00982813
0.00886897
0.00809208
0.00734627
0.00698794
0.00646228
0.00689933
0.00620662
0.00833737
0.00556145
0.0108926
0.00169522
0.00522216
-0.000627426
-0.00201555
-0.00332279
-0.00467862
-0.00593128
-0.00706466
-0.00802821
-0.00879903
-0.00935695
-0.0096919
-0.00979876
-0.00967762
-0.00933233
-0.00877001
-0.00800039
-0.00703535
-0.00588837
-0.0045741
-0.00310796
-0.00150576
0.000216541
0.00204299
0.00395778
0.00594528
0.00799007
0.010077
0.012191
0.0143175
0.0164422
0.018551
0.0206305
0.0226678
0.0246505
0.0265672
0.028407
0.03016
0.0318172
0.0333705
0.0348127
0.0361379
0.0373415
0.0384199
0.039371
0.040194
0.0408895
0.0414592
0.0419063
0.0422345
0.0424488
0.0425546
0.0425579
0.0424651
0.0422826
0.0420169
0.0416744
0.0412612
0.0407832
0.0402457
0.0396537
0.0390116
0.0383235
0.0375928
0.0368226
0.0360154
0.0351734
0.0342983
0.0333917
0.0324547
0.0314883
0.0304937
0.0294714
0.0284223
0.0273473
0.0262474
0.0251237
0.0239779
0.0228115
0.0216272
0.0204275
0.0192164
0.0179975
0.0167777
0.0155612
0.0143607
0.0131784
0.0120402
0.0109381
0.00992941
0.00896895
0.00819875
0.00744714
0.00710734
0.00656645
0.00705375
0.00634222
0.0085747
0.0059161
0.0112484
0.00309242
0.00587324
-0.000631053
-0.00200931
-0.0033106
-0.00465214
-0.00589492
-0.00701889
-0.00797523
-0.00874133
-0.00929666
-0.0096309
-0.00973862
-0.00961967
-0.00927761
-0.0087194
-0.00795457
-0.00699483
-0.00585355
-0.00454526
-0.00308527
-0.0014893
0.000226728
0.00204694
0.00395558
0.00593704
0.00797597
0.0100572
0.0121658
0.0142873
0.0164072
0.0185116
0.0205871
0.0226209
0.0246005
0.0265147
0.0283524
0.0301039
0.0317601
0.0333129
0.0347553
0.0360812
0.0372861
0.0383662
0.0393197
0.0401455
0.0408443
0.0414177
0.0418688
0.0422014
0.0424203
0.0425309
0.0425392
0.0424514
0.042274
0.0420133
0.0416757
0.0412674
0.040794
0.040261
0.0396732
0.0390352
0.038351
0.037624
0.0368574
0.0360536
0.0352148
0.0343428
0.0334392
0.0325051
0.0315417
0.0305499
0.0295305
0.0284843
0.0274121
0.0263151
0.0251942
0.0240511
0.0228875
0.021706
0.0205089
0.0193005
0.0180841
0.0168669
0.0156526
0.0144544
0.0132738
0.0121379
0.0110363
0.0100306
0.00906851
0.00830475
0.00754659
0.00722473
0.00666768
0.00720274
0.00647401
0.00879567
0.00626664
0.0115692
0.00441185
0.00663905
-0.000633753
-0.00200312
-0.00329884
-0.00462906
-0.00586024
-0.00697518
-0.00792462
-0.00868619
-0.00923904
-0.00957264
-0.00968125
-0.00956447
-0.00922564
-0.0086715
-0.00791142
-0.00695696
-0.00582134
-0.00451898
-0.00306509
-0.00147532
0.000234495
0.00204853
0.00395107
0.00592657
0.00795971
0.0100354
0.0121387
0.0142551
0.0163703
0.0184705
0.0205421
0.0225725
0.0245492
0.0264608
0.0282967
0.0300468
0.0317021
0.0332546
0.0346971
0.0360239
0.0372301
0.0383121
0.0392679
0.0400967
0.0407988
0.041376
0.0418312
0.0421682
0.0423918
0.0425073
0.0425206
0.0424379
0.0422656
0.04201
0.0416774
0.0412739
0.0408052
0.0402767
0.0396932
0.0390593
0.0383789
0.0376556
0.0368924
0.036092
0.0352564
0.0343877
0.0334871
0.032556
0.0315955
0.0306065
0.0295899
0.0285464
0.027477
0.0263828
0.0252646
0.0241244
0.0229636
0.0217848
0.0205904
0.0193847
0.0181708
0.0169561
0.015744
0.0145482
0.0133691
0.0122354
0.0111342
0.0101314
0.00916725
0.00840969
0.00764423
0.0073398
0.00676521
0.00734599
0.00659863
0.0090001
0.00660305
0.0118546
0.00563284
0.00745562
-0.000635678
-0.00199699
-0.00328753
-0.00460665
-0.00582716
-0.00693356
-0.00787645
-0.00863372
-0.00918423
-0.00951726
-0.00962678
-0.00951215
-0.00917649
-0.00862637
-0.00787098
-0.00692172
-0.00579169
-0.00449518
-0.00304732
-0.00146366
0.000240021
0.00204796
0.0039445
0.00591414
0.0079416
0.0100118
0.01211
0.0142215
0.0163322
0.0184282
0.0204961
0.0225231
0.024497
0.0264064
0.0282404
0.0299892
0.0316438
0.0331961
0.0346391
0.0359668
0.0371744
0.0382585
0.0392168
0.0400485
0.040754
0.0413351
0.0417944
0.0421359
0.0423642
0.0424846
0.0425029
0.0424252
0.0422579
0.0420073
0.0416797
0.0412811
0.0408171
0.0402931
0.039714
0.0390843
0.0384079
0.0376883
0.0369285
0.0361312
0.0352986
0.0344325
0.0335346
0.0326062
0.0316485
0.0306625
0.029649
0.0286088
0.0275426
0.0264516
0.0253366
0.0241995
0.0230418
0.021866
0.0206746
0.0194718
0.0182607
0.0170487
0.0158389
0.0146456
0.0134682
0.012337
0.0112362
0.0102367
0.00927051
0.00851971
0.00774701
0.00746096
0.00686968
0.00749671
0.00673277
0.00920873
0.0069494
0.0121346
0.00679006
0.00826172
-0.000637066
-0.00199099
-0.00327597
-0.00458549
-0.00579651
-0.00689503
-0.00783185
-0.00858507
-0.00913333
-0.0094657
-0.00957588
-0.00946302
-0.00913008
-0.00858341
-0.00783207
-0.00688732
-0.00576212
-0.00447069
-0.00302804
-0.00144967
0.000248726
0.00205142
0.0039428
0.00590741
0.00793001
0.00999557
0.0120893
0.0141967
0.0163036
0.0183961
0.0204609
0.0224852
0.0244568
0.0263643
0.028197
0.0299449
0.031599
0.0331513
0.0345947
0.0359233
0.0371323
0.0382182
0.0391788
0.0400131
0.0407215
0.0413058
0.0417686
0.0421138
0.0423459
0.0424702
0.0424924
0.0424187
0.0422554
0.0420088
0.0416851
0.0412905
0.0408305
0.0403104
0.0397353
0.0391096
0.0384372
0.0377217
0.0369662
0.0361732
0.0353449
0.034483
0.0335891
0.0326644
0.0317101
0.0307274
0.0297168
0.0286793
0.0276157
0.0265272
0.0254148
0.0242801
0.023125
0.0219517
0.0207629
0.0195626
0.0183539
0.0171445
0.0159369
0.0147462
0.0135706
0.0124422
0.0113424
0.0103469
0.00937974
0.00863717
0.00785895
0.00759284
0.00699078
0.00766121
0.00690408
0.00942671
0.0073621
0.01245
0.00802766
0.00960037
0.111962
0.118629
0.119333
0.121781
0.12145
0.120851
0.118426
0.114843
0.109462
0.102309
0.0928762
0.0809531
0.0656952
0.0470201
0.0231348
-0.00492364
-0.0426201
-0.0724048
-0.0961253
-0.115049
0.110037
0.116526
0.117125
0.119446
0.11899
0.118268
0.115709
0.111995
0.10648
0.099199
0.08965
0.0776225
0.0622884
0.0435172
0.019565
-0.00831284
-0.0454928
-0.0692965
-0.0934441
-0.101083
0.108214
0.114456
0.114997
0.117164
0.116594
0.115729
0.113025
0.109152
0.103467
0.0960036
0.0862676
0.0740406
0.0585282
0.0395905
0.0156785
-0.0115088
-0.0464984
-0.0632527
-0.0877804
-0.0895506
0.106451
0.112422
0.112916
0.11492
0.114244
0.113239
0.110398
0.106373
0.100531
0.0929017
0.0830032
0.0706121
0.054974
0.0359599
0.0122282
-0.0141851
-0.0469074
-0.0590082
-0.0837079
-0.0790558
0.104736
0.110423
0.11087
0.112708
0.111933
0.110791
0.107825
0.103662
0.097682
0.089917
0.0798983
0.0674043
0.0517235
0.0327543
0.00935575
-0.0162224
-0.0466268
-0.0560912
-0.0797895
-0.0687403
0.103071
0.108457
0.108862
0.110529
0.10966
0.108384
0.105299
0.101006
0.0949042
0.0870228
0.0769133
0.0643607
0.0486997
0.0298706
0.00694487
-0.0177128
-0.0456529
-0.0538351
-0.0753286
-0.0588417
0.101458
0.106522
0.106894
0.108382
0.107428
0.106016
0.102821
0.0984034
0.0921898
0.0842068
0.0740296
0.0614534
0.0458649
0.0272563
0.00492738
-0.0187454
-0.0442334
-0.0521384
-0.0703388
-0.0494441
0.0998987
0.104615
0.104968
0.106268
0.105237
0.103688
0.10039
0.0958544
0.0895406
0.0814708
0.0712499
0.0586857
0.0432211
0.0249083
0.00329523
-0.0193333
-0.0426896
-0.0511257
-0.0648956
-0.0403944
0.0983927
0.10273
0.103082
0.104185
0.103087
0.101402
0.0980088
0.0933604
0.0869588
0.0788195
0.0685847
0.0560816
0.0408216
0.0229202
0.00212941
-0.0196032
-0.0417977
-0.0514553
-0.0596162
-0.0312719
0.0969395
0.100866
0.101238
0.102134
0.100981
0.0991608
0.0956841
0.0909317
0.0844571
0.0762638
0.066029
0.0535776
0.0384481
0.0207736
0.000567154
-0.0202621
-0.0408132
-0.0504764
-0.0544855
-0.0222037
0.138314
0.146563
0.148473
0.152265
0.153361
0.154151
0.153251
0.151198
0.147431
0.141898
0.134052
0.123658
0.109502
0.0917702
0.0666252
0.0370077
-0.00917164
-0.0638018
-0.132196
-0.18469
0.135383
0.14345
0.145263
0.148898
0.149856
0.150497
0.149441
0.147226
0.143289
0.137582
0.129562
0.118993
0.104691
0.0867859
0.0616018
0.0316294
-0.0141535
-0.0696355
-0.131941
-0.182628
0.132529
0.140425
0.142143
0.145629
0.146441
0.146921
0.145687
0.143277
0.139123
0.133176
0.124892
0.114021
0.0994048
0.0811037
0.0556354
0.0251594
-0.0197942
-0.0734953
-0.125497
-0.174466
0.129738
0.137464
0.139083
0.142423
0.143089
0.14341
0.141997
0.139393
0.135023
0.128838
0.12029
0.10912
0.0942007
0.0755267
0.0498473
0.0190432
-0.0248074
-0.0763242
-0.119494
-0.167781
0.127003
0.134558
0.136073
0.139269
0.139792
0.139959
0.138378
0.135596
0.131031
0.124636
0.115867
0.104456
0.0893152
0.0703954
0.0446971
0.0138742
-0.028631
-0.0777828
-0.114001
-0.160805
0.124323
0.131711
0.133115
0.13617
0.136551
0.136572
0.134832
0.131886
0.127145
0.120568
0.111614
0.100017
0.0847285
0.0656789
0.0401303
0.00957169
-0.031385
-0.0776104
-0.108195
-0.152425
0.121701
0.128926
0.130212
0.13313
0.133369
0.133251
0.131358
0.128259
0.123358
0.116619
0.107509
0.0957655
0.0803855
0.0612945
0.0360244
0.00596588
-0.033315
-0.075891
-0.10206
-0.142974
0.119137
0.126205
0.127364
0.130151
0.130249
0.129997
0.127958
0.124717
0.119668
0.112787
0.103546
0.0916907
0.0762698
0.05722
0.0323509
0.0030218
-0.0345587
-0.0728392
-0.0956646
-0.133042
0.116628
0.123549
0.124571
0.127234
0.127189
0.12681
0.124632
0.121259
0.116077
0.109073
0.0997277
0.0877989
0.072384
0.05344
0.0290394
0.000579955
-0.0353699
-0.0683996
-0.0880437
-0.122108
0.114176
0.120962
0.121831
0.124379
0.124188
0.12369
0.121378
0.117884
0.112582
0.105476
0.0960515
0.0840897
0.0687478
0.0500495
0.0263792
-0.000676137
-0.0348303
-0.0624497
-0.0810143
-0.107547
0.170592
0.180967
0.183733
0.189289
0.191876
0.194318
0.195256
0.195257
0.193737
0.190693
0.185613
0.178345
0.167683
0.154209
0.133347
0.111009
0.0668164
0.0317812
-0.0782212
-0.135047
0.167168
0.177252
0.179978
0.185314
0.187767
0.190023
0.190774
0.190552
0.188792
0.185478
0.180091
0.172469
0.161374
0.147372
0.125798
0.102437
0.0569671
0.018976
-0.0861064
-0.138626
0.163767
0.173648
0.176286
0.181442
0.183723
0.185811
0.186344
0.18587
0.183819
0.180169
0.174382
0.166283
0.154593
0.139848
0.117313
0.0926114
0.0459344
0.00612821
-0.0892005
-0.132847
0.16041
0.170097
0.17264
0.177623
0.179732
0.181647
0.181962
0.181237
0.178898
0.174914
0.168732
0.160162
0.147894
0.132428
0.109011
0.0830551
0.035555
-0.00613372
-0.0940466
-0.134672
0.157104
0.166585
0.169037
0.173845
0.175792
0.177532
0.177642
0.176684
0.17408
0.169794
0.163262
0.154282
0.141527
0.12546
0.101358
0.0743927
0.0264479
-0.0172257
-0.0999029
-0.139411
0.153849
0.163118
0.165481
0.170113
0.171907
0.173475
0.173392
0.172217
0.169371
0.164813
0.157973
0.148642
0.135481
0.118922
0.0943067
0.0665461
0.0184612
-0.0269731
-0.105097
-0.143562
0.150642
0.159701
0.161975
0.166434
0.16808
0.16948
0.169214
0.167835
0.164765
0.15996
0.152845
0.143205
0.129703
0.112735
0.0877416
0.0593525
0.0114008
-0.0354299
-0.109189
-0.14681
0.147486
0.156337
0.158522
0.162811
0.164312
0.165551
0.165109
0.163538
0.160261
0.155229
0.147869
0.137959
0.124175
0.106874
0.0816282
0.0527677
0.00522561
-0.0426671
-0.112342
-0.149222
0.144379
0.153027
0.155123
0.159245
0.160605
0.161687
0.161079
0.159328
0.155861
0.150625
0.143052
0.132913
0.118908
0.10135
0.0759795
0.0467857
-0.000139458
-0.0489443
-0.114478
-0.149632
0.141322
0.149772
0.151779
0.155736
0.156962
0.157892
0.157129
0.155213
0.151574
0.14616
0.138407
0.128085
0.113927
0.0961959
0.070852
0.0415582
-0.00428617
-0.0533674
-0.114998
-0.150616
0.2026
0.21554
0.219005
0.226477
0.230552
0.235395
0.238614
0.241297
0.2428
0.243218
0.242187
0.239654
0.235109
0.229041
0.220059
0.212675
0.200336
0.207932
0.193449
0.291663
0.198381
0.211552
0.21452
0.221908
0.225556
0.229964
0.232615
0.234658
0.235388
0.234905
0.232811
0.229054
0.223051
0.215362
0.204207
0.194658
0.177932
0.183187
0.15704
0.259451
0.19491
0.207942
0.21072
0.217963
0.221403
0.22555
0.227933
0.229691
0.230104
0.229278
0.226797
0.222603
0.216009
0.207598
0.195035
0.183739
0.162198
0.163245
0.122135
0.224712
0.19185
0.20455
0.207322
0.214389
0.217703
0.221668
0.223874
0.225438
0.225634
0.224564
0.221788
0.217231
0.210096
0.200955
0.186986
0.173803
0.147832
0.144052
0.0915901
0.190551
0.188828
0.201188
0.203968
0.210849
0.214032
0.217809
0.219819
0.221154
0.221081
0.219697
0.21653
0.211492
0.203681
0.193675
0.178234
0.163188
0.133246
0.124909
0.0634486
0.155445
0.185767
0.197815
0.200577
0.207265
0.21031
0.213879
0.215675
0.216757
0.216391
0.214661
0.211075
0.205532
0.197044
0.186207
0.169409
0.152695
0.119179
0.106391
0.0361207
0.118687
0.18271
0.194453
0.19719
0.203677
0.206594
0.209945
0.211537
0.212373
0.211728
0.209676
0.205709
0.199714
0.190634
0.179082
0.161111
0.142929
0.106228
0.0889162
0.00966267
0.0802077
0.179688
0.191118
0.19384
0.200116
0.202922
0.206055
0.207459
0.208066
0.20717
0.204829
0.200525
0.194139
0.184549
0.172382
0.153407
0.133925
0.0944955
0.0727659
-0.0149907
0.039609
0.176707
0.18781
0.190532
0.196587
0.199301
0.202212
0.203445
0.203837
0.202709
0.200105
0.195499
0.188762
0.178725
0.166021
0.1462
0.125578
0.0839649
0.0580793
-0.0370063
-0.00334648
0.173763
0.184528
0.187265
0.19309
0.195732
0.198418
0.199498
0.199689
0.198354
0.195513
0.190643
0.183605
0.173199
0.160055
0.13959
0.118072
0.0749553
0.0459379
-0.0538752
-0.0519938
0.468711
0.468062
0.46926
0.468327
0.470312
0.469159
0.47244
0.471094
0.476626
0.475226
0.484895
0.483834
0.50149
0.501695
0.535797
0.539191
0.610203
0.618538
0.774769
0.736182
0.468708
0.468055
0.469254
0.468325
0.470302
0.469161
0.472425
0.471102
0.476606
0.475253
0.484871
0.483908
0.501464
0.501875
0.535737
0.539535
0.609781
0.61815
0.771208
0.717076
0.468705
0.468048
0.469246
0.468324
0.47029
0.469162
0.472409
0.47111
0.476586
0.475282
0.48485
0.48399
0.501446
0.502077
0.535696
0.539936
0.609376
0.6179
0.76737
0.700016
0.468703
0.468041
0.469239
0.468321
0.470278
0.469161
0.472391
0.471116
0.476562
0.475305
0.48482
0.484055
0.501408
0.502241
0.535605
0.540226
0.608808
0.617288
0.762928
0.682017
0.4687
0.468032
0.46923
0.468318
0.470265
0.469159
0.472371
0.471118
0.476534
0.475321
0.484781
0.484109
0.501351
0.502374
0.535465
0.540427
0.608074
0.616347