/*--------------------------------*- C++ -*----------------------------------*\
  =========                 |
  \\      /  F ield         | OpenFOAM: The Open Source CFD Toolbox
   \\    /   O peration     | Website:  https://openfoam.org
    \\  /    A nd           | Version:  7
     \\/     M anipulation  |
\*---------------------------------------------------------------------------*/
FoamFile
{
    version     2.0;
    format      ascii;
    class       volVectorField;
    location    "66";
    object      U;
}
// * * * * * * * * * * * * * * * * * * * * * * * * * * * * * * * * * * * * * //

dimensions      [0 1 -1 0 0 0 0];

internalField   nonuniform List<vector> 
11200
(
(-0.44353 -3.16036e-05 -2.5199e-20)
(-0.443613 -1.02223e-06 1.54043e-19)
(-0.44368 1.91563e-05 -7.68048e-20)
(-0.443815 0.000139786 -6.66736e-20)
(-0.443858 0.000371732 1.2052e-19)
(-0.443769 0.000704605 -2.68629e-19)
(-0.443467 0.00112667 -3.32308e-19)
(-0.442902 0.0016177 -7.45098e-20)
(-0.44203 0.00216082 6.12686e-19)
(-0.440821 0.00274004 -6.28858e-19)
(-0.439253 0.0033423 -1.62542e-19)
(-0.43731 0.00395632 1.11624e-18)
(-0.434988 0.00457227 1.4412e-19)
(-0.432284 0.00518112 6.79359e-19)
(-0.429205 0.00577465 -8.75256e-19)
(-0.425761 0.0063455 2.78406e-19)
(-0.421966 0.00688766 3.31098e-19)
(-0.417838 0.0073968 -2.42656e-19)
(-0.413397 0.00787039 -3.29624e-19)
(-0.408663 0.00830763 -3.16807e-19)
(-0.403658 0.00870907 -1.83293e-19)
(-0.398401 0.00907621 -1.0147e-19)
(-0.392913 0.00941094 -1.42727e-20)
(-0.387213 0.00971513 3.08095e-20)
(-0.38132 0.0099903 3.11356e-20)
(-0.375251 0.0102374 8.66434e-19)
(-0.369027 0.0104565 -5.78037e-19)
(-0.362665 0.0106474 -5.92847e-21)
(-0.356185 0.010809 -9.89969e-19)
(-0.349608 0.0109401 1.546e-19)
(-0.342953 0.0110394 1.09048e-18)
(-0.336242 0.0111056 -1.20541e-19)
(-0.329498 0.0111374 2.15586e-18)
(-0.322743 0.0111336 -2.24934e-18)
(-0.316001 0.0110927 8.27826e-19)
(-0.309297 0.0110128 1.88161e-18)
(-0.302657 0.0108918 5.38848e-20)
(-0.296108 0.0107275 -3.43109e-19)
(-0.289677 0.0105174 2.88593e-18)
(-0.283395 0.0102596 4.28191e-18)
(-0.27729 0.00995277 5.54593e-18)
(-0.271395 0.00959684 5.81166e-18)
(-0.265736 0.00919301 1.94022e-19)
(-0.260343 0.00874395 1.59123e-18)
(-0.25524 0.00825382 -1.03886e-18)
(-0.250449 0.00772817 -3.26376e-18)
(-0.245988 0.00717371 3.36705e-18)
(-0.241869 0.00659817 6.48751e-18)
(-0.2381 0.00601001 2.39891e-19)
(-0.234684 0.00541818 2.54695e-19)
(-0.231617 0.00483177 -4.52894e-18)
(-0.22889 0.00425955 -3.60522e-18)
(-0.226489 0.00370973 -3.11894e-19)
(-0.224396 0.00318956 -6.5068e-20)
(-0.222589 0.00270503 1.27213e-18)
(-0.221043 0.00226069 1.21704e-18)
(-0.219732 0.0018596 4.36395e-18)
(-0.218627 0.00150327 -3.10874e-18)
(-0.217702 0.00119189 -1.26903e-18)
(-0.21693 0.000924457 -5.50667e-19)
(-0.216285 0.000699069 3.57523e-18)
(-0.215743 0.000513041 2.36164e-18)
(-0.215282 0.000363365 4.58543e-18)
(-0.214883 0.000246703 4.48391e-18)
(-0.214528 0.00015993 1.66222e-18)
(-0.2142 0.00010018 2.31593e-18)
(-0.213886 6.43255e-05 8.63041e-19)
(-0.213572 5.07579e-05 4.18414e-19)
(-0.213248 5.64217e-05 6.99142e-19)
(-0.2129 8.04585e-05 -5.94858e-19)
(-0.212519 0.000122674 3.00567e-18)
(-0.212094 0.000182368 2.2655e-18)
(-0.211614 0.000260304 -3.94847e-19)
(-0.211068 0.000357454 2.55651e-18)
(-0.210446 0.000474775 -1.2993e-18)
(-0.209733 0.000614231 2.03514e-18)
(-0.208915 0.000778305 -2.34208e-18)
(-0.207978 0.000970557 6.74949e-19)
(-0.206901 0.00119484 2.23164e-18)
(-0.205667 0.0014571 -1.06105e-18)
(-0.204248 0.00176291 7.0232e-19)
(-0.202622 0.00212239 2.35423e-18)
(-0.200747 0.00254283 8.23399e-19)
(-0.1986 0.00304256 9.62157e-20)
(-0.196112 0.00362952 -2.37541e-19)
(-0.193267 0.00433971 1.13131e-18)
(-0.189931 0.00517652 -7.58323e-19)
(-0.186141 0.00621653 -1.1375e-18)
(-0.181598 0.00744238 -1.67945e-18)
(-0.17652 0.00902314 -1.08807e-18)
(-0.170172 0.010888 -8.25585e-19)
(-0.163342 0.0133753 -4.76345e-19)
(-0.154131 0.0163962 2.35472e-19)
(-0.144946 0.0203058 2.819e-20)
(-0.131029 0.0257407 -4.53334e-19)
(-0.11843 0.0312022 -4.82027e-19)
(-0.0974927 0.0415316 6.9127e-19)
(-0.0775716 0.0454924 5.40133e-19)
(-0.0504748 0.0555556 2.59739e-19)
(-0.0121605 0.0385968 3.56514e-19)
(-0.450411 -2.47389e-05 -3.10809e-20)
(-0.450475 7.68163e-06 1.78624e-19)
(-0.450512 3.30173e-05 6.4145e-20)
(-0.450595 0.000148545 2.39122e-19)
(-0.450574 0.000361784 4.84625e-20)
(-0.450411 0.000664616 1.78664e-19)
(-0.450025 0.0010465 1.05965e-19)
(-0.449369 0.00148947 8.61421e-20)
(-0.448401 0.00197847 6.41912e-19)
(-0.447091 0.0024992 2.07526e-19)
(-0.445417 0.00304005 -5.96809e-19)
(-0.443366 0.00359099 1.16499e-18)
(-0.440932 0.0041433 4.05388e-19)
(-0.438116 0.00468899 1.02379e-18)
(-0.434921 0.00522072 -5.86009e-19)
(-0.43136 0.00573191 5.76518e-19)
(-0.427448 0.00621718 4.50047e-19)
(-0.423202 0.0066726 -2.84579e-19)
(-0.418643 0.00709592 -2.79526e-19)
(-0.413793 0.0074864 -2.28198e-19)
(-0.408672 0.00784462 -1.62936e-19)
(-0.403302 0.00817194 -9.45552e-20)
(-0.397704 0.00847015 1.22876e-19)
(-0.391897 0.00874102 -1.68438e-19)
(-0.385899 0.00898598 4.1088e-20)
(-0.37973 0.0092059 5.24626e-19)
(-0.373407 0.00940104 -7.01251e-20)
(-0.36695 0.00957105 1.94502e-19)
(-0.360377 0.00971509 -1.09603e-18)
(-0.353708 0.00983207 5.49766e-19)
(-0.346963 0.00992077 1.26755e-18)
(-0.340165 0.00998 -4.33779e-19)
(-0.333334 0.0100086 1.32449e-18)
(-0.326493 0.0100055 -1.44099e-18)
(-0.319666 0.00996924 3.31505e-19)
(-0.312878 0.00989828 1.95374e-18)
(-0.306153 0.00979071 -1.09139e-18)
(-0.299519 0.00964436 -5.13417e-19)
(-0.293004 0.00945709 3.15741e-18)
(-0.286637 0.00922706 5.01355e-18)
(-0.280448 0.00895308 5.85682e-18)
(-0.274467 0.00863495 4.92464e-18)
(-0.268723 0.00827368 8.80575e-19)
(-0.263246 0.0078716 -8.46479e-19)
(-0.258061 0.00743238 -2.49916e-18)
(-0.253189 0.00696092 -5.10161e-19)
(-0.248651 0.00646319 2.61101e-18)
(-0.244458 0.00594609 5.73693e-18)
(-0.240621 0.00541717 1.50972e-18)
(-0.237141 0.00488441 3.41327e-19)
(-0.234017 0.00435593 -1.7526e-18)
(-0.231241 0.00383962 -3.80329e-18)
(-0.228799 0.0033429 2.29933e-19)
(-0.226673 0.00287235 3.43473e-19)
(-0.224842 0.00243341 2.19841e-18)
(-0.223281 0.00203029 1.45306e-18)
(-0.221965 0.00166578 2.99553e-18)
(-0.220864 0.00134137 -5.17325e-18)
(-0.219952 0.0010573 -8.09276e-19)
(-0.219202 0.000812768 3.47857e-19)
(-0.218587 0.000606121 2.16587e-18)
(-0.218083 0.000435015 3.66368e-18)
(-0.217668 0.000296822 3.71259e-18)
(-0.217322 0.000188575 3.57891e-18)
(-0.217026 0.000107532 2.29412e-18)
(-0.216764 5.10882e-05 3.9802e-18)
(-0.216521 1.88901e-05 1.25462e-18)
(-0.216284 3.63898e-06 -5.6049e-19)
(-0.216042 7.08142e-06 1.34978e-18)
(-0.215781 2.66302e-05 -1.62526e-18)
(-0.215492 6.04859e-05 2.92057e-18)
(-0.215164 0.000112344 2.66336e-18)
(-0.214785 0.000180441 1.07359e-18)
(-0.214345 0.000265919 2.87599e-18)
(-0.213833 0.000369539 -1.07768e-18)
(-0.213234 0.000493027 1.27291e-18)
(-0.212535 0.000638605 -2.29663e-18)
(-0.21172 0.000809474 7.58883e-19)
(-0.210769 0.0010091 2.01702e-18)
(-0.209663 0.00124285 -1.56941e-22)
(-0.208376 0.00151575 8.2719e-19)
(-0.206882 0.00183698 2.70035e-18)
(-0.205141 0.00221314 1.03906e-18)
(-0.203128 0.00266091 8.04717e-19)
(-0.200769 0.00318743 -3.68067e-19)
(-0.198051 0.00382559 8.2456e-19)
(-0.19483 0.00457832 -6.62818e-19)
(-0.191147 0.00551564 -8.23255e-19)
(-0.186682 0.00662169 -1.89963e-18)
(-0.181666 0.00805063 -1.09519e-18)
(-0.175316 0.00973978 -9.9208e-19)
(-0.168455 0.0119941 -3.70072e-19)
(-0.15908 0.0147476 2.36029e-19)
(-0.149646 0.0182993 -2.75456e-20)
(-0.135272 0.0232863 -5.32885e-19)
(-0.121879 0.0282713 -7.55668e-19)
(-0.10003 0.037707 8.61705e-19)
(-0.0783106 0.0414509 4.03384e-19)
(-0.0497618 0.0500699 2.39588e-19)
(-0.0116548 0.034642 4.79299e-19)
(-0.456566 -1.93223e-05 -3.77842e-20)
(-0.456616 1.29671e-05 9.96271e-20)
(-0.456629 4.09428e-05 -1.96858e-20)
(-0.456669 0.000148399 2.62946e-19)
(-0.456594 0.000340901 3.84682e-19)
(-0.456366 0.000612027 1.59382e-19)
(-0.455907 0.000952427 5.73465e-19)
(-0.455172 0.00134631 2.54215e-19)
(-0.454118 0.00178038 8.29823e-19)
(-0.452717 0.00224204 3.15482e-19)
(-0.450949 0.00272107 -4.33359e-19)
(-0.4488 0.00320866 8.72962e-19)
(-0.446266 0.00369717 6.73669e-19)
(-0.443346 0.0041796 8.98524e-19)
(-0.440047 0.00464951 9.53322e-20)
(-0.43638 0.0051011 5.46285e-19)
(-0.43236 0.00552961 5.87678e-19)
(-0.428007 0.00593154 -9.93254e-20)
(-0.423341 0.00630491 -2.56164e-19)
(-0.418385 0.00664907 -1.56665e-19)
(-0.41316 0.00696456 -1.34276e-19)
(-0.407688 0.00725264 -7.93605e-20)
(-0.40199 0.00751495 1.16501e-20)
(-0.396085 0.00775311 -4.12943e-19)
(-0.389994 0.00796845 6.40122e-20)
(-0.383733 0.00816179 2.81027e-19)
(-0.377322 0.00833341 -5.25514e-19)
(-0.370778 0.008483 3.83323e-19)
(-0.364121 0.00860983 -1.39154e-18)
(-0.35737 0.00871293 -1.06635e-19)
(-0.350545 0.00879119 1.95915e-19)
(-0.343668 0.00884356 -9.19729e-19)
(-0.336759 0.00886902 7.40583e-19)
(-0.329842 0.00886651 -1.0387e-18)
(-0.322939 0.00883486 1.00019e-20)
(-0.316075 0.00877264 2.31726e-18)
(-0.309275 0.00867815 -3.95821e-19)
(-0.302566 0.00854945 -7.52117e-19)
(-0.295975 0.00838462 4.24172e-18)
(-0.289532 0.00818198 4.14591e-18)
(-0.283266 0.00794042 4.42391e-18)
(-0.277209 0.0076597 4.52545e-18)
(-0.27139 0.00734067 1.49807e-18)
(-0.265838 0.00698534 -3.49903e-18)
(-0.260579 0.00659688 -4.3846e-18)
(-0.255635 0.00617958 2.26597e-18)
(-0.251027 0.00573869 2.58754e-18)
(-0.246769 0.00528028 6.08181e-18)
(-0.242869 0.004811 2.80074e-18)
(-0.239332 0.0043379 3.04933e-19)
(-0.236157 0.00386815 4.96581e-19)
(-0.233335 0.00340879 -1.59962e-18)
(-0.230854 0.00296643 1.06195e-18)
(-0.228698 0.00254694 9.01769e-19)
(-0.226844 0.00215521 6.96002e-19)
(-0.22527 0.00179503 1.85573e-18)
(-0.223947 0.00146896 2.06075e-18)
(-0.222849 0.0011784 -5.54329e-18)
(-0.221947 0.000923641 -2.76817e-19)
(-0.221215 0.000704035 -1.32718e-18)
(-0.220626 0.000518186 1.22201e-18)
(-0.220155 0.000364062 3.02119e-18)
(-0.219779 0.000239401 3.39457e-18)
(-0.219479 0.000141583 3.20761e-18)
(-0.219235 6.83176e-05 3.18698e-18)
(-0.21903 1.83006e-05 3.88259e-18)
(-0.21885 -1.33852e-05 1.69136e-18)
(-0.218681 -2.92486e-05 5.28509e-19)
(-0.21851 -2.76744e-05 2.41336e-18)
(-0.218327 -1.09887e-05 -2.90424e-18)
(-0.218119 1.95722e-05 3.55599e-18)
(-0.217875 6.16079e-05 1.2613e-18)
(-0.217586 0.000119759 5.76329e-19)
(-0.217239 0.000193562 3.72753e-18)
(-0.216823 0.000283459 -1.28509e-18)
(-0.216325 0.000390915 8.29195e-19)
(-0.21573 0.000517876 -2.72912e-18)
(-0.215023 0.000667165 1.22842e-18)
(-0.214183 0.000841833 6.23313e-19)
(-0.21319 0.00104666 -4.9477e-19)
(-0.212018 0.00128609 -1.53953e-19)
(-0.210642 0.00156833 3.51509e-18)
(-0.209019 0.00189923 1.36024e-18)
(-0.207123 0.00229376 1.63314e-18)
(-0.204878 0.00275826 -5.9879e-19)
(-0.202271 0.00332226 7.21844e-19)
(-0.199151 0.00398835 -7.0712e-19)
(-0.195562 0.00481942 -6.33912e-19)
(-0.191165 0.00580151 -1.7722e-18)
(-0.186204 0.00707244 -1.26533e-18)
(-0.179852 0.00857875 -7.24217e-19)
(-0.17296 0.0105886 -2.78436e-19)
(-0.163442 0.0130591 3.118e-19)
(-0.153779 0.0162295 -6.52184e-20)
(-0.13901 0.0207289 -7.19045e-19)
(-0.124895 0.0251939 -4.33099e-19)
(-0.102255 0.0336688 6.75422e-19)
(-0.0789755 0.0371275 3.20611e-19)
(-0.049108 0.0444351 2.4385e-19)
(-0.0112051 0.0307597 7.158e-19)
(-0.461982 -1.50014e-05 -5.2059e-20)
(-0.46202 1.55893e-05 4.4818e-20)
(-0.462014 4.39063e-05 -1.03552e-19)
(-0.462019 0.0001411 3.53958e-19)
(-0.461899 0.000311165 3.54181e-19)
(-0.461617 0.000549092 -3.14939e-19)
(-0.461096 0.000846715 5.59158e-19)
(-0.460292 0.00119038 4.33646e-19)
(-0.459163 0.00156857 1.11808e-18)
(-0.457683 0.00197034 3.71035e-19)
(-0.45583 0.00238684 -3.19415e-19)
(-0.453595 0.00281048 7.98121e-19)
(-0.450971 0.00323467 1.01645e-18)
(-0.447959 0.00365341 8.35306e-19)
(-0.444567 0.00406112 6.89158e-19)
(-0.440805 0.0044528 6.29301e-19)
(-0.43669 0.00482432 7.62939e-19)
(-0.432241 0.00517265 6.07373e-21)
(-0.42748 0.00549604 -2.70355e-19)
(-0.422429 0.00579397 -9.39675e-20)
(-0.417111 0.00606691 -1.00277e-19)
(-0.411548 0.00631601 -5.4042e-20)
(-0.405761 0.00654274 -9.26375e-20)
(-0.39977 0.00674855 -3.17885e-19)
(-0.393595 0.00693466 1.37256e-19)
(-0.387253 0.00710181 -6.16953e-19)
(-0.380763 0.00725026 -2.46297e-19)
(-0.374144 0.00737977 6.59192e-19)
(-0.367412 0.0074897 -2.05011e-18)
(-0.360589 0.0075792 -6.70753e-19)
(-0.353693 0.00764729 6.24929e-19)
(-0.346746 0.00769304 -1.58653e-18)
(-0.339769 0.00771553 3.93471e-19)
(-0.332784 0.00771386 -9.02348e-19)
(-0.325815 0.00768698 -8.32951e-20)
(-0.318884 0.00763364 3.07148e-18)
(-0.312018 0.00755235 2.01866e-20)
(-0.305242 0.00744142 -9.29977e-19)
(-0.298585 0.00729913 3.76143e-18)
(-0.292075 0.00712399 3.79954e-18)
(-0.285743 0.006915 6.31662e-18)
(-0.279619 0.00667189 4.70888e-18)
(-0.273733 0.00639535 1.9777e-18)
(-0.268115 0.00608707 -4.14021e-18)
(-0.26279 0.00574978 -3.80751e-18)
(-0.257783 0.00538715 2.78032e-18)
(-0.253114 0.00500371 3.02658e-18)
(-0.248796 0.00460471 4.49187e-18)
(-0.244842 0.0041959 4.14359e-18)
(-0.241254 0.00378341 8.93628e-20)
(-0.238032 0.00337347 2.75753e-18)
(-0.23517 0.00297224 2.64144e-19)
(-0.232655 0.00258551 2.21493e-18)
(-0.230471 0.00221842 1.5833e-18)
(-0.228597 0.00187528 -6.48811e-19)
(-0.227008 0.00155944 2.66353e-18)
(-0.225679 0.0012732 1.25552e-18)
(-0.224582 0.00101783 -4.32964e-18)
(-0.223689 0.00079366 6.24207e-19)
(-0.222971 0.000600174 -3.34818e-18)
(-0.222404 0.000436194 7.20349e-19)
(-0.221961 0.000299983 2.89354e-18)
(-0.22162 0.000189622 3.58194e-18)
(-0.221359 0.000102807 3.25246e-18)
(-0.221159 3.75414e-05 2.00994e-18)
(-0.221003 -7.46961e-06 4.50383e-18)
(-0.220878 -3.98202e-05 2.17813e-18)
(-0.220767 -5.45395e-05 1.79386e-18)
(-0.220659 -5.4549e-05 3.83405e-18)
(-0.220541 -4.02624e-05 -2.80561e-18)
(-0.220404 -1.1624e-05 3.05761e-18)
(-0.220235 2.48703e-05 2.09478e-18)
(-0.220022 7.40098e-05 2.25288e-19)
(-0.219756 0.000137225 3.33745e-18)
(-0.219424 0.000214387 -1.21726e-19)
(-0.219014 0.000306732 5.88321e-19)
(-0.218509 0.000415943 -2.09773e-18)
(-0.217895 0.000544457 4.80768e-19)
(-0.217151 0.000694905 8.57181e-19)
(-0.216257 0.000871444 2.51756e-19)
(-0.215185 0.00107793 1.18442e-19)
(-0.213911 0.00132155 3.87067e-18)
(-0.212389 0.00160739 1.76493e-18)
(-0.210595 0.00194859 1.57401e-18)
(-0.20845 0.00235065 -6.37001e-20)
(-0.205939 0.00283957 8.24877e-19)
(-0.202907 0.00341752 -9.50166e-19)
(-0.199399 0.0041399 -5.75441e-19)
(-0.195062 0.0049945 -1.30963e-18)
(-0.190147 0.00610216 -9.225e-19)
(-0.183793 0.00741793 -5.22753e-19)
(-0.176874 0.00917293 -2.18994e-19)
(-0.167233 0.0113425 4.68061e-19)
(-0.157365 0.0141127 -1.40005e-19)
(-0.142258 0.0180842 -1.02733e-18)
(-0.127504 0.0219957 -1.84001e-19)
(-0.104181 0.0294553 4.58439e-20)
(-0.0795616 0.0325823 2.47088e-19)
(-0.0485047 0.0387557 2.38726e-19)
(-0.0107934 0.0269999 1.06053e-18)
(-0.466646 -1.15297e-05 -3.32481e-20)
(-0.466675 1.60701e-05 -9.70693e-21)
(-0.466655 4.28123e-05 -1.91569e-19)
(-0.466631 0.000127873 2.0986e-19)
(-0.466474 0.000274026 3.49486e-19)
(-0.466147 0.000477426 -3.77057e-19)
(-0.465574 0.00073111 7.2762e-19)
(-0.464712 0.00102354 6.90169e-19)
(-0.463519 0.00134496 1.60822e-18)
(-0.461971 0.00168608 3.5902e-19)
(-0.460046 0.00203944 -2.98583e-19)
(-0.457735 0.00239861 9.44691e-19)
(-0.455033 0.00275806 8.40358e-19)
(-0.451942 0.00311274 8.46063e-19)
(-0.448468 0.00345797 1.37307e-18)
(-0.444624 0.00378953 7.96876e-19)
(-0.440426 0.00410392 6.08056e-19)
(-0.435893 0.00439858 2.43206e-20)
(-0.431049 0.00467203 -1.16961e-19)
(-0.425915 0.00492385 -3.01599e-20)
(-0.420516 0.00515446 -8.45817e-20)
(-0.414874 0.00536486 -2.71352e-20)
(-0.409009 0.00555633 -2.13669e-19)
(-0.402944 0.00573016 -2.92952e-19)
(-0.396696 0.0058874 2.55517e-19)
(-0.390284 0.00602871 -9.59483e-19)
(-0.383726 0.00615434 6.85018e-20)
(-0.37704 0.00626408 6.52767e-21)
(-0.370245 0.00635738 -2.08476e-18)
(-0.363358 0.00643352 -1.22863e-18)
(-0.356402 0.00649164 1.22923e-18)
(-0.349394 0.00653094 -9.52957e-19)
(-0.342358 0.00655062 1.96248e-19)
(-0.335315 0.00654988 -9.98288e-19)
(-0.328288 0.00652785 -7.1099e-20)
(-0.3213 0.00648343 2.4067e-18)
(-0.314377 0.00641536 1.11303e-19)
(-0.307544 0.00632218 -1.28784e-18)
(-0.30083 0.0062024 1.8132e-18)
(-0.294262 0.00605473 4.11581e-18)
(-0.287873 0.00587828 6.61796e-18)
(-0.281691 0.0056728 2.78278e-18)
(-0.275748 0.00543881 2.49567e-18)
(-0.270072 0.00517771 -2.94258e-18)
(-0.264692 0.00489179 -3.76015e-18)
(-0.25963 0.00458414 4.21768e-18)
(-0.254907 0.00425857 3.80898e-18)
(-0.250539 0.00391951 3.53312e-18)
(-0.246537 0.00357182 6.00864e-18)
(-0.242905 0.0032207 -3.41807e-19)
(-0.239643 0.00287145 5.61034e-18)
(-0.236746 0.00252931 2.09711e-18)
(-0.234201 0.00219925 6.95236e-19)
(-0.231992 0.00188565 2.41939e-18)
(-0.230099 0.00159222 7.0564e-19)
(-0.228498 0.00132187 1.08559e-18)
(-0.227163 0.0010766 3.696e-18)
(-0.226066 0.000857544 -3.98159e-18)
(-0.225179 0.000665034 1.82753e-18)
(-0.224474 0.000498685 -3.22563e-18)
(-0.223924 0.000357529 5.13156e-19)
(-0.223504 0.000240124 5.93576e-19)
(-0.223191 0.000144924 4.32236e-18)
(-0.222963 7.00089e-05 1.14491e-18)
(-0.222801 1.4441e-05 1.0702e-18)
(-0.222688 -2.75636e-05 3.46657e-18)
(-0.222608 -5.46902e-05 2.94168e-18)
(-0.222547 -6.78237e-05 3.12988e-18)
(-0.222492 -6.83223e-05 5.86401e-18)
(-0.222431 -5.71521e-05 -1.17926e-18)
(-0.222353 -3.4657e-05 3.30839e-18)
(-0.222246 1.85882e-07 3.09866e-18)
(-0.2221 4.07921e-05 1.71873e-18)
(-0.221902 9.35493e-05 3.59537e-18)
(-0.221642 0.000158505 7.76413e-19)
(-0.221306 0.000236347 4.50069e-19)
(-0.220878 0.000328427 -1.96748e-18)
(-0.220344 0.000436782 -7.02383e-20)
(-0.219681 0.000563611 1.19505e-18)
(-0.218871 0.000712434 1.04302e-18)
(-0.217885 0.000886512 4.56935e-19)
(-0.216697 0.00109196 3.68957e-18)
(-0.215262 0.0013331 2.3063e-18)
(-0.213555 0.00162116 1.80803e-18)
(-0.211494 0.00196079 3.53322e-19)
(-0.209066 0.0023743 1.0987e-18)
(-0.206108 0.00286346 -6.04898e-19)
(-0.20267 0.00347575 1.83899e-19)
(-0.198383 0.00420084 -1.09365e-18)
(-0.193508 0.00514177 -6.92752e-19)
(-0.187153 0.00626186 -3.95179e-19)
(-0.180209 0.0077549 -1.98117e-19)
(-0.170465 0.00961056 7.01893e-19)
(-0.160419 0.0119679 -2.72309e-19)
(-0.145029 0.0153806 -9.96863e-19)
(-0.129722 0.0187164 5.22578e-20)
(-0.105822 0.0251124 8.19766e-20)
(-0.0800687 0.0278602 2.19141e-19)
(-0.0479632 0.0329952 2.55752e-19)
(-0.0104219 0.0231747 1.61051e-18)
(-0.470549 -8.70619e-06 -2.35361e-20)
(-0.470571 1.49038e-05 7.68143e-20)
(-0.470539 3.85188e-05 -7.57212e-20)
(-0.470494 0.000109864 1.33151e-19)
(-0.470307 0.000230829 3.83702e-19)
(-0.469944 0.000398537 -5.1213e-19)
(-0.469328 0.000607248 5.2777e-19)
(-0.468418 0.000847537 4.74772e-19)
(-0.467173 0.00111139 1.66827e-18)
(-0.465567 0.00139121 2.44501e-19)
(-0.463581 0.00168086 -3.30298e-19)
(-0.461207 0.00197513 6.79848e-19)
(-0.45844 0.00226948 8.07403e-19)
(-0.455281 0.00255982 9.82234e-19)
(-0.451738 0.00284235 1.71013e-18)
(-0.447825 0.00311363 5.19291e-19)
(-0.443556 0.00337079 4.87695e-19)
(-0.438953 0.00361176 -1.22793e-20)
(-0.434039 0.00383534 -1.9382e-19)
(-0.428835 0.00404118 -6.253e-20)
(-0.423368 0.00422966 -7.63964e-20)
(-0.417658 0.00440163 -2.05552e-22)
(-0.411729 0.00455816 -1.22464e-19)
(-0.4056 0.00470034 -3.04719e-19)
(-0.39929 0.00482905 4.37695e-19)
(-0.392819 0.00494485 -8.2747e-19)
(-0.386204 0.00504795 -3.93041e-19)
(-0.379462 0.00513819 -6.99539e-19)
(-0.372613 0.00521511 -1.41235e-18)
(-0.365674 0.00527808 -5.07531e-19)
(-0.358666 0.00532639 2.1722e-18)
(-0.351608 0.00535937 -6.59079e-19)
(-0.344523 0.00537632 1.15033e-19)
(-0.337431 0.00537659 5.56971e-19)
(-0.330356 0.00535943 2.06007e-18)
(-0.32332 0.00532393 2.30903e-18)
(-0.316349 0.00526903 1.31739e-19)
(-0.309468 0.00519352 3.82816e-19)
(-0.302706 0.00509617 2.94695e-18)
(-0.29609 0.00497587 2.65415e-18)
(-0.289653 0.00483187 5.37524e-18)
(-0.283423 0.00466393 3.73699e-18)
(-0.277431 0.00447247 3.33749e-18)
(-0.271708 0.00425859 -2.63472e-18)
(-0.266281 0.00402415 -1.2136e-18)
(-0.261173 0.00377165 3.94577e-18)
(-0.256405 0.00350422 5.17853e-18)
(-0.251995 0.00322547 3.1574e-18)
(-0.247952 0.00293939 5.83095e-18)
(-0.244283 0.00265024 1.84533e-18)
(-0.240988 0.00236237 6.50454e-18)
(-0.23806 0.00208011 3.94867e-18)
(-0.23549 0.00180758 2.24038e-18)
(-0.23326 0.0015484 3.68534e-18)
(-0.231351 0.00130568 2.03163e-18)
(-0.229739 0.00108183 -3.27998e-19)
(-0.228398 0.000878566 3.7471e-18)
(-0.227301 0.000696862 -1.84388e-18)
(-0.226418 0.000537036 8.34164e-19)
(-0.225723 0.00039882 -1.01453e-18)
(-0.225188 0.000281457 6.3958e-19)
(-0.224787 0.000183794 1.23364e-18)
(-0.224497 0.0001046 5.85503e-18)
(-0.224296 4.23195e-05 -1.0315e-18)
(-0.224165 -3.55779e-06 2.581e-19)
(-0.224087 -4.0065e-05 5.47654e-18)
(-0.224045 -6.27906e-05 1.70543e-18)
(-0.224024 -7.376e-05 2.67528e-18)
(-0.224013 -7.42537e-05 6.5429e-18)
(-0.223998 -6.49721e-05 -2.4138e-19)
(-0.223969 -4.61121e-05 4.37802e-18)
(-0.223915 -1.73752e-05 4.4769e-18)
(-0.223824 1.67527e-05 3.36416e-18)
(-0.223683 6.05283e-05 4.50208e-18)
(-0.223482 0.000113952 1.62672e-18)
(-0.223207 0.000177788 3.36349e-19)
(-0.222844 0.000253195 -5.82584e-19)
(-0.222375 0.000341824 -5.00564e-19)
(-0.22178 0.000445448 1.76436e-18)
(-0.22104 0.000566938 1.96221e-18)
(-0.220124 0.000708952 8.62535e-19)
(-0.219008 0.000876516 3.04765e-18)
(-0.217645 0.00107317 3.05291e-18)
(-0.21601 0.00130818 2.29189e-18)
(-0.214019 0.00158536 7.16484e-19)
(-0.211659 0.00192315 1.56712e-18)
(-0.208763 0.00232302 -4.97905e-19)
(-0.205382 0.00282416 2.68508e-19)
(-0.201138 0.00341824 -1.12038e-18)
(-0.196297 0.00418987 -5.51246e-19)
(-0.189941 0.00511048 -2.88204e-19)
(-0.182977 0.00633637 -1.54811e-19)
(-0.173148 0.00786826 1.10851e-18)
(-0.162954 0.00980368 -4.96502e-19)
(-0.147332 0.0126322 -1.14973e-18)
(-0.131562 0.0153756 3.37213e-19)
(-0.107185 0.0206671 1.215e-19)
(-0.0804982 0.0229892 2.50492e-19)
(-0.0474965 0.0271447 2.45512e-19)
(-0.0100972 0.019245 1.43148e-18)
(-0.473681 -6.36519e-06 -1.73286e-20)
(-0.473699 1.25012e-05 1.78984e-19)
(-0.473659 3.17665e-05 1.69372e-20)
(-0.473596 8.81325e-05 9.68988e-20)
(-0.473387 0.000182864 4.36853e-19)
(-0.472995 0.000313896 -2.53611e-19)
(-0.472346 0.00047675 5.43038e-19)
(-0.471398 0.000664099 3.92155e-19)
(-0.470111 0.000869697 1.39645e-18)
(-0.468459 0.00108762 -1.16566e-21)
(-0.466425 0.0013131 -3.95015e-19)
(-0.464 0.00154207 6.00439e-19)
(-0.461179 0.00177102 8.9016e-19)
(-0.457966 0.00199678 1.29749e-18)
(-0.454368 0.00221641 1.69548e-18)
(-0.450398 0.00242726 6.81944e-19)
(-0.446072 0.00262711 8.05881e-19)
(-0.441412 0.00281436 -8.44835e-20)
(-0.436441 0.0029881 -9.50718e-20)
(-0.431181 0.00314807 -9.35673e-20)
(-0.425658 0.00329458 -7.85582e-20)
(-0.419894 0.00342833 3.40792e-20)
(-0.413912 0.00355017 -6.09957e-20)
(-0.407732 0.00366096 -3.66997e-19)
(-0.401373 0.00376141 7.14765e-19)
(-0.394854 0.00385197 -9.07785e-19)
(-0.388193 0.0039328 -8.55869e-19)
(-0.381406 0.00400375 -5.81918e-19)
(-0.374513 0.00406446 -9.32011e-19)
(-0.367532 0.00411443 -1.05949e-18)
(-0.360483 0.00415307 2.1033e-18)
(-0.353385 0.00417982 -6.40736e-19)
(-0.346259 0.00419414 1.15863e-19)
(-0.339128 0.00419546 3.446e-19)
(-0.332014 0.00418319 2.5619e-18)
(-0.32494 0.0041566 2.49306e-18)
(-0.31793 0.00411485 1.16031e-19)
(-0.311011 0.00405696 2.28608e-18)
(-0.30421 0.00398194 2.1386e-18)
(-0.297557 0.00388893 1.67144e-18)
(-0.29108 0.00377731 2.44517e-18)
(-0.284811 0.00364686 2.39215e-18)
(-0.278781 0.00349789 4.51005e-18)
(-0.27302 0.00333126 -3.13031e-18)
(-0.267554 0.00314837 -1.73866e-18)
(-0.26241 0.00295118 1.55529e-18)
(-0.257606 0.00274211 4.34411e-18)
(-0.253162 0.00252398 3.12286e-18)
(-0.249087 0.00229989 6.68203e-18)
(-0.245387 0.00207318 4.12315e-18)
(-0.242065 0.00184725 8.53826e-18)
(-0.239113 0.00162552 3.21116e-18)
(-0.236521 0.00141123 4.05366e-18)
(-0.234275 0.00120728 2.48089e-18)
(-0.232353 0.00101611 5.46913e-19)
(-0.230732 0.00083965 -1.74394e-18)
(-0.229386 0.000679275 1.64721e-18)
(-0.228288 0.000535798 -3.4166e-19)
(-0.227409 0.000409509 1.297e-20)
(-0.226721 0.000300244 9.76679e-19)
(-0.226197 0.000207451 9.20868e-19)
(-0.225811 0.000130293 2.11265e-18)
(-0.225539 6.78363e-05 5.88437e-18)
(-0.22536 1.93125e-05 -1.11487e-18)
(-0.225254 -1.87455e-05 -2.76289e-19)
(-0.225203 -4.71332e-05 6.13091e-18)
(-0.22519 -6.47539e-05 5.5951e-19)
(-0.225202 -7.30664e-05 2.75333e-19)
(-0.225226 -7.30191e-05 6.2147e-18)
(-0.225248 -6.52331e-05 4.64517e-19)
(-0.225259 -4.99479e-05 4.31423e-18)
(-0.225246 -2.73867e-05 4.60846e-18)
(-0.225197 4.3341e-06 3.40532e-18)
(-0.225102 3.71617e-05 4.19274e-18)
(-0.224949 7.89211e-05 2.51542e-18)
(-0.224723 0.000129037 2.00216e-18)
(-0.22441 0.000188135 -1.01377e-18)
(-0.223993 0.00025742 -9.7091e-19)
(-0.223453 0.000338218 2.7902e-18)
(-0.222768 0.000432734 1.77237e-18)
(-0.221908 0.000543017 1.33734e-18)
(-0.22085 0.00067298 3.01442e-18)
(-0.219544 0.000825377 3.11812e-18)
(-0.217967 0.00100746 1.96873e-18)
(-0.216031 0.00122223 1.08449e-18)
(-0.213726 0.00148412 2.30018e-18)
(-0.21088 0.00179434 2.78491e-19)
(-0.207545 0.00218353 4.18543e-19)
(-0.203334 0.00264546 -6.90169e-19)
(-0.198521 0.00324585 -4.47373e-19)
(-0.192164 0.003964 -2.43748e-19)
(-0.185186 0.00491895 -1.13637e-19)
(-0.175289 0.00611923 1.18494e-18)
(-0.164978 0.00762641 -2.78947e-19)
(-0.149174 0.00985 -9.97638e-19)
(-0.133032 0.0119888 7.5359e-19)
(-0.108278 0.0161429 1.7388e-19)
(-0.0808493 0.017998 3.04502e-19)
(-0.0471129 0.0212164 2.56668e-19)
(-0.00982504 0.0152108 1.49599e-18)
(-0.476037 -4.36895e-06 -6.81673e-21)
(-0.476051 9.21061e-06 1.75839e-19)
(-0.476005 2.32115e-05 1.0429e-19)
(-0.47593 6.36368e-05 1.22239e-19)
(-0.475704 0.000131311 5.56429e-19)
(-0.475292 0.000224878 -8.02208e-20)
(-0.474619 0.000341149 6.99954e-19)
(-0.473642 0.000474904 3.86535e-19)
(-0.472323 0.00062168 1.34401e-18)
(-0.470637 0.000777239 2.82052e-19)
(-0.468567 0.000938176 1.7159e-19)
(-0.466103 0.00110156 7.24016e-19)
(-0.463243 0.00126488 1.11764e-18)
(-0.459988 0.00142588 1.24124e-18)
(-0.456348 0.00158247 1.38484e-18)
(-0.452335 0.00173279 8.3491e-19)
(-0.447967 0.00187528 8.02111e-19)
(-0.443264 0.0020088 4.5274e-20)
(-0.438249 0.00213273 -1.1916e-21)
(-0.432947 0.00224691 -1.32302e-19)
(-0.427382 0.00235159 -9.44729e-20)
(-0.421577 0.00244729 9.49145e-20)
(-0.415555 0.00253463 -3.20225e-20)
(-0.409336 0.00261425 -4.70829e-19)
(-0.40294 0.00268667 1.17107e-18)
(-0.396384 0.00275219 -5.80493e-19)
(-0.389688 0.00281093 -5.9968e-19)
(-0.382868 0.00286277 -5.421e-19)
(-0.375942 0.00290744 -6.9223e-19)
(-0.368929 0.00294453 -1.66733e-18)
(-0.361848 0.0029736 2.53923e-18)
(-0.354719 0.00299422 -9.09513e-19)
(-0.347564 0.00300595 2.16518e-19)
(-0.340403 0.00300837 2.75189e-19)
(-0.33326 0.00300102 3.72751e-18)
(-0.326157 0.00298334 8.19361e-19)
(-0.319118 0.00295469 -1.42309e-19)
(-0.312171 0.00291437 2.25895e-18)
(-0.305341 0.00286164 1.6739e-18)
(-0.298658 0.00279585 9.43072e-19)
(-0.292152 0.00271653 -2.57495e-20)
(-0.285855 0.00262352 1.44068e-18)
(-0.279796 0.00251701 3.54999e-18)
(-0.274005 0.0023976 -4.7834e-18)
(-0.268511 0.00226631 -2.33573e-18)
(-0.263339 0.00212451 -3.02951e-19)
(-0.258509 0.00197395 4.33782e-18)
(-0.254038 0.00181663 3.61288e-18)
(-0.249938 0.00165481 5.6579e-18)
(-0.246217 0.00149086 3.74981e-18)
(-0.242873 0.00132723 9.0269e-18)
(-0.239903 0.00116646 2.56262e-18)
(-0.237296 0.00101099 3.46497e-18)
(-0.235036 0.000862895 1.58521e-18)
(-0.233104 0.000723972 -1.10402e-18)
(-0.231476 0.000595637 -3.50834e-18)
(-0.230127 0.000478912 3.0625e-18)
(-0.229028 0.000374413 1.08922e-18)
(-0.228151 0.000282378 -6.4849e-19)
(-0.227468 0.000202714 3.14185e-18)
(-0.226953 0.000135006 1.40312e-18)
(-0.226578 7.85628e-05 6.4322e-19)
(-0.226319 3.37992e-05 4.27343e-18)
(-0.226156 -9.71027e-07 -1.89841e-18)
(-0.226068 -3.01053e-05 -7.94848e-19)
(-0.226038 -5.00959e-05 5.44488e-18)
(-0.226047 -6.22911e-05 -8.64584e-19)
(-0.226084 -6.75506e-05 -2.04939e-18)
(-0.226133 -6.66223e-05 4.73013e-18)
(-0.226183 -6.00042e-05 7.76348e-19)
(-0.226223 -4.78164e-05 2.99958e-18)
(-0.22624 -3.02502e-05 5.24447e-18)
(-0.226225 -5.74295e-06 3.83364e-18)
(-0.226164 1.87794e-05 4.58147e-18)
(-0.226045 5.0297e-05 3.62427e-18)
(-0.225856 8.74957e-05 2.11846e-18)
(-0.225581 0.000130881 -1.78818e-18)
(-0.225204 0.000181334 -1.51327e-18)
(-0.224704 0.000239768 2.93469e-18)
(-0.22406 0.000307732 1.7641e-18)
(-0.223243 0.000386668 2.00683e-18)
(-0.222227 0.000479363 2.24083e-18)
(-0.220965 0.000587786 2.46426e-18)
(-0.21943 0.000717143 1.89219e-18)
(-0.217536 0.000869608 1.53022e-18)
(-0.215273 0.00105554 2.49388e-18)
(-0.212463 0.00127591 1.4374e-19)
(-0.209163 0.00155264 -1.49341e-19)
(-0.204977 0.00188162 -4.29057e-19)
(-0.200185 0.00230951 -3.62591e-19)
(-0.193828 0.00282307 -2.29056e-19)
(-0.18684 0.00350481 -1.00092e-19)
(-0.176894 0.00436825 9.77065e-19)
(-0.166495 0.0054438 -1.78981e-19)
(-0.150557 0.00704736 -4.74178e-19)
(-0.134137 0.00857444 6.18345e-19)
(-0.109101 0.0115665 2.30002e-19)
(-0.0811192 0.0129206 3.92937e-19)
(-0.0468181 0.0152269 2.70346e-19)
(-0.00961109 0.0110652 2.01799e-18)
(-0.47761 -2.60466e-06 1.00837e-20)
(-0.477623 5.33728e-06 7.21875e-20)
(-0.477572 1.34315e-05 1.96511e-19)
(-0.477489 3.721e-05 1.68144e-19)
(-0.477253 7.72188e-05 7.62789e-19)
(-0.476827 0.000132743 6.7029e-20)
(-0.476138 0.000201906 1.001e-18)
(-0.475143 0.000281595 4.21445e-19)
(-0.473803 0.000369143 1.51446e-18)
(-0.472094 0.000462007 4.61217e-19)
(-0.469999 0.000558148 7.73733e-19)
(-0.46751 0.000655771 1.00121e-18)
(-0.464623 0.000753321 9.26829e-19)
(-0.461341 0.000849461 1.34363e-18)
(-0.457673 0.000942961 1.21993e-18)
(-0.453631 0.00103272 1.04302e-18)
(-0.449234 0.00111784 8.59953e-19)
(-0.444501 0.00119766 1.09847e-19)
(-0.439458 0.00127185 -1.29896e-19)
(-0.434127 0.00134035 -1.93959e-19)
(-0.428534 0.00140333 -1.04623e-19)
(-0.422701 0.00146114 3.77861e-20)
(-0.416652 0.00151417 -2.85754e-20)
(-0.410408 0.00156281 -6.25749e-19)
(-0.403986 0.00160737 1.32284e-18)
(-0.397407 0.00164804 -4.86632e-19)
(-0.390687 0.00168487 -4.37614e-19)
(-0.383844 0.00171775 4.12054e-19)
(-0.376896 0.00174649 -5.71026e-19)