/*--------------------------------*- C++ -*----------------------------------*\
  =========                 |
  \\      /  F ield         | OpenFOAM: The Open Source CFD Toolbox
   \\    /   O peration     | Website:  https://openfoam.org
    \\  /    A nd           | Version:  7
     \\/     M anipulation  |
\*---------------------------------------------------------------------------*/
FoamFile
{
    version     2.0;
    format      ascii;
    class       volScalarField;
    location    "44";
    object      p;
}
// * * * * * * * * * * * * * * * * * * * * * * * * * * * * * * * * * * * * * //

dimensions      [0 2 -2 0 0 0 0];

internalField   nonuniform List<scalar> 
8000
(
0.0170084
-0.0247948
-0.02705
-0.0626832
-0.0847838
-0.114238
-0.140502
-0.165823
-0.189253
-0.210436
-0.229271
-0.245674
-0.25961
-0.27108
-0.28011
-0.286748
-0.291057
-0.293131
-0.2931
-0.291038
-0.28713
-0.281553
-0.274497
-0.266173
-0.256803
-0.246616
-0.235845
-0.224718
-0.213457
-0.202266
-0.191334
-0.180825
-0.170875
-0.161596
-0.153068
-0.145343
-0.138448
-0.132384
-0.127135
-0.122665
-0.118928
-0.115868
-0.113425
-0.111537
-0.110141
-0.109176
-0.108585
-0.108314
-0.108316
-0.10855
-0.108974
-0.109551
-0.11025
-0.111047
-0.111919
-0.112846
-0.113816
-0.114816
-0.115837
-0.116875
-0.117925
-0.118983
-0.12005
-0.121128
-0.122216
-0.123319
-0.124437
-0.125571
-0.126726
-0.127901
-0.1291
-0.130323
-0.131572
-0.132846
-0.134145
-0.135469
-0.136816
-0.138184
-0.139569
-0.140969
-0.142378
-0.14379
-0.145198
-0.146593
-0.147964
-0.1493
-0.150584
-0.1518
-0.152928
-0.153942
-0.154822
-0.155526
-0.156066
-0.156316
-0.156574
-0.156073
-0.157275
-0.155204
-0.162726
-0.15911
0.0138161
-0.0216776
-0.0238817
-0.0581243
-0.0803345
-0.11006
-0.136665
-0.162383
-0.186151
-0.207635
-0.226733
-0.243362
-0.257492
-0.269134
-0.278317
-0.285095
-0.289538
-0.291738
-0.291809
-0.289868
-0.286083
-0.280626
-0.273692
-0.265489
-0.256239
-0.24617
-0.235514
-0.224497
-0.21334
-0.202246
-0.191402
-0.180971
-0.171089
-0.161867
-0.153385
-0.145694
-0.138822
-0.132772
-0.127525
-0.12305
-0.119299
-0.11622
-0.113752
-0.111835
-0.110407
-0.109409
-0.108785
-0.108482
-0.108452
-0.108652
-0.109044
-0.10959
-0.110264
-0.111037
-0.111888
-0.112799
-0.113755
-0.114745
-0.115758
-0.116788
-0.117832
-0.118888
-0.119957
-0.121037
-0.122127
-0.123228
-0.124344
-0.125479
-0.126632
-0.127806
-0.129003
-0.130225
-0.131471
-0.132742
-0.134038
-0.135359
-0.136703
-0.138067
-0.13945
-0.140846
-0.142251
-0.14366
-0.145065
-0.146456
-0.147824
-0.149156
-0.150437
-0.151647
-0.152768
-0.153772
-0.154637
-0.155315
-0.155821
-0.156012
-0.156208
-0.155585
-0.156516
-0.154307
-0.160055
-0.157516
0.0109815
-0.0187308
-0.0206941
-0.0535127
-0.0759479
-0.105907
-0.132922
-0.159037
-0.183151
-0.204941
-0.2243
-0.241151
-0.255475
-0.267284
-0.276618
-0.283532
-0.288102
-0.290421
-0.290607
-0.288784
-0.285113
-0.279771
-0.272951
-0.264862
-0.255724
-0.245766
-0.235217
-0.224303
-0.213242
-0.202239
-0.191477
-0.181119
-0.171301
-0.162132
-0.153692
-0.146033
-0.139182
-0.133143
-0.127898
-0.123416
-0.119652
-0.116553
-0.114061
-0.112115
-0.110656
-0.109625
-0.108968
-0.108632
-0.10857
-0.10874
-0.109103
-0.109626
-0.110278
-0.111033
-0.11187
-0.11277
-0.113717
-0.114699
-0.115706
-0.116739
-0.117789
-0.118839
-0.119899
-0.120969
-0.122053
-0.123155
-0.124272
-0.125403
-0.126554
-0.127726
-0.12892
-0.130137
-0.13138
-0.132647
-0.133939
-0.135255
-0.136593
-0.137952
-0.139329
-0.140719
-0.142118
-0.143521
-0.144919
-0.146304
-0.147665
-0.14899
-0.150263
-0.151465
-0.152577
-0.15357
-0.154422
-0.15508
-0.155563
-0.155702
-0.155835
-0.155099
-0.155757
-0.153463
-0.157711
-0.155803
0.00873541
-0.0159285
-0.0175348
-0.049037
-0.0717135
-0.101925
-0.129368
-0.155879
-0.180338
-0.202423
-0.222033
-0.239096
-0.253601
-0.265568
-0.275041
-0.282082
-0.286769
-0.2892
-0.289495
-0.287779
-0.284215
-0.27898
-0.272266
-0.264284
-0.255251
-0.245396
-0.234947
-0.224129
-0.213159
-0.202239
-0.191554
-0.181263
-0.171504
-0.162383
-0.153981
-0.146351
-0.13952
-0.13349
-0.128247
-0.123759
-0.119983
-0.116865
-0.11435
-0.112378
-0.11089
-0.109828
-0.10914
-0.108773
-0.108682
-0.108824
-0.109161
-0.109661
-0.110292
-0.111028
-0.111849
-0.112734
-0.113669
-0.114641
-0.115643
-0.116656
-0.117685
-0.118741
-0.119809
-0.12089
-0.12198
-0.123074
-0.124182
-0.125315
-0.126466
-0.127635
-0.128827
-0.130043
-0.131282
-0.132546
-0.133835
-0.135147
-0.136481
-0.137835
-0.139207
-0.140593
-0.141987
-0.143384
-0.144776
-0.146155
-0.14751
-0.148828
-0.150093
-0.151287
-0.152389
-0.153368
-0.154204
-0.154837
-0.155291
-0.155377
-0.155436
-0.154594
-0.154974
-0.152641
-0.155673
-0.154002
0.00714656
-0.0132689
-0.0144487
-0.0448123
-0.0677191
-0.0981995
-0.126064
-0.152958
-0.17775
-0.200115
-0.219959
-0.237219
-0.251891
-0.264004
-0.273607
-0.280766
-0.285563
-0.2881
-0.288496
-0.286881
-0.283418
-0.278284
-0.271671
-0.263788
-0.254854
-0.245095
-0.234739
-0.224009
-0.213122
-0.202278
-0.19166
-0.18143
-0.171721
-0.162642
-0.154273
-0.146667
-0.139849
-0.133826
-0.128582
-0.124086
-0.120295
-0.117158
-0.11462
-0.112622
-0.111106
-0.110016
-0.109298
-0.108903
-0.108784
-0.108899
-0.109212
-0.109689
-0.1103
-0.111019
-0.111825
-0.112698
-0.113624
-0.114589
-0.11558
-0.116601
-0.117638
-0.118685
-0.119741
-0.120807
-0.121889
-0.122995
-0.124117
-0.125239
-0.126383
-0.127551
-0.128739
-0.129951
-0.131186
-0.132446
-0.13373
-0.135037
-0.136367
-0.137716
-0.139083
-0.140463
-0.141852
-0.143244
-0.144631
-0.146004
-0.147353
-0.148665
-0.149925
-0.151111
-0.152205
-0.153173
-0.153995
-0.154606
-0.155032
-0.155067
-0.155056
-0.154121
-0.154239
-0.151873
-0.153925
-0.152254
0.00615288
-0.0107872
-0.0115241
-0.0409615
-0.0640823
-0.0948283
-0.12309
-0.15034
-0.175437
-0.198057
-0.218113
-0.235551
-0.250374
-0.262619
-0.27234
-0.279607
-0.284506
-0.287141
-0.28763
-0.286109
-0.282741
-0.2777
-0.27118
-0.263389
-0.254546
-0.244875
-0.234602
-0.223951
-0.213137
-0.20236
-0.191802
-0.181623
-0.171957
-0.162912
-0.154569
-0.146979
-0.140171
-0.13415
-0.1289
-0.124393
-0.120587
-0.11743
-0.114869
-0.112846
-0.111303
-0.110185
-0.10944
-0.109017
-0.108872
-0.108963
-0.109253
-0.109709
-0.110302
-0.111005
-0.111796
-0.112657
-0.113571
-0.114526
-0.115514
-0.116524
-0.117552
-0.118597
-0.119656
-0.120728
-0.121811
-0.1229
-0.124002
-0.125139
-0.126286
-0.127446
-0.128634
-0.129845
-0.131078
-0.132335
-0.133616
-0.13492
-0.136246
-0.137591
-0.138954
-0.14033
-0.141714
-0.143102
-0.144484
-0.145853
-0.147198
-0.148505
-0.14976
-0.150941
-0.152029
-0.152989
-0.153802
-0.154396
-0.1548
-0.154796
-0.154725
-0.153717
-0.153602
-0.151204
-0.152474
-0.150605
0.00573247
-0.00856678
-0.0088854
-0.0376248
-0.0609328
-0.09192
-0.120532
-0.148092
-0.173455
-0.196295
-0.216533
-0.234124
-0.249079
-0.261438
-0.271263
-0.278626
-0.283617
-0.28634
-0.286915
-0.28548
-0.282197
-0.277242
-0.270808
-0.2631
-0.254338
-0.244745
-0.234547
-0.223965
-0.213214
-0.202494
-0.191985
-0.181847
-0.172215
-0.163196
-0.15487
-0.14729
-0.140485
-0.134461
-0.129202
-0.124682
-0.120857
-0.11768
-0.115095
-0.113046
-0.111478
-0.110334
-0.109563
-0.109115
-0.108947
-0.109014
-0.109284
-0.109721
-0.110297
-0.110986
-0.111765
-0.112617
-0.113526
-0.114478
-0.115459
-0.116465
-0.117491
-0.118533
-0.119587
-0.120653
-0.121733
-0.12283
-0.123942
-0.125063
-0.126207
-0.127377
-0.128556
-0.12976
-0.130987
-0.132239
-0.133515
-0.134813
-0.136134
-0.137474
-0.138832
-0.140202
-0.141582
-0.142964
-0.144342
-0.145707
-0.147047
-0.148351
-0.149602
-0.15078
-0.151864
-0.15282
-0.153628
-0.154212
-0.154605
-0.154576
-0.154461
-0.153403
-0.153097
-0.150667
-0.151327
-0.149108
0.00577944
-0.00672305
-0.00667741
-0.034941
-0.0583956
-0.0895784
-0.118472
-0.14628
-0.171855
-0.194871
-0.215255
-0.232968
-0.248029
-0.260484
-0.270395
-0.27784
-0.28291
-0.285714
-0.286365
-0.285006
-0.281801
-0.276923
-0.270564
-0.262931
-0.25424
-0.244715
-0.234581
-0.224058
-0.213359
-0.202684
-0.192213
-0.182107
-0.172498
-0.163494
-0.155177
-0.1476
-0.140792
-0.134758
-0.129486
-0.124948
-0.121104
-0.117904
-0.115295
-0.113222
-0.111629
-0.11046
-0.109665
-0.109195
-0.109005
-0.109053
-0.109303
-0.109723
-0.110283
-0.110958
-0.111724
-0.112564
-0.113459
-0.114397
-0.115376
-0.116379
-0.117401
-0.118439
-0.119492
-0.120557
-0.121634
-0.122722
-0.123825
-0.124948
-0.126085
-0.127239
-0.128424
-0.129628
-0.130855
-0.132106
-0.133379
-0.134676
-0.135994
-0.137331
-0.138686
-0.140054
-0.141431
-0.142811
-0.144187
-0.14555
-0.14689
-0.148194
-0.149445
-0.150624
-0.151711
-0.152668
-0.15348
-0.154064
-0.154457
-0.154418
-0.154283
-0.153198
-0.152758
-0.150298
-0.1505
-0.147843
0.0068294
-0.00537396
-0.00505795
-0.0330319
-0.0565766
-0.0878864
-0.116973
-0.144951
-0.170675
-0.193816
-0.214306
-0.232111
-0.247254
-0.259783
-0.269765
-0.277278
-0.282416
-0.285281
-0.285994
-0.284702
-0.281563
-0.276749
-0.270454
-0.262882
-0.25425
-0.244781
-0.234697
-0.224219
-0.21356
-0.202919
-0.192475
-0.182389
-0.172794
-0.163798
-0.155482
-0.147901
-0.141083
-0.135037
-0.129748
-0.125191
-0.121325
-0.118103
-0.115471
-0.113374
-0.111757
-0.110565
-0.109748
-0.109256
-0.109046
-0.109075
-0.10931
-0.109717
-0.110266
-0.110932
-0.111693
-0.112528
-0.113423
-0.114366
-0.115336
-0.116333
-0.117352
-0.118388
-0.119438
-0.120501
-0.121577
-0.122668
-0.123774
-0.124894
-0.126034
-0.127195
-0.128372
-0.129571
-0.130792
-0.132037
-0.133305
-0.134596
-0.135909
-0.137241
-0.138591
-0.139954
-0.141327
-0.142702
-0.144075
-0.145434
-0.146771
-0.148072
-0.149323
-0.150502
-0.15159
-0.15255
-0.153367
-0.153956
-0.154357
-0.154325
-0.154208
-0.153126
-0.152628
-0.15014
-0.150053
-0.146898
0.00786576
-0.00465557
-0.0041912
-0.0320157
-0.0555817
-0.0869232
-0.116085
-0.144127
-0.169914
-0.193109
-0.21365
-0.231506
-0.246699
-0.25928
-0.269317
-0.276887
-0.282086
-0.285027
-0.285807
-0.28458
-0.281511
-0.276768
-0.270541
-0.263035
-0.254464
-0.24505
-0.235014
-0.224577
-0.21395
-0.203332
-0.192903
-0.182821
-0.173223
-0.164217
-0.155885
-0.148281
-0.141436
-0.13536
-0.13004
-0.125449
-0.12155
-0.118295
-0.115632
-0.113505
-0.11186
-0.110643
-0.109802
-0.10929
-0.109062
-0.109077
-0.109294
-0.109684
-0.110218
-0.110869
-0.111616
-0.112439
-0.113321
-0.114249
-0.115219
-0.116214
-0.117229
-0.118261
-0.119307
-0.120367
-0.121438
-0.122523
-0.123622
-0.124738
-0.12587
-0.127021
-0.128193
-0.129389
-0.130607
-0.131849
-0.133113
-0.134401
-0.13571
-0.137039
-0.138385
-0.139746
-0.141116
-0.14249
-0.143862
-0.145222
-0.146561
-0.147867
-0.149124
-0.150312
-0.151412
-0.152388
-0.153225
-0.153838
-0.15427
-0.154255
-0.154157
-0.153081
-0.152573
-0.150028
-0.149754
-0.14604
-0.0042528
0.00145233
0.00353179
0.00589817
0.00685979
0.00697047
0.00588406
0.00355923
-0.000245547
-0.00574464
-0.0133659
-0.0234709
-0.0368883
-0.0542286
-0.0774178
-0.107819
-0.151334
-0.208571
-0.294023
-0.396377
-0.00997089
-0.00449587
-0.00256249
-0.000435058
0.000308759
0.000187892
-0.00112884
-0.0036897
-0.00772831
-0.0134608
-0.02129
-0.0316481
-0.0452632
-0.0629401
-0.0866703
-0.118324
-0.164101
-0.223145
-0.288861
-0.337228
-0.0154461
-0.0101508
-0.00837087
-0.00647855
-0.00600012
-0.00641997
-0.00808296
-0.0110434
-0.0155484
-0.0218342
-0.0303154
-0.0414744
-0.056104
-0.0751659
-0.100706
-0.134218
-0.18006
-0.234279
-0.278148
-0.329249
-0.0207307
-0.0156256
-0.0140073
-0.0123441
-0.0121312
-0.0128576
-0.0148813
-0.0182612
-0.0232562
-0.0301201
-0.0392775
-0.0512422
-0.0668443
-0.0870697
-0.113813
-0.148052
-0.191497
-0.23946
-0.269096
-0.311462
-0.0258543
-0.020963
-0.0195165
-0.018077
-0.018113
-0.0191226
-0.0214705
-0.0252169
-0.0306253
-0.0379558
-0.0476294
-0.0601689
-0.0763865
-0.0971788
-0.124141
-0.157898
-0.197412
-0.236634
-0.26021
-0.290356
-0.0308163
-0.0261556
-0.0248879
-0.0236682
-0.0239387
-0.0252082
-0.0278435
-0.0319046
-0.0376548
-0.045354
-0.0554126
-0.0683483
-0.0849317
-0.105896
-0.132367
-0.164715
-0.199839
-0.228493
-0.250948
-0.266028
-0.0356068
-0.0311892
-0.0301029
-0.0290991
-0.0295938
-0.0311059
-0.0340027
-0.0383424
-0.0443848
-0.0523823
-0.0627227
-0.075889
-0.0925789
-0.113335
-0.138717
-0.168845
-0.19999
-0.218776
-0.241046
-0.244429
-0.0402184
-0.0360589
-0.0351525
-0.034361
-0.03507
-0.0368105
-0.0399474
-0.0445362
-0.05083
-0.0590708
-0.0696229
-0.0829311
-0.0996159
-0.120023
-0.144028
-0.171184
-0.198077
-0.210182
-0.230248
-0.225879
-0.0446445
-0.0407723
-0.040035
-0.0394545
-0.0403643
-0.0423187
-0.045673
-0.0504813
-0.056984
-0.0654035
-0.0760573
-0.0892979
-0.105578
-0.125011
-0.146923
-0.170502
-0.193489
-0.203352
-0.218827
-0.210544
-0.0488765
-0.0453402
-0.0447459
-0.0443832
-0.0454802
-0.0476396
-0.0511947
-0.0562013
-0.0628822
-0.0714407
-0.0821633
-0.095364
-0.111425
-0.130348
-0.15097
-0.171866
-0.191561
-0.201652
-0.21415
-0.196663
0.0619535
0.0708741
0.0752173
0.0805498
0.0848067
0.0886552
0.0918195
0.0942488
0.0957721
0.0962346
0.0953758
0.093008
0.0886315
0.0820836
0.0721382
0.0590009
0.0401023
0.0191009
-0.0084277
-0.0213599
0.0538924
0.0626966
0.066372
0.0712265
0.0747136
0.0776679
0.0797423
0.0808857
0.0808885
0.0795632
0.0765864
0.0717404
0.064479
0.0546676
0.0409233
0.0237492
0.000163542
-0.0241989
-0.0543997
-0.0506078
0.0465082
0.0550372
0.0583455
0.0628473
0.0658756
0.0683332
0.0698287
0.0703387
0.0696474
0.0675832
0.06382
0.0581545
0.0499226
0.0390407
0.0238694
0.00529669
-0.0205726
-0.0461236
-0.0803953
-0.0726318
0.0397831
0.0479435
0.0510843
0.0553107
0.0580338
0.06017
0.0612862
0.0613789
0.0602148
0.0576199
0.053232
0.0468342
0.0376239
0.0255592
0.00867177
-0.0117345
-0.0406594
-0.0682459
-0.107093
-0.0979703
0.0332918
0.0410743
0.044073
0.0480301
0.0504588
0.052269
0.0529899
0.0526251
0.050914
0.0476671
0.0424704
0.035097
0.0246259
0.0110708
-0.00788205
-0.0304816
-0.0628335
-0.0927057
-0.134871
-0.123826
0.0268231
0.0342424
0.0370714
0.0407429
0.0428616
0.044318
0.0446153
0.0437608
0.0414706
0.0375448
0.0315278
0.023202
0.0115489
-0.00335347
-0.0241421
-0.048624
-0.0839334
-0.115761
-0.160723
-0.148755
0.0203807
0.027449
0.0300967
0.0334795
0.0352967
0.0364068
0.0363051
0.035001
0.0321977
0.0276934
0.0210051
0.0119322
-0.000624509
-0.0165626
-0.038801
-0.0649536
-0.10305
-0.137851
-0.18606
-0.173695
0.014026
0.0207503
0.0232272
0.0263343
0.02788
0.0286774
0.0282322
0.0265519
0.0233367
0.0183835
0.0111892
0.00156514
-0.0116488
-0.0283996
-0.0517048
-0.0792221
-0.119129
-0.156259
-0.207647
-0.198526
0.0077988
0.0141822
0.0165072
0.0193545
0.0206634
0.0211852
0.0204529
0.0184657
0.0149299
0.00963853
0.00208294
-0.0079236
-0.0215413
-0.0389046
-0.0628865
-0.0920895
-0.134108
-0.177507
-0.233215
-0.233957
0.00170363
0.00774765
0.00994474
0.0125483
0.0136611
0.0139475
0.0129903
0.010771
0.00701365
0.00150298
-0.00626152
-0.0164805
-0.0303344
-0.0481429
-0.0721494
-0.101786
-0.142538
-0.185377
-0.239945
-0.227537
0.310684
0.309911
0.311218
0.310182
0.312224
0.31094
0.314276
0.31271
0.318307
0.316533
0.326266
0.324558
0.342268
0.341316
0.375669
0.377082
0.450158
0.459726
0.624368
0.685665
0.310682
0.309912
0.311215
0.310191
0.312222
0.310961
0.314283
0.312764
0.318341
0.316666
0.326376
0.324877
0.342569
0.342089
0.376441
0.379003
0.452174
0.464125
0.629949
0.678436
0.310679
0.30991
0.311209
0.310192
0.312215
0.310968
0.314277
0.312786
0.318342
0.316725
0.326398
0.325023
0.342647
0.342443
0.37664
0.379824
0.452572
0.465251
0.630239
0.665977
0.310675
0.309905
0.311201
0.310194
0.312203
0.310976
0.314262
0.312808
0.318329
0.316785
0.326402
0.325177
0.342701
0.34282
0.376795
0.380656
0.452765
0.465803
0.629324
0.647044
0.310671
0.309899
0.31119
0.310193
0.312187
0.310978
0.314239
0.312819
0.318298
0.316821
0.326365
0.325277
0.34266
0.343061
0.376705
0.381094
0.45219
0.464884
0.625672
0.621919
0.310665
0.30989
0.311176
0.31019
0.312165
0.310976
0.314207
0.312822
0.31825
0.31684
0.326293
0.325337
0.342544
0.343204
0.376429
0.381238
0.451002
0.462769
0.619576
0.590628
0.310659
0.309878
0.31116
0.310185
0.312139
0.310969
0.314165
0.312816
0.318183
0.316839
0.326185
0.325353
0.342348
0.343237
0.375949
0.381055
0.449149
0.459448
0.610835
0.552943
0.310652
0.309864
0.311142
0.31018
0.31211
0.310959
0.314115
0.312801
0.318099
0.316818
0.326038
0.325322
0.342068
0.343155
0.375263
0.38054
0.446631
0.454983
0.599181
0.508443
0.310644
0.309846
0.311123
0.310169
0.312077
0.310943
0.31406
0.312774
0.318003
0.316773
0.325863
0.32524
0.341715
0.342948
0.374372
0.379664
0.443447
0.449384
0.58451
0.456731
0.310635
0.309829
0.311095
0.310157
0.312031
0.310924
0.313984
0.312746
0.317875
0.316729
0.325648
0.325159
0.34131
0.342741
0.373404
0.378747
0.439927
0.443396
0.567625
0.396664
0.310635
0.309829
0.311095
0.310157
0.312031
0.310924
0.313984
0.312746
0.317875
0.316729
0.325648
0.325159
0.34131
0.342741
0.373404
0.378747
0.439927
0.443396
0.567625
0.396664
0.310644
0.309846
0.311123
0.310169
0.312077
0.310943
0.31406
0.312774
0.318003
0.316773
0.325863
0.32524
0.341715
0.342948
0.374372
0.379664
0.443447
0.449384
0.58451
0.456731
0.310652
0.309864
0.311142
0.31018
0.31211
0.310959
0.314115
0.312801
0.318099
0.316818
0.326038
0.325322
0.342068
0.343155
0.375263
0.38054
0.446631
0.454983
0.599181
0.508443
0.310659
0.309878
0.31116
0.310185
0.312139
0.310969
0.314165
0.312816
0.318183
0.316839
0.326185
0.325353
0.342348
0.343237
0.375949
0.381055
0.449149
0.459448
0.610835
0.552943
0.310665
0.30989
0.311176
0.31019
0.312165
0.310976
0.314207
0.312822
0.31825
0.31684
0.326293
0.325337
0.342544
0.343204
0.376429
0.381238
0.451002
0.462769
0.619576
0.590628
0.310671
0.309899
0.31119
0.310193
0.312187
0.310978
0.314239
0.312819
0.318298
0.316821
0.326365
0.325277
0.34266
0.343061
0.376705
0.381094
0.45219
0.464884
0.625672
0.621919
0.310675
0.309905
0.311201
0.310194
0.312203
0.310976
0.314262
0.312808
0.318329
0.316785
0.326402
0.325177
0.342701
0.34282
0.376795
0.380656
0.452765
0.465803
0.629324
0.647044
0.310679
0.30991
0.311209
0.310192
0.312215
0.310968
0.314277
0.312786
0.318342
0.316725
0.326398
0.325023
0.342647
0.342443
0.37664
0.379824
0.452572
0.465251
0.630239
0.665977
0.310682
0.309912
0.311215
0.310191
0.312222
0.310961
0.314283
0.312764
0.318341
0.316666
0.326376
0.324877
0.342569
0.342089
0.376441
0.379003
0.452174
0.464125
0.629949
0.678436
0.310684
0.309911
0.311218
0.310182
0.312224
0.31094
0.314276
0.31271
0.318307
0.316533
0.326266
0.324558
0.342268
0.341316
0.375669
0.377082
0.450158
0.459726
0.624368
0.685665
0.00170363
0.00774765
0.00994474
0.0125483
0.0136611
0.0139475
0.0129902
0.010771
0.00701365
0.00150298
-0.00626152
-0.0164805
-0.0303344
-0.0481429
-0.0721494
-0.101786
-0.142538
-0.185377
-0.239945
-0.227537
0.0077988
0.0141822
0.0165072
0.0193545
0.0206634
0.0211852
0.0204529
0.0184657
0.0149299
0.00963853
0.00208294
-0.0079236
-0.0215413
-0.0389046
-0.0628865
-0.0920895
-0.134108
-0.177507
-0.233215
-0.233957
0.014026
0.0207503
0.0232272
0.0263343
0.02788
0.0286774
0.0282322
0.0265519
0.0233367
0.0183835
0.0111892
0.00156514
-0.0116488
-0.0283996
-0.0517048
-0.0792221
-0.119129
-0.156259
-0.207647
-0.198526
0.0203807
0.027449
0.0300967
0.0334795
0.0352967
0.0364068
0.0363051
0.035001
0.0321977
0.0276934
0.0210051
0.0119322
-0.000624509
-0.0165626
-0.038801
-0.0649536
-0.10305
-0.137851
-0.18606
-0.173695
0.0268231
0.0342424
0.0370714
0.0407429
0.0428616
0.044318
0.0446153
0.0437608
0.0414706
0.0375448
0.0315278
0.023202
0.0115489
-0.00335347
-0.0241421
-0.048624
-0.0839334
-0.115761
-0.160723
-0.148755
0.0332918
0.0410743
0.044073
0.0480301
0.0504588
0.052269
0.0529899
0.0526251
0.050914
0.0476671
0.0424704
0.035097
0.0246259
0.0110708
-0.00788205
-0.0304816
-0.0628335
-0.0927057
-0.134871
-0.123826
0.0397831
0.0479435
0.0510843
0.0553107
0.0580338
0.06017
0.0612862
0.0613789
0.0602148
0.0576199
0.053232
0.0468342
0.0376239
0.0255592
0.00867177
-0.0117345
-0.0406594
-0.0682459
-0.107093
-0.0979703
0.0465082
0.0550372
0.0583455
0.0628473
0.0658756
0.0683332
0.0698287
0.0703387
0.0696474
0.0675832
0.06382
0.0581545
0.0499226
0.0390407
0.0238694
0.00529669
-0.0205726
-0.0461236
-0.0803953
-0.0726318
0.0538924
0.0626966
0.066372
0.0712265
0.0747136
0.0776679
0.0797423
0.0808857
0.0808885
0.0795632
0.0765864
0.0717404
0.064479
0.0546676
0.0409233
0.0237492
0.000163542
-0.0241989
-0.0543997
-0.0506078
0.0619535
0.0708741
0.0752173
0.0805498
0.0848067
0.0886552
0.0918195
0.0942488
0.0957721
0.0962346
0.0953758
0.093008
0.0886315
0.0820836
0.0721382
0.0590009
0.0401023
0.0191009
-0.0084277
-0.0213599
-0.0488765
-0.0453402
-0.0447459
-0.0443832
-0.0454802
-0.0476396
-0.0511947
-0.0562013
-0.0628822
-0.0714407
-0.0821633
-0.095364
-0.111425
-0.130348
-0.15097
-0.171866
-0.191561
-0.201652
-0.21415
-0.196663
-0.0446445
-0.0407723
-0.040035
-0.0394545
-0.0403643
-0.0423187
-0.045673
-0.0504813
-0.056984
-0.0654035
-0.0760573
-0.0892979
-0.105578
-0.125011
-0.146923
-0.170502
-0.193489
-0.203352
-0.218827
-0.210544
-0.0402184
-0.0360589
-0.0351525
-0.034361
-0.03507
-0.0368105
-0.0399474
-0.0445362
-0.05083
-0.0590708
-0.0696229
-0.0829311
-0.0996159
-0.120023
-0.144028
-0.171184
-0.198077
-0.210182
-0.230248
-0.225879
-0.0356068
-0.0311892
-0.0301029
-0.0290992
-0.0295938
-0.0311059
-0.0340027
-0.0383424
-0.0443848
-0.0523823
-0.0627227
-0.075889
-0.0925789
-0.113335
-0.138717
-0.168845
-0.19999
-0.218776
-0.241046
-0.244429
-0.0308163
-0.0261556
-0.0248879
-0.0236682
-0.0239387
-0.0252082
-0.0278435
-0.0319046
-0.0376548
-0.045354
-0.0554126
-0.0683483
-0.0849317
-0.105896
-0.132367
-0.164715
-0.199839
-0.228493
-0.250948
-0.266028
-0.0258543
-0.020963
-0.0195165
-0.018077
-0.018113
-0.0191226
-0.0214705
-0.0252169
-0.0306253
-0.0379558
-0.0476294
-0.0601689
-0.0763865
-0.0971788
-0.124141
-0.157898
-0.197412
-0.236634
-0.26021
-0.290356
-0.0207307
-0.0156256
-0.0140073
-0.0123441
-0.0121312
-0.0128576
-0.0148813
-0.0182612
-0.0232562
-0.0301201
-0.0392775
-0.0512422
-0.0668443
-0.0870697
-0.113813
-0.148052
-0.191497
-0.23946
-0.269096
-0.311462
-0.0154461
-0.0101508
-0.00837087
-0.00647855
-0.00600012
-0.00641997
-0.00808296
-0.0110434
-0.0155484
-0.0218342
-0.0303154
-0.0414744
-0.056104
-0.0751659
-0.100706
-0.134218
-0.18006
-0.234279
-0.278148
-0.329249
-0.00997089
-0.00449587
-0.00256249
-0.00043506
0.000308757
0.00018789
-0.00112884
-0.0036897
-0.00772831
-0.0134608
-0.02129
-0.0316481
-0.0452632
-0.0629401
-0.0866703
-0.118324
-0.164101
-0.223145
-0.288861
-0.337228
-0.0042528
0.00145233
0.00353179
0.00589817
0.00685979
0.00697047
0.00588406
0.00355923
-0.000245549
-0.00574464
-0.0133659
-0.0234709
-0.0368883
-0.0542286
-0.0774178
-0.107819
-0.151334
-0.208571
-0.294023
-0.396377
0.00786576
-0.00465557
-0.0041912
-0.0320157
-0.0555817
-0.0869232
-0.116085
-0.144127
-0.169914
-0.193109
-0.21365
-0.231506
-0.246699
-0.25928
-0.269317
-0.276887
-0.282086
-0.285027
-0.285807
-0.28458
-0.281511
-0.276768
-0.270541
-0.263035
-0.254464
-0.24505
-0.235014
-0.224577
-0.21395
-0.203332
-0.192903
-0.182821
-0.173223
-0.164217
-0.155885
-0.148281
-0.141436
-0.13536
-0.13004
-0.125449
-0.12155
-0.118295
-0.115632
-0.113505
-0.11186
-0.110643
-0.109802
-0.10929
-0.109062
-0.109077
-0.109294
-0.109684
-0.110218
-0.110869
-0.111616
-0.112439
-0.113321
-0.114249
-0.115219
-0.116214
-0.117229
-0.118261
-0.119307
-0.120367
-0.121438
-0.122523
-0.123622
-0.124738
-0.12587
-0.127021
-0.128193
-0.129389
-0.130607
-0.131849
-0.133113
-0.134401
-0.13571
-0.137039
-0.138385
-0.139746
-0.141116
-0.14249
-0.143862
-0.145222
-0.146561
-0.147867
-0.149124
-0.150312
-0.151412
-0.152388
-0.153225
-0.153838
-0.15427
-0.154255
-0.154157
-0.153081
-0.152573
-0.150028
-0.149754
-0.14604
0.0068294
-0.00537396
-0.00505795
-0.0330319
-0.0565766
-0.0878864
-0.116973
-0.144951
-0.170675
-0.193816
-0.214306
-0.232111
-0.247254
-0.259783
-0.269765
-0.277278
-0.282416
-0.285281
-0.285994
-0.284702
-0.281563
-0.276749
-0.270454
-0.262882
-0.25425
-0.24478
-0.234697
-0.224219
-0.21356
-0.202919
-0.192475
-0.182389
-0.172794
-0.163798
-0.155482
-0.147901
-0.141083
-0.135037
-0.129748
-0.125191
-0.121325
-0.118103
-0.115471
-0.113374
-0.111757
-0.110565
-0.109748
-0.109256
-0.109046
-0.109075
-0.10931
-0.109717
-0.110266
-0.110932
-0.111693
-0.112528
-0.113423
-0.114366
-0.115336
-0.116333
-0.117352
-0.118388
-0.119438
-0.120501
-0.121577
-0.122668
-0.123774
-0.124894
-0.126034
-0.127195
-0.128372
-0.129571
-0.130792
-0.132037
-0.133305
-0.134596
-0.135909
-0.137241
-0.138591
-0.139954
-0.141327
-0.142702
-0.144075
-0.145434
-0.146771
-0.148072
-0.149323
-0.150502
-0.15159
-0.15255
-0.153367
-0.153956
-0.154357
-0.154325
-0.154208
-0.153126
-0.152628
-0.15014
-0.150053
-0.146898
0.00577944
-0.00672305
-0.00667741
-0.034941
-0.0583956
-0.0895784
-0.118472
-0.14628
-0.171855
-0.194871
-0.215255
-0.232968
-0.248029
-0.260484
-0.270395
-0.27784
-0.28291
-0.285714
-0.286365
-0.285006
-0.281801
-0.276923
-0.270564
-0.262931
-0.25424
-0.244715
-0.234581
-0.224058
-0.213359
-0.202684
-0.192213
-0.182107
-0.172498
-0.163494
-0.155177
-0.1476
-0.140792
-0.134758
-0.129486
-0.124948
-0.121104
-0.117904
-0.115295
-0.113222
-0.111629
-0.11046
-0.109665
-0.109195
-0.109005
-0.109053
-0.109303
-0.109723
-0.110283
-0.110958
-0.111724
-0.112564
-0.113459
-0.114397
-0.115376
-0.116379
-0.117401
-0.118439
-0.119492
-0.120557
-0.121634
-0.122722
-0.123825
-0.124948
-0.126085
-0.127239
-0.128424
-0.129628
-0.130855
-0.132106
-0.133379
-0.134676
-0.135994
-0.137331
-0.138686
-0.140054
-0.141431
-0.142811
-0.144187
-0.14555
-0.14689
-0.148194
-0.149445
-0.150624
-0.151711
-0.152668
-0.15348
-0.154064
-0.154457
-0.154418
-0.154283
-0.153198
-0.152758
-0.150298
-0.1505
-0.147843
0.00573248
-0.00856678
-0.0088854
-0.0376248
-0.0609328
-0.09192
-0.120532
-0.148092
-0.173455
-0.196295
-0.216533
-0.234124
-0.249079
-0.261438
-0.271263
-0.278626
-0.283617
-0.28634
-0.286915
-0.28548
-0.282197
-0.277242
-0.270808
-0.2631
-0.254338
-0.244745
-0.234547
-0.223965
-0.213214
-0.202494
-0.191985
-0.181847
-0.172215
-0.163196
-0.15487
-0.14729
-0.140485
-0.134461
-0.129202
-0.124682
-0.120857
-0.11768
-0.115095
-0.113046
-0.111478
-0.110334
-0.109563
-0.109115
-0.108947
-0.109015
-0.109284
-0.109721
-0.110297
-0.110986
-0.111765
-0.112617
-0.113526
-0.114478
-0.115459
-0.116465
-0.117491
-0.118533
-0.119587
-0.120653
-0.121733
-0.12283
-0.123942
-0.125063
-0.126207
-0.127377
-0.128556
-0.12976
-0.130987
-0.132239
-0.133515
-0.134813
-0.136134
-0.137474
-0.138832
-0.140202
-0.141582
-0.142964
-0.144342
-0.145707
-0.147047
-0.148351
-0.149602
-0.15078
-0.151864
-0.15282
-0.153628
-0.154212
-0.154605
-0.154576
-0.154461
-0.153403
-0.153097
-0.150667
-0.151327
-0.149108
0.00615288
-0.0107872
-0.0115241
-0.0409615
-0.0640823
-0.0948283
-0.12309
-0.15034
-0.175437
-0.198057
-0.218113
-0.235551
-0.250374
-0.262619
-0.27234
-0.279607
-0.284506
-0.287141
-0.28763
-0.286109
-0.282741
-0.2777
-0.27118
-0.263389
-0.254546
-0.244875
-0.234602
-0.223951
-0.213137
-0.20236
-0.191802
-0.181623
-0.171957
-0.162912
-0.154569
-0.146979
-0.140171
-0.13415
-0.1289
-0.124393
-0.120587
-0.11743
-0.114869
-0.112846
-0.111303
-0.110185
-0.10944
-0.109017
-0.108872
-0.108963
-0.109253
-0.109709
-0.110302
-0.111005
-0.111796
-0.112657
-0.113571
-0.114526
-0.115514
-0.116524
-0.117552
-0.118597
-0.119656
-0.120728
-0.121811
-0.1229
-0.124002
-0.125139
-0.126286
-0.127446
-0.128634
-0.129845
-0.131078
-0.132335
-0.133616
-0.13492
-0.136246
-0.137591
-0.138954
-0.14033
-0.141714
-0.143102
-0.144484
-0.145853
-0.147198
-0.148505
-0.14976
-0.150941
-0.152029
-0.152989
-0.153802
-0.154396
-0.1548
-0.154796
-0.154725
-0.153717
-0.153602
-0.151204
-0.152474
-0.150605
0.00714656
-0.0132689
-0.0144487
-0.0448123
-0.0677191
-0.0981995
-0.126064
-0.152958
-0.17775
-0.200115
-0.219959
-0.237219
-0.251891
-0.264004
-0.273607
-0.280765
-0.285563
-0.2881
-0.288496
-0.286881
-0.283418
-0.278284
-0.271671
-0.263788
-0.254854
-0.245095
-0.234739
-0.224009
-0.213122
-0.202278
-0.19166
-0.18143
-0.171721
-0.162642
-0.154273
-0.146667
-0.139849
-0.133826
-0.128582
-0.124086
-0.120295
-0.117158
-0.11462
-0.112622
-0.111106
-0.110016
-0.109298
-0.108903
-0.108784
-0.108899
-0.109212
-0.109689
-0.1103
-0.111019
-0.111825
-0.112698
-0.113624
-0.114589
-0.115581
-0.116601
-0.117638
-0.118685
-0.119741
-0.120807
-0.121889
-0.122995
-0.124117
-0.125238
-0.126383
-0.127551
-0.128739
-0.129951
-0.131186
-0.132446
-0.13373
-0.135037
-0.136367
-0.137716
-0.139083
-0.140463
-0.141852
-0.143244
-0.144631
-0.146004
-0.147353
-0.148665
-0.149925
-0.151111
-0.152205
-0.153173
-0.153995
-0.154606
-0.155032
-0.155067
-0.155056
-0.154121
-0.154239
-0.151873
-0.153925
-0.152254
0.00873541
-0.0159285
-0.0175348
-0.049037
-0.0717135
-0.101925
-0.129368
-0.155879
-0.180338
-0.202423
-0.222033
-0.239096
-0.253601
-0.265568
-0.275041
-0.282082
-0.286769
-0.2892
-0.289495
-0.287779
-0.284215
-0.27898
-0.272266
-0.264283
-0.255251
-0.245396
-0.234947
-0.224129
-0.213159
-0.202239
-0.191554
-0.181263
-0.171504
-0.162383
-0.153981
-0.146351
-0.13952
-0.13349
-0.128247
-0.123759
-0.119983
-0.116865
-0.11435
-0.112378
-0.11089
-0.109828
-0.10914
-0.108773
-0.108682
-0.108824
-0.109161
-0.109661
-0.110292
-0.111028
-0.111849
-0.112734
-0.113669
-0.114641
-0.115643
-0.116656
-0.117684
-0.118741
-0.119809
-0.12089
-0.12198
-0.123074
-0.124182
-0.125315
-0.126465
-0.127635
-0.128827
-0.130043
-0.131282
-0.132546
-0.133835
-0.135147
-0.136481
-0.137835
-0.139207
-0.140593
-0.141987
-0.143384
-0.144776
-0.146155
-0.14751
-0.148828
-0.150093
-0.151287
-0.152389
-0.153368
-0.154204
-0.154837
-0.155291
-0.155377
-0.155436
-0.154594
-0.154974
-0.152641
-0.155673
-0.154002
0.0109815
-0.0187308
-0.0206941
-0.0535127
-0.0759479
-0.105907
-0.132922
-0.159037
-0.183151
-0.204941
-0.2243
-0.241151
-0.255475
-0.267284
-0.276618
-0.283532
-0.288102
-0.290421
-0.290607
-0.288784
-0.285113
-0.279771
-0.272951
-0.264862
-0.255724
-0.245766
-0.235217
-0.224303
-0.213242
-0.202239
-0.191477
-0.181119
-0.171301
-0.162132
-0.153692
-0.146033
-0.139182
-0.133143
-0.127898
-0.123416
-0.119652
-0.116553
-0.114061
-0.112115
-0.110656
-0.109625
-0.108968
-0.108632
-0.10857
-0.10874
-0.109104
-0.109626
-0.110278
-0.111034