/*--------------------------------*- C++ -*----------------------------------*\
  =========                 |
  \\      /  F ield         | OpenFOAM: The Open Source CFD Toolbox
   \\    /   O peration     | Website:  https://openfoam.org
    \\  /    A nd           | Version:  7
     \\/     M anipulation  |
\*---------------------------------------------------------------------------*/
FoamFile
{
    version     2.0;
    format      ascii;
    class       volScalarField;
    location    "82";
    object      p;
}
// * * * * * * * * * * * * * * * * * * * * * * * * * * * * * * * * * * * * * //

dimensions      [0 2 -2 0 0 0 0];

internalField   nonuniform List<scalar> 
8000
(
-0.000623729
-0.00212458
-0.00361498
-0.00522775
-0.00686571
-0.00849429
-0.0100879
-0.011624
-0.0130866
-0.0144641
-0.0157462
-0.0169337
-0.0180194
-0.0190044
-0.0198893
-0.0206768
-0.0213702
-0.0219739
-0.0224929
-0.0229328
-0.0232997
-0.0235999
-0.0238402
-0.0240274
-0.0241687
-0.024271
-0.0243417
-0.0243877
-0.024416
-0.0244331
-0.0244454
-0.0244588
-0.0244788
-0.0245103
-0.0245579
-0.0246256
-0.0247168
-0.0248347
-0.0249819
-0.0251604
-0.025372
-0.0256182
-0.0259001
-0.0262183
-0.0265735
-0.0269661
-0.027396
-0.0278633
-0.0283678
-0.0289093
-0.0294874
-0.0301017
-0.0307517
-0.031437
-0.0321571
-0.0329115
-0.0336998
-0.0345215
-0.0353762
-0.0362636
-0.0371833
-0.038135
-0.0391185
-0.0401335
-0.0411796
-0.0422567
-0.0433647
-0.0445032
-0.0456719
-0.0468703
-0.0480981
-0.0493545
-0.0506388
-0.0519497
-0.053286
-0.0546459
-0.0560271
-0.057427
-0.0588423
-0.060269
-0.061702
-0.0631354
-0.0645621
-0.0659732
-0.0673586
-0.0687058
-0.0700002
-0.0712246
-0.072359
-0.0733785
-0.0742625
-0.0749701
-0.0755119
-0.0757635
-0.0760232
-0.0755225
-0.0767252
-0.074654
-0.0821763
-0.0785604
-0.000654802
-0.00214402
-0.00363392
-0.00523032
-0.0068496
-0.00846154
-0.0100407
-0.011565
-0.0130181
-0.0143883
-0.0156664
-0.0168517
-0.0179366
-0.0189218
-0.019808
-0.0205974
-0.0212935
-0.0219004
-0.0224231
-0.0228671
-0.0232383
-0.0235431
-0.0237881
-0.0239802
-0.0241265
-0.0242339
-0.0243095
-0.0243604
-0.0243935
-0.0244151
-0.0244317
-0.024449
-0.0244725
-0.0245072
-0.0245575
-0.0246275
-0.0247206
-0.0248398
-0.0249878
-0.0251667
-0.0253783
-0.025624
-0.0259049
-0.0262217
-0.0265752
-0.0269656
-0.027393
-0.0278575
-0.028359
-0.0288971
-0.0294716
-0.0300821
-0.0307281
-0.0314093
-0.0321251
-0.0328752
-0.033659
-0.0344762
-0.0353264
-0.0362092
-0.0371244
-0.0380716
-0.0390504
-0.0400609
-0.041103
-0.0421764
-0.0432804
-0.0444151
-0.0455803
-0.0467756
-0.0480001
-0.0492531
-0.050534
-0.0518416
-0.0531746
-0.0545312
-0.0559091
-0.0573059
-0.058718
-0.0601416
-0.0615716
-0.0630021
-0.0644258
-0.0658341
-0.0672165
-0.0685604
-0.0698509
-0.0710701
-0.0721978
-0.0732068
-0.0740763
-0.0747581
-0.0752667
-0.0754591
-0.0756571
-0.0750349
-0.0759663
-0.0737571
-0.0795059
-0.0769665
-0.000678297
-0.00215866
-0.00365007
-0.00523122
-0.006834
-0.00843075
-0.00999664
-0.0115101
-0.0129549
-0.0143195
-0.0155939
-0.0167758
-0.0178591
-0.018844
-0.019731
-0.0205221
-0.0212206
-0.0218305
-0.0223566
-0.0228044
-0.0231798
-0.023489
-0.0237386
-0.0239354
-0.0240864
-0.0241986
-0.0242789
-0.0243344
-0.0243718
-0.0243975
-0.0244179
-0.0244387
-0.0244653
-0.0245026
-0.0245551
-0.0246268
-0.0247212
-0.0248414
-0.0249898
-0.0251687
-0.02538
-0.0256249
-0.0259048
-0.0262203
-0.0265721
-0.0269607
-0.027386
-0.0278483
-0.0283473
-0.0288829
-0.0294548
-0.0300625
-0.0307058
-0.0313842
-0.0320972
-0.0328445
-0.0336255
-0.0344399
-0.0352874
-0.0361675
-0.03708
-0.0380245
-0.0390012
-0.0400095
-0.0410477
-0.0421172
-0.0432179
-0.0443493
-0.0455096
-0.0466994
-0.0479188
-0.049167
-0.0504428
-0.0517452
-0.0530728
-0.0544239
-0.0557964
-0.0571874
-0.0585938
-0.0600114
-0.0614354
-0.0628597
-0.0642772
-0.065679
-0.0670548
-0.0683918
-0.0696752
-0.0708865
-0.0720056
-0.0730037
-0.0738606
-0.0745221
-0.0750073
-0.0751486
-0.0752829
-0.0745483
-0.0752067
-0.072913
-0.0771612
-0.0752537
-0.000695562
-0.00217163
-0.00366405
-0.0052322
-0.00682042
-0.00840333
-0.00995696
-0.0114603
-0.0128972
-0.0142556
-0.0155263
-0.0167057
-0.0177878
-0.0187726
-0.0196604
-0.0204531
-0.0211538
-0.0217664
-0.0222957
-0.0227471
-0.0231262
-0.0234395
-0.0236933
-0.0238944
-0.0240497
-0.0241662
-0.0242509
-0.0243105
-0.0243518
-0.0243813
-0.0244052
-0.0244291
-0.0244584
-0.0244981
-0.0245527
-0.024626
-0.0247216
-0.0248425
-0.0249914
-0.0251704
-0.0253813
-0.0256256
-0.0259045
-0.0262187
-0.026569
-0.0269557
-0.0273791
-0.027839
-0.0283356
-0.0288685
-0.0294376
-0.0300424
-0.0306825
-0.0313577
-0.0320673
-0.032811
-0.0335884
-0.034399
-0.0352425
-0.0361185
-0.0370267
-0.0379668
-0.0389373
-0.0399391
-0.040975
-0.0420415
-0.0431372
-0.0442625
-0.0454207
-0.0466095
-0.0478261
-0.0490701
-0.0503423
-0.0516411
-0.052965
-0.054312
-0.0556801
-0.0570667
-0.0584684
-0.0598812
-0.0613002
-0.0627193
-0.0641314
-0.0655275
-0.0668973
-0.0682277
-0.0695037
-0.0707065
-0.0718155
-0.0728005
-0.0736415
-0.0742785
-0.074735
-0.0748229
-0.0748838
-0.0740425
-0.0744237
-0.0720911
-0.0751234
-0.0734517
-0.000708085
-0.00218227
-0.00367524
-0.00523239
-0.00680787
-0.0083784
-0.00992093
-0.011415
-0.0128448
-0.0141987
-0.0154652
-0.0166419
-0.017723
-0.0187077
-0.0195963
-0.0203904
-0.0210932
-0.0217084
-0.0222406
-0.0226952
-0.0230778
-0.0233948
-0.0236524
-0.0238575
-0.0240168
-0.0241372
-0.0242257
-0.0242891
-0.024334
-0.0243668
-0.0243937
-0.0244204
-0.0244522
-0.024494
-0.0245503
-0.0246249
-0.0247215
-0.024843
-0.0249921
-0.0251709
-0.0253813
-0.0256248
-0.0259026
-0.0262154
-0.026564
-0.0269487
-0.0273699
-0.0278274
-0.0283214
-0.0288516
-0.0294177
-0.0300195
-0.0306565
-0.0313284
-0.0320348
-0.0327752
-0.0335494
-0.0343569
-0.0351974
-0.0360707
-0.0369762
-0.0379134
-0.0388854
-0.03989
-0.0409179
-0.041979
-0.0430737
-0.0442008
-0.0453507
-0.0465289
-0.0477391
-0.0489801
-0.0502467
-0.0515395
-0.0528578
-0.0541995
-0.0555625
-0.056944
-0.0583406
-0.0597484
-0.0611623
-0.0625763
-0.0639833
-0.0653742
-0.0667386
-0.0680635
-0.0693336
-0.0705294
-0.0716304
-0.0726044
-0.0734317
-0.0740465
-0.0744751
-0.0745131
-0.0745037
-0.0735698
-0.0736882
-0.0713223
-0.073375
-0.0717034
-0.000716999
-0.00219045
-0.00368362
-0.00523152
-0.00679613
-0.00835591
-0.00988874
-0.0113747
-0.0127977
-0.0141445
-0.0154106
-0.0165852
-0.0176653
-0.0186499
-0.0195392
-0.0203347
-0.0210393
-0.0216568
-0.0221917
-0.0226492
-0.023035
-0.0233553
-0.0236164
-0.023825
-0.0239878
-0.0241118
-0.0242037
-0.0242704
-0.0243184
-0.0243541
-0.0243837
-0.0244127
-0.0244466
-0.0244901
-0.0245477
-0.0246234
-0.0247206
-0.0248424
-0.0249914
-0.0251699
-0.0253796
-0.0256221
-0.0258986
-0.0262098
-0.0265566
-0.0269393
-0.0273582
-0.0278133
-0.0283047
-0.0288321
-0.0293953
-0.029994
-0.0306279
-0.0312965
-0.0319994
-0.0327362
-0.0335064
-0.0343098
-0.0351457
-0.0360139
-0.0369145
-0.0378482
-0.0388076
-0.0397977
-0.0408274
-0.041886
-0.0429727
-0.0440884
-0.0452422
-0.0464274
-0.047636
-0.048868
-0.0501327
-0.0514241
-0.0527398
-0.0540783
-0.0554376
-0.0568153
-0.0582079
-0.0596116
-0.0610214
-0.0624313
-0.063834
-0.0652208
-0.066581
-0.0679016
-0.0691672
-0.0703579
-0.0714533
-0.0724195
-0.0732373
-0.0738353
-0.0742425
-0.0742412
-0.0741721
-0.0731655
-0.0730508
-0.0706533
-0.0719235
-0.0700547
-0.000723121
-0.00219629
-0.00368924
-0.00522954
-0.00678511
-0.00833586
-0.00986048
-0.0113396
-0.0127576
-0.0141022
-0.0153637
-0.0165361
-0.0176153
-0.0185999
-0.0194898
-0.0202865
-0.0209928
-0.0216123
-0.0221496
-0.0226097
-0.0229984
-0.0233216
-0.0235857
-0.0237973
-0.0239633
-0.0240902
-0.0241851
-0.0242546
-0.0243053
-0.0243434
-0.0243752
-0.0244061
-0.0244416
-0.0244864
-0.024545
-0.0246213
-0.0247188
-0.0248407
-0.0249894
-0.0251672
-0.025376
-0.0256174
-0.0258923
-0.0262019
-0.0265468
-0.0269274
-0.027344
-0.0277966
-0.0282854
-0.0288101
-0.0293705
-0.0299663
-0.0305972
-0.0312629
-0.0319629
-0.032697
-0.0334647
-0.0342658
-0.0351
-0.0359671
-0.036866
-0.0377937
-0.0387572
-0.0397526
-0.0407753
-0.0418292
-0.0429152
-0.044032
-0.045175
-0.0463463
-0.0475529
-0.0487922
-0.0500472
-0.0513292
-0.0526376
-0.0539698
-0.0553234
-0.0566955
-0.0580828
-0.0594813
-0.0608861
-0.0622913
-0.0636895
-0.0650721
-0.0664283
-0.0677452
-0.0690075
-0.070195
-0.0712873
-0.0722495
-0.0730628
-0.0736515
-0.0740473
-0.0740203
-0.0739077
-0.0728505
-0.0725459
-0.0701162
-0.0707762
-0.0685574
-0.000727027
-0.00219988
-0.0036922
-0.00522642
-0.00677475
-0.00831817
-0.00983602
-0.0113092
-0.012722
-0.0140625
-0.0153232
-0.0164946
-0.0175733
-0.018558
-0.0194486
-0.0202464
-0.0209542
-0.0215755
-0.0221148
-0.0225772
-0.0229683
-0.023294
-0.0235607
-0.0237749
-0.0239434
-0.0240729
-0.0241702
-0.024242
-0.0242948
-0.0243349
-0.0243683
-0.0244007
-0.0244373
-0.024483
-0.0245422
-0.0246188
-0.0247164
-0.0248379
-0.0249861
-0.0251631
-0.0253708
-0.0256107
-0.0258841
-0.0261918
-0.0265346
-0.0269129
-0.027327
-0.027777
-0.0282628
-0.0287844
-0.0293415
-0.0299338
-0.0305609
-0.0312226
-0.0319184
-0.0326478
-0.0334104
-0.0342057
-0.0350333
-0.035893
-0.0367862
-0.037711
-0.0386679
-0.0396551
-0.0406749
-0.0417249
-0.0428046
-0.0439141
-0.0450551
-0.0462254
-0.0474209
-0.0486432
-0.0499028
-0.0511878
-0.052496
-0.0538266
-0.0551781
-0.0565479
-0.0579329
-0.0593292
-0.060732
-0.0621353
-0.063532
-0.0649135
-0.0662693
-0.0675862
-0.0688493
-0.0700382
-0.0711327
-0.0720971
-0.0729136
-0.0735026
-0.0738991
-0.0738623
-0.0737289
-0.0726458
-0.0722064
-0.0697466
-0.0699487
-0.0672926
-0.00072921
-0.0022015
-0.00369282
-0.00522251
-0.00676555
-0.00830376
-0.009817
-0.0112866
-0.0126973
-0.0140363
-0.0152937
-0.0164632
-0.0175411
-0.0185256
-0.0194164
-0.020215
-0.0209239
-0.0215466
-0.0220876
-0.0225518
-0.0229448
-0.0232725
-0.0235413
-0.0237577
-0.0239282
-0.0240598
-0.024159
-0.0242325
-0.0242869
-0.0243284
-0.024363
-0.0243963
-0.0244336
-0.0244797
-0.0245391
-0.0246156
-0.0247128
-0.0248337
-0.024981
-0.025157
-0.0253635
-0.025602
-0.0258738
-0.0261799
-0.0265209
-0.0268973
-0.0273094
-0.0277574
-0.0282412
-0.0287608
-0.0293159
-0.0299063
-0.0305317
-0.0311917
-0.031886
-0.0326142
-0.033376
-0.0341711
-0.0349994
-0.0358602
-0.0367505
-0.0376741
-0.0386287
-0.0396146
-0.040631
-0.0416783
-0.0427565
-0.0438651
-0.0450031
-0.0461709
-0.0473697
-0.0485975
-0.0498489
-0.0511215
-0.0524218
-0.0537464
-0.0550922
-0.0564567
-0.0578366
-0.0592279
-0.0606261
-0.0620251
-0.063418
-0.0647961
-0.0661491
-0.067464
-0.0687261
-0.069915
-0.0710113
-0.0719784
-0.0728003
-0.0733942
-0.0737986
-0.0737691
-0.0736535
-0.072573
-0.0720765
-0.0695888
-0.0695015
-0.0663473
-0.000729471
-0.00219999
-0.00368933
-0.00521517
-0.00675388
-0.00828767
-0.00979663
-0.0112622
-0.0126689
-0.0140055
-0.0152635
-0.0164333
-0.0175117
-0.018497
-0.019389
-0.0201889
-0.0208994
-0.0215238
-0.0220666
-0.0225327
-0.0229275
-0.0232572
-0.0235278
-0.0237458
-0.023918
-0.0240509
-0.0241514
-0.0242261
-0.0242814
-0.0243236
-0.0243587
-0.0243924
-0.0244298
-0.0244758
-0.0245348
-0.0246106
-0.0247069
-0.0248266
-0.0249723
-0.0251464
-0.0253507
-0.0255868
-0.0258559
-0.0261589
-0.0264966
-0.0268695
-0.0272778
-0.0277217
-0.0282012
-0.0287162
-0.0292665
-0.0298518
-0.0304719
-0.0311262
-0.0318145
-0.0325364
-0.0332914
-0.0340791
-0.0348991
-0.0357515
-0.0366382
-0.0375564
-0.0385051
-0.0394848
-0.0404956
-0.0415367
-0.042608
-0.0437093
-0.0448404
-0.0460003
-0.0471881
-0.0484039
-0.0496493
-0.0509269
-0.052225
-0.0535457
-0.0548879
-0.056249
-0.0576259
-0.0590148
-0.060411
-0.061809
-0.0632018
-0.064581
-0.0659367
-0.0672562
-0.0685251
-0.0697232
-0.0708322
-0.071815
-0.0726582
-0.0732749
-0.0737112
-0.0736981
-0.0736021
-0.072528
-0.0720212
-0.069477
-0.0692025
-0.0654889
0.0763163
0.0820207
0.0840997
0.0864654
0.0874263
0.0875362
0.0864489
0.0841232
0.0803174
0.0748173
0.0671949
0.0570887
0.04367
0.0263285
0.00313773
-0.0272652
-0.0707816
-0.128021
-0.213476
-0.315833
0.0705987
0.076073
0.0780058
0.0801325
0.0808756
0.080754
0.0794363
0.0768745
0.0728349
0.0671013
0.059271
0.0489116
0.0352952
0.017617
-0.00611487
-0.0377705
-0.0835498
-0.142596
-0.208315
-0.256683
0.065124
0.0704185
0.0721979
0.0740895
0.0745671
0.0741464
0.0724825
0.069521
0.065015
0.0587281
0.0502456
0.0390852
0.0244542
0.00539083
-0.0201507
-0.0536645
-0.0995096
-0.153731
-0.197602
-0.248704
0.0598398
0.0649442
0.0665619
0.0682243
0.0684364
0.0677091
0.0656844
0.0623035
0.0573073
0.0504421
0.0412834
0.0293173
0.0137137
-0.00651335
-0.033259
-0.0674994
-0.110947
-0.158912
-0.188551
-0.230917
0.0547168
0.0596073
0.0610532
0.0624918
0.062455
0.0614444
0.0590955
0.055348
0.0499383
0.0426065
0.0329315
0.0203905
0.00417122
-0.0166228
-0.0435874
-0.0773466
-0.116863
-0.156087
-0.179665
-0.209812
0.0497554
0.0544153
0.0556823
0.0569011
0.0566296
0.0553592
0.0527228
0.0486605
0.0429089
0.0352084
0.0251483
0.012211
-0.00437417
-0.0253404
-0.0518131
-0.0841637
-0.119291
-0.147947
-0.170402
-0.185483
0.0449655
0.0493822
0.0504678
0.0514706
0.050975
0.0494618
0.0465639
0.0422229
0.0361792
0.0281802
0.0178382
0.00467016
-0.0120216
-0.0327797
-0.0581639
-0.0882947
-0.119442
-0.13823
-0.1605
-0.163883
0.0403545
0.0445131
0.0454187
0.0462093
0.0454993
0.0437577
0.0406195
0.0360294
0.0297342
0.0214918
0.0109379
-0.00237202
-0.0190587
-0.0394683
-0.0634756
-0.0906341
-0.117529
-0.129635
-0.149702
-0.145333
0.035929
0.0398003
0.0405368
0.0411163
0.0402054
0.0382499
0.0348943
0.0300846
0.0235803
0.0151592
0.00450357
-0.00873892
-0.0250214
-0.0444561
-0.0663702
-0.0899524
-0.112941
-0.122805
-0.138281
-0.129997
0.0316976
0.0352329
0.0358265
0.0361881
0.03509
0.0329294
0.0293729
0.0243648
0.0176823
0.00912205
-0.0016025
-0.0148052
-0.0308687
-0.0497941
-0.0704177
-0.0913162
-0.111013
-0.121104
-0.133604
-0.116116
0.142519
0.151439
0.155782
0.161114
0.16537
0.169218
0.172382
0.174811
0.176333
0.176795
0.175935
0.173567
0.16919
0.162641
0.152695
0.139557
0.120658
0.0996559
0.0721267
0.0591944
0.134458
0.143262
0.146937
0.151791
0.155277
0.158231
0.160305
0.161447
0.16145
0.160124
0.157146
0.152299
0.145037
0.135225
0.12148
0.104305
0.0807185
0.0563555
0.026154
0.0299459
0.127074
0.135603
0.138911
0.143412
0.146439
0.148897
0.150391
0.150901
0.150209
0.148144
0.14438
0.138713
0.130481
0.119598
0.104426
0.0858523
0.059982
0.0344304
0.000157702
0.00792155
0.120349
0.128509
0.13165
0.135875
0.138598
0.140733
0.141849
0.141941
0.140776
0.138181
0.133792
0.127393
0.118182
0.106116
0.089228
0.0688208
0.0398948
0.0123076
-0.0265403
-0.0174175
0.113858
0.12164
0.124639
0.128595
0.131023
0.132833
0.133553
0.133187
0.131476
0.128228
0.12303
0.115656
0.105184
0.0916279
0.072674
0.0500734
0.0177203
-0.0121528
-0.054319
-0.0432742
0.10739
0.114809
0.117637
0.121308
0.123426
0.124882
0.125179
0.124323
0.122032
0.118106
0.112088
0.103761
0.0921069
0.0772035
0.0564137
0.0319307
-0.0033801
-0.0352092
-0.0801718
-0.0682036
0.100948
0.108016
0.110663
0.114045
0.115862
0.116971
0.116869
0.115564
0.11276
0.108254
0.101565
0.0924912
0.0799336
0.0639943
0.0417547
0.0156009
-0.0224968
-0.0572991
-0.10551
-0.0931447
0.0945937
0.101317
0.103794
0.1069
0.108445
0.109242
0.108796
0.107115
0.103899
0.0989447
0.0917494
0.0821243
0.0689094
0.0521572
0.0288507
0.00133207
-0.0385769
-0.0757079
-0.127098
-0.117976
0.088367
0.0947497
0.0970742
0.0999208
0.101229
0.10175
0.101017
0.099029
0.0954923
0.0901999
0.0826432
0.0726357
0.059017
0.0416522
0.0176689
-0.0115356
-0.0535556
-0.0969573
-0.152668
-0.153409
0.0822723
0.0883156
0.0905122
0.0931151
0.0942272
0.0945128
0.0935547
0.0913345
0.0875763
0.0820646
0.074299
0.0640791
0.0502237
0.0324139
0.00840597
-0.0212322
-0.061986
-0.104827
-0.159398
-0.14699
0.391245
0.390471
0.391778
0.390743
0.392785
0.3915
0.394837
0.39327
0.398868
0.397094
0.406827
0.405118
0.422829
0.421876
0.456229
0.457642
0.530718
0.540285
0.704929
0.766224
0.391242
0.390472
0.391775
0.390752
0.392782
0.391522
0.394843
0.393324
0.398902
0.397226
0.406936
0.405438
0.423129
0.42265
0.457002
0.459562
0.532734
0.544684
0.710509
0.758996
0.39124
0.39047
0.391769
0.390752
0.392775
0.391529
0.394837
0.393346
0.398902
0.397285
0.406958
0.405583
0.423207
0.423004
0.457201
0.460384
0.533132
0.54581
0.710799
0.746537
0.391236
0.390466
0.391761
0.390755
0.392764
0.391536
0.394823
0.393368
0.39889
0.397345
0.406962
0.405737
0.423261
0.42338
0.457355
0.461216
0.533325
0.546362
0.709884
0.727604
0.391231
0.390459
0.39175
0.390753
0.392747
0.391538
0.394799
0.39338
0.398859
0.397382
0.406925
0.405837
0.42322
0.423621
0.457265
0.461654
0.53275
0.545444
0.706232
0.702478
0.391226
0.39045
0.391737
0.390751
0.392726
0.391536
0.394767
0.393383
0.39881
0.3974
0.406854
0.405897
0.423104
0.423764
0.456989
0.461798
0.531562
0.543328
0.700136
0.671188
0.391219
0.390439
0.391721
0.390746
0.3927
0.39153
0.394726
0.393376
0.398744
0.397399
0.406745
0.405913
0.422908
0.423797
0.456509
0.461615
0.529709
0.540008
0.691395
0.633502
0.391212
0.390425
0.391703
0.39074
0.39267
0.39152
0.394676
0.393361
0.398659
0.397378
0.406599
0.405882
0.422628
0.423716
0.455823
0.4611
0.527191
0.535542
0.679741
0.589002
0.391205
0.390407
0.391683
0.39073
0.392637
0.391503
0.394621
0.393334
0.398563
0.397333
0.406424
0.4058
0.422275
0.423508
0.454932
0.460224
0.524006
0.529944
0.66507
0.537289
0.391195
0.39039
0.391656
0.390718
0.392592
0.391485
0.394544
0.393307
0.398435
0.397289
0.406208
0.40572
0.42187
0.423301
0.453965
0.459306
0.520486
0.523956
0.648185
0.477222
0.391195
0.39039
0.391656
0.390718
0.392592
0.391485
0.394544
0.393307
0.398435
0.397289
0.406208
0.40572
0.42187
0.423301
0.453965
0.459306
0.520486
0.523956
0.648185
0.477222
0.391205
0.390407
0.391683
0.39073
0.392637
0.391503
0.394621
0.393334
0.398563
0.397333
0.406424
0.4058
0.422275
0.423508
0.454932
0.460224
0.524006
0.529944
0.66507
0.537289
0.391212
0.390425
0.391703
0.39074
0.39267
0.39152
0.394676
0.393361
0.398659
0.397378
0.406599
0.405882
0.422628
0.423716
0.455823
0.4611
0.527191
0.535542
0.679741
0.589002
0.391219
0.390439
0.391721
0.390746
0.3927
0.39153
0.394726
0.393376
0.398744
0.397399
0.406745
0.405913
0.422908
0.423797
0.456509
0.461615
0.529709
0.540008
0.691395
0.633502
0.391226
0.39045
0.391737
0.390751
0.392726
0.391536
0.394767
0.393383
0.39881
0.3974
0.406854
0.405897
0.423104
0.423764
0.456989
0.461798
0.531562
0.543328
0.700136
0.671188
0.391231
0.390459
0.39175
0.390753
0.392747
0.391538
0.394799
0.39338
0.398859
0.397382
0.406926
0.405837
0.42322
0.423621
0.457265
0.461654
0.53275
0.545444
0.706232
0.702478
0.391236
0.390466
0.391761
0.390755
0.392764
0.391536
0.394823
0.393368
0.39889
0.397345
0.406962
0.405737
0.423261
0.42338
0.457355
0.461216
0.533325
0.546362
0.709884
0.727604
0.39124
0.39047
0.391769
0.390752
0.392775
0.391529
0.394837
0.393346
0.398902
0.397285
0.406958
0.405583
0.423207
0.423004
0.457201
0.460384
0.533132
0.54581
0.710799
0.746537
0.391242
0.390472
0.391775
0.390752
0.392782
0.391522
0.394843
0.393324
0.398902
0.397226
0.406936
0.405438
0.423129
0.42265
0.457002
0.459562
0.532734
0.544684
0.710509
0.758996
0.391245
0.390471
0.391778
0.390743
0.392785
0.3915
0.394837
0.39327
0.398868
0.397094
0.406827
0.405118
0.422829
0.421876
0.456229
0.457642
0.530718
0.540285
0.704929
0.766224
0.082272
0.0883154
0.090512
0.0931149
0.0942271
0.0945127
0.0935546
0.0913345
0.0875763
0.0820647
0.0742991
0.0640792
0.050224
0.0324142
0.00840633
-0.0212318
-0.0619855
-0.104827
-0.159397
-0.14699
0.0883668
0.0947495
0.097074
0.0999207
0.101229
0.10175
0.101017
0.099029
0.0954923
0.0902
0.0826434
0.0726359
0.0590172
0.0416525
0.0176693
-0.0115352
-0.0535551
-0.0969567
-0.152667
-0.153408
0.0945935
0.101317
0.103794
0.1069
0.108445
0.109242
0.108796
0.107115
0.103899
0.0989448
0.0917495
0.0821245
0.0689097
0.0521575
0.028851
0.00133247
-0.0385765
-0.0757073
-0.127097
-0.117976
0.100948
0.108016
0.110663
0.114045
0.115862
0.116971
0.116869
0.115564
0.11276
0.108255
0.101565
0.0924914
0.0799338
0.0639945
0.041755
0.0156013
-0.0224964
-0.0572987
-0.10551
-0.0931442
0.10739
0.114809
0.117637
0.121308
0.123426
0.124882
0.125179
0.124323
0.122032
0.118106
0.112088
0.103761
0.0921072
0.0772037
0.056414
0.0319311
-0.00337968
-0.0352088
-0.0801713
-0.0682031
0.113858
0.12164
0.124639
0.128595
0.131023
0.132833
0.133553
0.133187
0.131476
0.128228
0.12303
0.115656
0.105184
0.0916282
0.0726743
0.0500737
0.0177207
-0.0121524
-0.0543185
-0.0432737
0.120349
0.128509
0.13165
0.135875
0.138598
0.140733
0.141849
0.141941
0.140776
0.138181
0.133792
0.127393
0.118182
0.106117
0.0892283
0.0688212
0.0398951
0.0123079
-0.0265399
-0.0174171
0.127074
0.135603
0.13891
0.143412
0.146439
0.148896
0.150391
0.150901
0.150209
0.148144
0.14438
0.138714
0.130481
0.119598
0.104426
0.0858526
0.0599823
0.0344307
0.000158087
0.0079219
0.134458
0.143262
0.146937
0.151791
0.155277
0.158231
0.160305
0.161448
0.16145
0.160124
0.157146
0.152299
0.145037
0.135225
0.12148
0.104305
0.0807189
0.0563558
0.0261543
0.0299463
0.142519
0.151439
0.155782
0.161114
0.16537
0.169218
0.172382
0.174811
0.176333
0.176795
0.175936
0.173567
0.16919
0.162641
0.152695
0.139557
0.120658
0.0996562
0.072127
0.0591946
0.0316972
0.0352325
0.0358261
0.0361878
0.0350897
0.0329291
0.0293727
0.0243647
0.0176823
0.0091221
-0.00160236
-0.014805
-0.0308683
-0.0497936
-0.0704171
-0.0913155
-0.111013
-0.121104
-0.133603
-0.116115
0.0359285
0.0397999
0.0405364
0.041116
0.0402051
0.0382496
0.0348941
0.0300845
0.0235802
0.0151592
0.00450371
-0.00873869
-0.0250211
-0.0444557
-0.0663697
-0.0899517
-0.11294
-0.122804
-0.13828
-0.129996
0.0403541
0.0445127
0.0454183
0.046209
0.045499
0.0437575
0.0406194
0.0360293
0.0297341
0.0214918
0.0109381
-0.00237179
-0.0190584
-0.0394679
-0.0634751
-0.0906335
-0.117528
-0.129635
-0.149701
-0.145332
0.0449651
0.0493818
0.0504675
0.0514703
0.0509748
0.0494616
0.0465637
0.0422228
0.0361792
0.0281802
0.0178384
0.00467038
-0.0120213
-0.0327793
-0.0581634
-0.0882941
-0.119441
-0.138229
-0.160499
-0.163883
0.049755
0.0544149
0.055682
0.0569008
0.0566294
0.055359
0.0527227
0.0486604
0.0429089
0.0352085
0.0251485
0.0122112
-0.00437388
-0.02534
-0.0518127
-0.0841631
-0.11929
-0.147946
-0.170401
-0.185482
0.0547165
0.059607
0.0610529
0.0624916
0.0624548
0.0614442
0.0590954
0.0553479
0.0499383
0.0426065
0.0329316
0.0203907
0.0041715
-0.0166224
-0.0435869
-0.0773461
-0.116862
-0.156087
-0.179664
-0.209811
0.0598395
0.0649439
0.0665616
0.0682241
0.0684362
0.0677089
0.0656843
0.0623034
0.0573073
0.0504422
0.0412835
0.0293175
0.0137139
-0.00651301
-0.0332585
-0.0674988
-0.110947
-0.158912
-0.18855
-0.230917
0.0651237
0.0704183
0.0721976
0.0740892
0.0745669
0.0741463
0.0724824
0.069521
0.065015
0.0587281
0.0502457
0.0390854
0.0244545
0.00539116
-0.0201503
-0.053664
-0.099509
-0.15373
-0.197602
-0.248703
0.0705984
0.0760727
0.0780056
0.0801324
0.0808755
0.0807538
0.0794363
0.0768745
0.0728349
0.0671014
0.0592712
0.0489118
0.0352954
0.0176173
-0.0061145
-0.0377701
-0.0835493
-0.142596
-0.208314
-0.256682
0.076316
0.0820205
0.0840995
0.0864652
0.0874261
0.0875361
0.0864488
0.0841231
0.0803174
0.0748174
0.067195
0.0570889
0.0436703
0.0263288
0.00313809
-0.0272648
-0.0707811
-0.128021
-0.213476
-0.315832
-0.000729473
-0.00219999
-0.00368934
-0.00521518
-0.00675389
-0.00828767
-0.00979663
-0.0112622
-0.0126688
-0.0140056
-0.0152635
-0.0164333
-0.0175117
-0.018497
-0.0193889
-0.0201888
-0.0208993
-0.0215237
-0.0220664
-0.0225325
-0.0229274
-0.023257
-0.0235276
-0.0237456
-0.0239178
-0.0240508
-0.0241513
-0.0242259
-0.0242813
-0.0243235
-0.0243587
-0.0243924
-0.0244298
-0.0244759
-0.0245349
-0.0246108
-0.024707
-0.0248267
-0.0249725
-0.0251466
-0.0253509
-0.025587
-0.0258561
-0.0261592
-0.0264969
-0.0268697
-0.0272781
-0.027722
-0.0282015
-0.0287165
-0.0292669
-0.0298522
-0.0304723
-0.0311267
-0.0318151
-0.0325372
-0.0332924
-0.0340804
-0.0349008
-0.0357527
-0.0366349
-0.0375541
-0.0385043
-0.0394848
-0.0404961
-0.0415377
-0.0426095
-0.0437111
-0.0448426
-0.0460037
-0.0471933
-0.04841
-0.0496544
-0.0509222
-0.0522212
-0.0535434
-0.0548864
-0.056248
-0.0576253
-0.0590144
-0.0604108
-0.0618089
-0.0632018
-0.0645811
-0.0659369
-0.0672563
-0.0685252
-0.0697234
-0.0708323
-0.0718151
-0.0726582
-0.073275
-0.0737112
-0.0736981
-0.0736021
-0.072528
-0.0720212
-0.0694769
-0.0692025
-0.0654888
-0.000729219
-0.00220153
-0.00369286
-0.00522255
-0.00676561
-0.00830382
-0.00981706
-0.0112867
-0.0126973
-0.0140362
-0.0152936
-0.0164631
-0.0175409
-0.0185253
-0.0194161
-0.0202147
-0.0209235
-0.0215462
-0.0220871
-0.0225512
-0.0229442
-0.023272
-0.0235408
-0.0237571
-0.0239277
-0.0240593
-0.0241585
-0.0242321
-0.0242866
-0.0243282
-0.0243629
-0.0243963
-0.0244337
-0.0244799
-0.0245393
-0.024616
-0.0247132
-0.0248343
-0.0249817
-0.0251577
-0.0253642
-0.0256028
-0.0258746
-0.0261807
-0.0265216
-0.026898
-0.0273101
-0.027758
-0.0282417
-0.0287611
-0.0293161
-0.0299063
-0.0305315
-0.0311913
-0.0318854
-0.0326133
-0.0333748
-0.0341695
-0.0349973
-0.0358583
-0.036753
-0.0376753
-0.0386285
-0.0396135
-0.0406294
-0.0416762
-0.0427541
-0.0438624
-0.0450004
-0.0461673
-0.0473641
-0.0485917
-0.0498419
-0.0511249
-0.0524251
-0.0537485
-0.0550938
-0.0564579
-0.0578376
-0.0592288
-0.0606268
-0.0620258
-0.0634186
-0.0647966
-0.0661496
-0.0674644
-0.0687265
-0.0699153
-0.0710115
-0.0719785
-0.0728004
-0.0733943
-0.0737986
-0.0737691
-0.0736535
-0.0725729
-0.0720764
-0.0695887
-0.0695014
-0.0663471
-0.000727041
-0.00219992
-0.00369226
-0.0052265
-0.00677483
-0.00831825
-0.00983609
-0.0113092
-0.012722
-0.0140625
-0.0153231
-0.0164944
-0.0175731
-0.0185577
-0.0194481
-0.0202459
-0.0209536
-0.0215748
-0.022114
-0.0225764
-0.0229674
-0.023293
-0.0235597
-0.023774
-0.0239425
-0.0240721
-0.0241695
-0.0242414
-0.0242943
-0.0243345
-0.0243681
-0.0244007
-0.0244374
-0.0244833
-0.0245427
-0.0246195
-0.0247172
-0.0248388
-0.0249871
-0.0251642
-0.025372
-0.025612
-0.0258854
-0.0261932
-0.0265359
-0.0269142
-0.0273282
-0.0277781
-0.0282638
-0.0287852
-0.0293421
-0.0299343
-0.0305613
-0.0312228
-0.0319184
-0.0326477
-0.0334102
-0.0342056
-0.0350332
-0.0358924
-0.0367829
-0.0377076
-0.0386658
-0.0396537
-0.0406738
-0.0417243
-0.0428044
-0.0439142
-0.0450548
-0.0462262
-0.0474246
-0.0486454
-0.0499067
-0.0511863
-0.0524942
-0.0538257
-0.0551778
-0.0565481
-0.0579334
-0.0593299
-0.0607328
-0.0621362
-0.063533
-0.0649145
-0.0662702
-0.067587
-0.06885
-0.0700387
-0.0711332
-0.0720974
-0.0729138
-0.0735027
-0.073899
-0.0738622
-0.0737287
-0.0726457
-0.0722063
-0.0697465
-0.0699485
-0.0672924
-0.00072314
-0.00219635
-0.00368933
-0.00522965
-0.00678523
-0.00833598
-0.00986058
-0.0113396
-0.0127576
-0.0141021
-0.0153635
-0.0165358
-0.0176149
-0.0185994
-0.0194891
-0.0202857
-0.0209919
-0.0216113
-0.0221485
-0.0226085
-0.0229971
-0.0233203
-0.0235844
-0.023796
-0.023962
-0.0240891
-0.0241841
-0.0242537
-0.0243046
-0.0243429
-0.0243749
-0.0244061
-0.0244417
-0.0244868
-0.0245456
-0.0246222
-0.02472
-0.024842
-0.0249909
-0.0251689
-0.0253778
-0.0256192
-0.0258942
-0.0262038
-0.0265486
-0.0269291
-0.0273456
-0.0277981
-0.0282867
-0.0288111
-0.0293713
-0.0299668
-0.0305975
-0.0312628
-0.0319625
-0.0326962
-0.0334636
-0.0342642
-0.0350981
-0.0359651
-0.036865
-0.0377935
-0.0387553
-0.0397501
-0.0407724
-0.041826
-0.0429117
-0.0440285
-0.0451734
-0.0463442
-0.0475463
-0.0487889
-0.050045
-0.0513297
-0.0526387
-0.0539709
-0.0553245
-0.0566966
-0.058084
-0.0594826
-0.0608875
-0.0622927
-0.0636909
-0.0650734
-0.0664296
-0.0677463
-0.0690085
-0.0701958
-0.0712879
-0.0722499
-0.073063
-0.0736516
-0.0740472
-0.0740202
-0.0739075
-0.0728503
-0.0725456
-0.070116
-0.070776
-0.0685571
-0.000717024
-0.00219052
-0.00368373
-0.00523166
-0.00679628
-0.00835606
-0.00988887
-0.0113748
-0.0127977
-0.0141445
-0.0154104
-0.0165849
-0.0176648
-0.0186493
-0.0195384
-0.0203337
-0.0210382
-0.0216555
-0.0221902
-0.0226476
-0.0230334
-0.0233536
-0.0236147
-0.0238233
-0.0239862
-0.0241103
-0.0242024
-0.0242692
-0.0243175
-0.0243535
-0.0243833
-0.0244127
-0.0244468
-0.0244906
-0.0245486
-0.0246245
-0.024722
-0.0248441
-0.0249933
-0.025172
-0.0253819
-0.0256245
-0.025901
-0.0262123
-0.026559
-0.0269416
-0.0273603
-0.0278153
-0.0283064
-0.0288335
-0.0293964
-0.0299948
-0.0306282
-0.0312964
-0.031999
-0.0327354
-0.0335054
-0.0343084
-0.0351441
-0.0360118
-0.0369116
-0.0378444
-0.0388046
-0.0397954
-0.0408254
-0.0418845
-0.0429719
-0.0440881
-0.045238
-0.0464245
-0.0476379
-0.0488686
-0.050133
-0.0514236
-0.0527395
-0.0540785
-0.0554383
-0.0568164
-0.0582093
-0.0596132
-0.0610231
-0.0624331
-0.0638358
-0.0652225
-0.0665826
-0.067903
-0.0691684
-0.0703589
-0.071454
-0.07242
-0.0732376
-0.0738354
-0.0742425
-0.074241
-0.0741718
-0.0731652
-0.0730505
-0.070653
-0.0719232
-0.0700544
-0.000708115
-0.00218236
-0.00367538
-0.00523256
-0.00680806
-0.00837859
-0.0099211
-0.0114151
-0.0128448
-0.0141985
-0.015465
-0.0166416
-0.0177224
-0.0187069
-0.0195953
-0.0203892
-0.0210918
-0.0217067
-0.0222388
-0.0226932
-0.0230758
-0.0233927
-0.0236503
-0.0238554
-0.0240148
-0.0241354
-0.0242241
-0.0242877
-0.0243329
-0.0243661
-0.0243933
-0.0244203
-0.0244525
-0.0244947
-0.0245513
-0.0246264
-0.0247233
-0.0248451
-0.0249944
-0.0251735
-0.0253841
-0.0256277
-0.0259055
-0.0262184
-0.0265669
-0.0269515
-0.0273725
-0.0278298
-0.0283235
-0.0288533
-0.029419
-0.0300203
-0.0306569
-0.0313283
-0.0320342
-0.0327742
-0.0335478
-0.0343549
-0.035195
-0.0360679
-0.0369734
-0.0379106
-0.038882
-0.0398858
-0.0409134
-0.041974
-0.0430683
-0.0441952
-0.0453495
-0.0465274
-0.0477361
-0.0489781
-0.0502456
-0.0515394
-0.0528582
-0.0542004
-0.0555637
-0.0569455
-0.0583424
-0.0597504
-0.0611644
-0.0625785
-0.0639855
-0.0653763
-0.0667406
-0.0680652
-0.069335
-0.0705305
-0.0716312
-0.072605
-0.073432
-0.0740466
-0.074475
-0.0745129
-0.0745034
-0.0735694
-0.0736878
-0.071322
-0.0733747
-0.071703
-0.000695597
-0.00217174
-0.00366421
-0.0052324
-0.00682065
-0.00840355
-0.00995716
-0.0114604
-0.0128972
-0.0142556
-0.015526
-0.0167052
-0.0177871
-0.0187717
-0.0196592
-0.0204517
-0.0211521
-0.0217645
-0.0222936
-0.0227448
-0.0231238
-0.023437
-0.0236908
-0.023892
-0.0240474
-0.0241641
-0.024249
-0.0243089
-0.0243506
-0.0243804
-0.0244047
-0.024429
-0.0244588
-0.024499
-0.024554
-0.0246277