/*--------------------------------*- C++ -*----------------------------------*\
  =========                 |
  \\      /  F ield         | OpenFOAM: The Open Source CFD Toolbox
   \\    /   O peration     | Website:  https://openfoam.org
    \\  /    A nd           | Version:  7
     \\/     M anipulation  |
\*---------------------------------------------------------------------------*/
FoamFile
{
    version     2.0;
    format      ascii;
    class       surfaceScalarField;
    location    "40";
    object      phi;
}
// * * * * * * * * * * * * * * * * * * * * * * * * * * * * * * * * * * * * * //

dimensions      [0 3 -1 0 0 0 0];

internalField   nonuniform List<scalar> 
7840
(
-0.00147447
0.00976876
-0.00939956
-0.0018393
0.00973258
-0.00936775
-0.00220396
0.00967608
-0.00931143
-0.00256815
0.00963185
-0.00926766
-0.00293353
0.00958263
-0.00921724
-0.00330006
0.00954117
-0.00917464
-0.00366966
0.00949741
-0.00912781
-0.00404327
0.00945871
-0.00908509
-0.00442281
0.00941974
-0.0090402
-0.0048094
0.00938721
-0.00900061
-0.00520861
0.00935328
-0.00895408
-0.00562098
0.00933469
-0.00892232
-0.0060629
0.00930871
-0.00886679
-0.00652488
0.00932386
-0.00886188
-0.00700842
0.00927315
-0.0087896
-0.00733758
0.0091492
-0.00882005
-0.007197
0.00843676
-0.00857734
-0.00579233
0.00698132
-0.00838599
-0.00317774
0.00401677
-0.00663136
0.00109051
-0.00426825
-0.00150069
0.010139
-0.00186802
0.0100999
-0.00223564
0.0100437
-0.00260344
0.00999965
-0.00297276
0.00995195
-0.00334418
0.0099126
-0.00371942
0.00987264
-0.0041001
0.00983939
-0.00448881
0.00980845
-0.00488808
0.00978648
-0.0053044
0.00976961
-0.0057425
0.00977278
-0.00621138
0.0097776
-0.00666783
0.00978031
-0.00698618
0.0095915
-0.00683401
0.00899702
-0.00585922
0.00746197
-0.00382398
0.00494608
-0.00144296
0.00163575
-0.000352445
-0.00152581
0.0105104
-0.00189516
0.0104693
-0.00226545
0.010414
-0.00263647
0.0103707
-0.00300996
0.0103254
-0.00338668
0.0102893
-0.00376859
0.0102546
-0.00415728
0.0102281
-0.00455561
0.0102068
-0.00496684
0.0101977
-0.00539709
0.0101999
-0.00584491
0.0102206
-0.00627989
0.0102126
-0.00657319
0.0100736
-0.00647537
0.00949368
-0.0056314
0.00815306
-0.00390692
0.00573749
-0.00162706
0.00266621
-9.16155e-05
0.000100305
-0.000444061
-0.00154976
0.010883
-0.00192092
0.0108404
-0.00229342
0.0107865
-0.0026671
0.0107443
-0.00304362
0.010702
-0.00342369
0.0106694
-0.00380937
0.0106402
-0.004203
0.0106217
-0.00460863
0.0106124
-0.00503043
0.0106195
-0.00546798
0.0106374
-0.00589318
0.0106458
-0.00621356
0.010533
-0.00622329
0.0100833
-0.00564399
0.00891438
-0.00427773
0.00678679
-0.00236126
0.00382103
-0.000731844
0.0010368
-5.8413e-05
-0.000573127
-0.000502474
-0.00157231
0.0112566
-0.00194513
0.0112132
-0.00231964
0.011161
-0.00269608
0.0111208
-0.00307623
0.0110821
-0.00346145
0.0110546
-0.00385432
0.0110331
-0.004257
0.0110244
-0.00467136
0.0110268
-0.00509561
0.0110438
-0.00551227
0.0110541
-0.00585544
0.010989
-0.0059734
0.0106509
-0.00562321
0.00973314
-0.00458827
0.00787945
-0.00292226
0.00512078
-0.00122267
0.00212144
-0.000163231
-2.26419e-05
0.00011387
-0.000850228
-0.000388604
-0.00159355
0.0116311
-0.00196791
0.0115876
-0.00234424
0.0115373
-0.00272291
0.0114994
-0.00310534
0.0114645
-0.00349254
0.0114418
-0.00388607
0.0114266
-0.00428777
0.0114261
-0.00469902
0.011438
-0.0051114
0.0114562
-0.0054827
0.0114254
-0.00569917
0.0112054
-0.00556329
0.010515
-0.0048523
0.00902216
-0.00350503
0.00653217
-0.00187364
0.00348939
-0.000627267
0.000875067
-6.6755e-05
-0.000583154
6.20139e-06
-0.000923184
-0.000382403
-0.00161327
0.0120063
-0.00198885
0.0119632
-0.00236665
0.0119151
-0.00274751
0.0118803
-0.00313294
0.01185
-0.00352486
0.0118337
-0.00392545
0.0118272
-0.00433618
0.0118368
-0.00475112
0.011853
-0.00513983
0.0118449
-0.00542188
0.0117074
-0.00544762
0.0112312
-0.00502072
0.0100881
-0.00400132
0.00800275
-0.00253117
0.00506202
-0.00115328
0.00211151
-0.000342094
6.38756e-05
-3.449e-05
-0.000890758
6.90363e-06
-0.000964578
-0.000375499
-0.00163182
0.0123821
-0.00200865
0.01234
-0.00238791
0.0122944
-0.00277063
0.012263
-0.00315756
0.0122369
-0.00354959
0.0122258
-0.00394629
0.0122239
-0.00434413
0.0122347
-0.00472771
0.0122365
-0.0050508
0.0121679
-0.0052114
0.011868
-0.0050422
0.011062
-0.00436515
0.00941109
-0.00315778
0.00679538
-0.00176659
0.00367084
-0.000732356
0.00107727
-0.000212858
-0.000455623
-3.82921e-05
-0.00106532
-2.17603e-05
-0.00098111
-0.000397259
-0.00164867
0.0127582
-0.00202614
0.0127175
-0.00240606
0.0126743
-0.00279026
0.0126472
-0.00317894
0.0126256
-0.00357403
0.0126208
-0.00397553
0.0126254
-0.00437824
0.0126374
-0.00475503
0.0126133
-0.00502934
0.0124423
-0.00505679
0.0118955
-0.00465815
0.0106633
-0.00373451
0.00848744
-0.00244126
0.00550213
-0.00123209
0.00246167
-0.000461962
0.000307148
-0.000101681
-0.000815904
5.21617e-06
-0.00117222
5.40468e-06
-0.000981298
-0.000391855
-0.0016643
0.0131341
-0.00204377
0.0130969
-0.00242503
0.0130556
-0.00281127
0.0130335
-0.00320081
0.0130151
-0.00359448
0.0130145
-0.00398622
0.0130172
-0.00435772
0.0130089
-0.0046579
0.0129135
-0.00478508
0.0125694
-0.00459824
0.0117086
-0.00398108
0.0100462
-0.00294978
0.00745614
-0.00175385
0.0043062
-0.000787049
0.00149487
-0.000223457
-0.000256443
2.59083e-05
-0.00106527
5.88443e-05
-0.00120516
1.40542e-05
-0.000936508
-0.000377801
-0.000617977
0.0115517
-0.0117741
-0.000403591
0.0114581
-0.0116725
-0.000194166
0.0113586
-0.011568
3.45179e-06
0.0112312
-0.0114288
0.000192039
0.0111129
-0.0113014
0.000366297
0.0109644
-0.0111387
0.00052658
0.0108157
-0.0109759
0.00066852
0.0106355
-0.0107775
0.000789198
0.0104368
-0.0105574
0.000884386
0.0101968
-0.010292
0.000948839
0.00991804
-0.00998249
0.000977686
0.00957474
-0.00960359
0.000962358
0.00917081
-0.00915548
0.000905127
0.00866936
-0.00861213
0.000796612
0.00811506
-0.00800655
0.000644131
0.00740945
-0.00725697
0.000441427
0.00670855
-0.00650585
0.000178092
0.00574885
-0.00548551
-6.72264e-06
0.00458916
-0.00440434
0.00218182
-0.00218854
-0.000642708
0.0113262
-0.000426011
0.0112414
-0.000213997
0.0111466
-1.35796e-05
0.0110308
0.000177972
0.0109213
0.000355298
0.0107871
0.000518653
0.0106523
0.000663607
0.0104906
0.000787445
0.0103129
0.000885645
0.0100986
0.000953101
0.00985058
0.000984991
0.00954285
0.000974795
0.009181
0.000921003
0.00872315
0.000821074
0.00821499
0.00066769
0.00756284
0.000485106
0.00689114
0.000229978
0.00600398
7.37417e-05
0.0047454
0.00225556
-0.000667375
0.0110979
-0.000447483
0.0110215
-0.000232532
0.0109317
-2.87285e-05
0.010827
0.000166415
0.0107262
0.00034761
0.0106059
0.000514999
0.0104849
0.000664068
0.0103415
0.000791943
0.010185
0.000893584
0.00999699
0.000963289
0.00978088
0.000995169
0.00951098
0.000981033
0.00919514
0.000916648
0.00878754
0.000798731
0.00833291
0.000618937
0.00774263
0.000403805
0.00710627
0.000120112
0.00628767
-3.65535e-05
0.00490206
0.00221901
-0.000691506
0.0108665
-0.000468083
0.0107981
-0.000249771
0.0107133
-4.21279e-05
0.0106193
0.000157035
0.010527
0.000342691
0.0104202
0.000514857
0.0103128
0.000669067
0.0101873
0.000802494
0.0100516
0.000909941
0.00988954
0.000985923
0.0097049
0.00102368
0.00947322
0.00101645
0.00920237
0.000954643
0.00884934
0.000841842
0.00844571
0.000650154
0.00793432
0.000434227
0.0073222
0.000154873
0.00656702
-1.62713e-05
0.0050732
0.00220274
-0.000715281
0.0106318
-0.000488095
0.0105709
-0.000266152
0.0104914
-5.43199e-05
0.0104075
0.000149267
0.0103234
0.000339929
0.0102296
0.000517678
0.010135
0.000678223
0.0100267
0.000818948
0.00991089
0.000934471
0.00977402
0.00101961
0.00961976
0.00106643
0.0094264
0.00106898
0.00919982
0.0010153
0.00890302
0.000909562
0.00855145
0.000732633
0.00811125
0.000506513
0.00754832
0.000230472
0.00684306
2.60746e-05
0.0052776
0.00222881
-0.000738197
0.0103934
-0.000506772
0.0103395
-0.000280583
0.0102652
-6.38199e-05
0.0101907
0.000145085
0.0101145
0.000341895
0.0100327
0.000526727
0.00995017
0.000695498
0.00985796
0.000846063
0.00976033
0.000972846
0.00964723
0.00107159
0.00952101
0.00113192
0.00936608
0.00115072
0.00918102
0.00110601
0.00894773
0.001008
0.00864946
0.000801297
0.00831795
0.000564114
0.0077855
0.000241729
0.00716545
2.50973e-05
0.00549423
0.00225391
-0.000761043
0.0101513
-0.000525429
0.0101039
-0.000295029
0.0100348
-7.34058e-05
0.00996911
0.000140787
0.00990032
0.000343653
0.00982988
0.0005355
0.00975833
0.000712659
0.0096808
0.000873342
0.00959964
0.00101178
0.00950879
0.00112404
0.00940876
0.00119965
0.00929046
0.00123596
0.00914471
0.00121555
0.00896814
0.00114824
0.00871677
0.00102501
0.00844118
0.000822915
0.00798759
0.000568952
0.00741941
0.000226216
0.00583697
0.00248012
-0.000782191
0.00990496
-0.000541533
0.00986323
-0.000305705
0.00979898
-7.78474e-05
0.00974125
0.000143234
0.00967923
0.000354155
0.00961896
0.000555617
0.00955687
0.000744228
0.00949219
0.000918611
0.00942526
0.00107319
0.00935422
0.00120581
0.00927613
0.00130492
0.00919135
0.00136819
0.00908145
0.00136769
0.00896864
0.00130448
0.00877998
0.00110845
0.0086372
0.000846822
0.00824922
0.000434699
0.00783153
0.000160951
0.00611072
0.00264107
-0.000804627
0.00965477
-0.000560118
0.00961873
-0.000320269
0.00955913
-8.78611e-05
0.00950884
0.000138285
0.00945309
0.000354825
0.00940242
0.000562774
0.00934892
0.000758671
0.0092963
0.000941531
0.0092424
0.00110652
0.00918923
0.00125178
0.00913086
0.00136714
0.00907599
0.00145163
0.00899696
0.00148926
0.00893101
0.00149541
0.00877383
0.00148254
0.00865007
0.00142145
0.00831031
0.00126888
0.00798411
0.000772512
0.00660709
0.00341359
-0.000822767
-0.000571792
-0.000324085
-8.29082e-05
0.000152937
0.000380716
0.000601826
0.000813027
0.00101522
0.00120384
0.00138063
0.0015343
0.00166446
0.0017336
0.00171783
0.00154785
0.00128082
0.000878938
0.000854663
-0.000822767
-0.00965477
0.00939956
-0.000571792
-0.00961873
0.00936775
-0.000324085
-0.00955913
0.00931143
-8.29082e-05
-0.00950884
0.00926766
0.000152937
-0.00945309
0.00921724
0.000380716
-0.00940242
0.00917464
0.000601826
-0.00934892
0.00912781
0.000813027
-0.0092963
0.00908509
0.00101522
-0.0092424
0.0090402
0.00120384
-0.00918923
0.00900061
0.00138063
-0.00913086
0.00895408
0.0015343
-0.00907599
0.00892232
0.00166446
-0.00899696
0.00886679
0.0017336
-0.00893101
0.00886188
0.00171783
-0.00877383
0.0087896
0.00154785
-0.00865007
0.00882005
0.00128082
-0.00831031
0.00857734
0.000878938
-0.00798411
0.00838599
0.000854663
-0.00660709
0.00663136
-0.00341359
0.00426825
-0.000804627
-0.00990496
-0.000560118
-0.00986323
-0.000320269
-0.00979898
-8.78611e-05
-0.00974125
0.000138285
-0.00967923
0.000354825
-0.00961896
0.000562774
-0.00955687
0.000758671
-0.00949219
0.000941531
-0.00942526
0.00110652
-0.00935422
0.00125178
-0.00927613
0.00136714
-0.00919135
0.00145163
-0.00908145
0.00148926
-0.00896864
0.00149541
-0.00877998
0.00148254
-0.0086372
0.00142145
-0.00824922
0.00126888
-0.00783153
0.000772512
-0.00611072
-0.00264107
-0.000782191
-0.0101513
-0.000541533
-0.0101039
-0.000305705
-0.0100348
-7.78474e-05
-0.00996911
0.000143234
-0.00990032
0.000354155
-0.00982988
0.000555617
-0.00975833
0.000744228
-0.0096808
0.000918611
-0.00959964
0.00107319
-0.00950879
0.00120581
-0.00940876
0.00130492
-0.00929046
0.00136819
-0.00914471
0.00136769
-0.00896814
0.00130448
-0.00871677
0.00110845
-0.00844118
0.000846822
-0.00798759
0.000434699
-0.00741941
0.000160951
-0.00583697
-0.00248012
-0.000761043
-0.0103934
-0.000525429
-0.0103395
-0.000295029
-0.0102652
-7.34058e-05
-0.0101907
0.000140787
-0.0101145
0.000343653
-0.0100327
0.0005355
-0.00995017
0.000712659
-0.00985796
0.000873342
-0.00976033
0.00101178
-0.00964723
0.00112404
-0.00952101
0.00119965
-0.00936608
0.00123596
-0.00918102
0.00121555
-0.00894773
0.00114824
-0.00864946
0.00102501
-0.00831795
0.000822915
-0.0077855
0.000568952
-0.00716545
0.000226216
-0.00549423
-0.00225391
-0.000738197
-0.0106318
-0.000506772
-0.0105709
-0.000280583
-0.0104914
-6.38199e-05
-0.0104075
0.000145085
-0.0103234
0.000341895
-0.0102296
0.000526727
-0.010135
0.000695498
-0.0100267
0.000846063
-0.00991089
0.000972846
-0.00977402
0.00107159
-0.00961976
0.00113192
-0.0094264
0.00115072
-0.00919982
0.00110601
-0.00890302
0.001008
-0.00855145
0.000801297
-0.00811125
0.000564114
-0.00754832
0.000241729
-0.00684306
2.50973e-05
-0.0052776
-0.00222881
-0.000715281
-0.0108665
-0.000488095
-0.0107981
-0.000266152
-0.0107133
-5.43199e-05
-0.0106193
0.000149267
-0.010527
0.000339929
-0.0104202
0.000517678
-0.0103128
0.000678223
-0.0101873
0.000818948
-0.0100516
0.000934471
-0.00988954
0.00101961
-0.0097049
0.00106643
-0.00947322
0.00106898
-0.00920237
0.0010153
-0.00884934
0.000909562
-0.00844571
0.000732633
-0.00793432
0.000506513
-0.0073222
0.000230472
-0.00656702
2.60746e-05
-0.0050732
-0.00220274
-0.000691506
-0.0110979
-0.000468083
-0.0110215
-0.000249771
-0.0109317
-4.21279e-05
-0.010827
0.000157035
-0.0107262
0.000342691
-0.0106059
0.000514857
-0.0104849
0.000669067
-0.0103415
0.000802494
-0.010185
0.000909941
-0.00999699
0.000985923
-0.00978088
0.00102368
-0.00951098
0.00101645
-0.00919514
0.000954643
-0.00878754
0.000841842
-0.00833291
0.000650154
-0.00774263
0.000434227
-0.00710627
0.000154873
-0.00628767
-1.62713e-05
-0.00490206
-0.00221901
-0.000667375
-0.0113262
-0.000447483
-0.0112414
-0.000232532
-0.0111466
-2.87285e-05
-0.0110308
0.000166415
-0.0109213
0.00034761
-0.0107871
0.000514999
-0.0106523
0.000664068
-0.0104906
0.000791943
-0.0103129
0.000893584
-0.0100986
0.000963289
-0.00985058
0.000995169
-0.00954285
0.000981033
-0.009181
0.000916648
-0.00872315
0.000798731
-0.00821499
0.000618937
-0.00756284
0.000403805
-0.00689114
0.000120112
-0.00600398
-3.65535e-05
-0.0047454
-0.00225556
-0.000642708
-0.0115517
-0.000426011
-0.0114581
-0.000213997
-0.0113586
-1.35796e-05
-0.0112312
0.000177972
-0.0111129
0.000355298
-0.0109644
0.000518653
-0.0108157
0.000663607
-0.0106355
0.000787445
-0.0104368
0.000885645
-0.0101968
0.000953101
-0.00991804
0.000984991
-0.00957474
0.000974795
-0.00917081
0.000921003
-0.00866936
0.000821074
-0.00811506
0.00066769
-0.00740945
0.000485106
-0.00670855
0.000229978
-0.00574885
7.37417e-05
-0.00458916
-0.00218182
-0.000617977
-0.0117741
-0.000403591
-0.0116725
-0.000194166
-0.011568
3.45179e-06
-0.0114288
0.000192039
-0.0113014
0.000366297
-0.0111387
0.00052658
-0.0109759
0.00066852
-0.0107775
0.000789198
-0.0105574
0.000884386
-0.010292
0.000948839
-0.00998249
0.000977686
-0.00960359
0.000962358
-0.00915548
0.000905127
-0.00861213
0.000796612
-0.00800655
0.000644131
-0.00725697
0.000441427
-0.00650585
0.000178092
-0.00548551
-6.72264e-06
-0.00440434
-0.00218854
-0.0016643
-0.0127582
0.0131341
-0.00204377
-0.0127175
0.0130969
-0.00242503
-0.0126743
0.0130556
-0.00281127
-0.0126472
0.0130335
-0.00320081
-0.0126256
0.0130151
-0.00359448
-0.0126208
0.0130145
-0.00398622
-0.0126254
0.0130172
-0.00435772
-0.0126374
0.0130089
-0.0046579
-0.0126133
0.0129135
-0.00478508
-0.0124423
0.0125694
-0.00459824
-0.0118955
0.0117086
-0.00398108
-0.0106633
0.0100462
-0.00294978
-0.00848744
0.00745614
-0.00175385
-0.00550213
0.0043062
-0.000787049
-0.00246167
0.00149487
-0.000223457
-0.000307148
-0.000256443
2.59083e-05
0.000815904
-0.00106527
5.88443e-05
0.00117222
-0.00120516
1.40542e-05
0.000981298
-0.000936508
0.000391855
-0.000377801
-0.00164867
-0.0123821
-0.00202614
-0.01234
-0.00240606
-0.0122944
-0.00279026
-0.012263
-0.00317894
-0.0122369
-0.00357403
-0.0122258
-0.00397553
-0.0122239
-0.00437824
-0.0122347
-0.00475503
-0.0122365
-0.00502934
-0.0121679
-0.00505679
-0.011868
-0.00465815
-0.011062
-0.00373451
-0.00941109
-0.00244126
-0.00679538
-0.00123209
-0.00367084
-0.000461962
-0.00107727
-0.000101681
0.000455623
5.21617e-06
0.00106532
5.40468e-06
0.00098111
0.000397259
-0.00163182
-0.0120063
-0.00200865
-0.0119632
-0.00238791
-0.0119151
-0.00277063
-0.0118803
-0.00315756
-0.01185
-0.00354959
-0.0118337
-0.00394629
-0.0118272
-0.00434413
-0.0118368
-0.00472771
-0.011853
-0.0050508
-0.0118449
-0.0052114
-0.0117074
-0.0050422
-0.0112312
-0.00436515
-0.0100881
-0.00315778
-0.00800275
-0.00176659
-0.00506202
-0.000732356
-0.00211151
-0.000212858
-6.38756e-05
-3.82921e-05
0.000890758
-2.17603e-05
0.000964578
0.000375499
-0.00161327
-0.0116311
-0.00198885
-0.0115876
-0.00236665
-0.0115373
-0.00274751
-0.0114994
-0.00313294
-0.0114645
-0.00352486
-0.0114418
-0.00392545
-0.0114266
-0.00433618
-0.0114261
-0.00475112
-0.011438
-0.00513983
-0.0114562
-0.00542188
-0.0114254
-0.00544762
-0.0112054
-0.00502072
-0.010515
-0.00400132
-0.00902216
-0.00253117
-0.00653217
-0.00115328
-0.00348939
-0.000342094
-0.000875067
-3.449e-05
0.000583154
6.90363e-06
0.000923184
0.000382403
-0.00159355
-0.0112566
-0.00196791
-0.0112132
-0.00234424
-0.011161
-0.00272291
-0.0111208
-0.00310534
-0.0110821
-0.00349254
-0.0110546
-0.00388607
-0.0110331
-0.00428777
-0.0110244
-0.00469902
-0.0110268
-0.0051114
-0.0110438
-0.0054827
-0.0110541
-0.00569917
-0.010989
-0.00556329
-0.0106509
-0.0048523
-0.00973314
-0.00350503
-0.00787945
-0.00187364
-0.00512078
-0.000627267
-0.00212144
-6.6755e-05
2.26419e-05
6.20139e-06
0.000850228
0.000388604
-0.00157231
-0.010883
-0.00194513
-0.0108404
-0.00231964
-0.0107865
-0.00269608
-0.0107443
-0.00307623
-0.010702
-0.00346145
-0.0106694
-0.00385432
-0.0106402
-0.004257
-0.0106217
-0.00467136
-0.0106124
-0.00509561
-0.0106195
-0.00551227
-0.0106374
-0.00585544
-0.0106458
-0.0059734
-0.010533
-0.00562321
-0.0100833
-0.00458827
-0.00891438
-0.00292226
-0.00678679
-0.00122267
-0.00382103
-0.000163231
-0.0010368
0.00011387
0.000573127
0.000502474
-0.00154976
-0.0105104
-0.00192092
-0.0104693
-0.00229342
-0.010414
-0.0026671
-0.0103707
-0.00304362
-0.0103254
-0.00342369
-0.0102893
-0.00380937
-0.0102546
-0.004203
-0.0102281
-0.00460863
-0.0102068
-0.00503043
-0.0101977
-0.00546798
-0.0101999
-0.00589318
-0.0102206
-0.00621356
-0.0102126
-0.00622329
-0.0100736
-0.00564399
-0.00949368
-0.00427773
-0.00815306
-0.00236126
-0.00573749
-0.000731844
-0.00266621
-5.8413e-05
-0.000100305
0.000444061
-0.00152581
-0.010139
-0.00189516
-0.0100999
-0.00226545
-0.0100437
-0.00263647
-0.00999965
-0.00300996
-0.00995195
-0.00338668
-0.0099126
-0.00376859
-0.00987264
-0.00415728
-0.00983939
-0.00455561
-0.00980845
-0.00496684
-0.00978648
-0.00539709
-0.00976961
-0.00584491
-0.00977278
-0.00627989
-0.0097776
-0.00657319
-0.00978031
-0.00647537
-0.0095915
-0.0056314
-0.00899702
-0.00390692
-0.00746197
-0.00162706
-0.00494608
-9.16155e-05
-0.00163575
0.000352445
-0.00150069
-0.00976876
-0.00186802
-0.00973258
-0.00223564
-0.00967608
-0.00260344
-0.00963185
-0.00297276
-0.00958263
-0.00334418
-0.00954117
-0.00371942
-0.00949741
-0.0041001
-0.00945871
-0.00448881
-0.00941974
-0.00488808
-0.00938721
-0.0053044
-0.00935328
-0.0057425
-0.00933469
-0.00621138
-0.00930871
-0.00666783
-0.00932386
-0.00698618
-0.00927315
-0.00683401
-0.0091492
-0.00585922
-0.00843676
-0.00382398
-0.00698132
-0.00144296
-0.00401677
-0.00109051
-0.00147447
-0.0018393
-0.00220396
-0.00256815
-0.00293353
-0.00330006
-0.00366966
-0.00404327
-0.00442281
-0.0048094
-0.00520861
-0.00562098
-0.0060629
-0.00652488
-0.00700842
-0.00733758
-0.007197
-0.00579233
-0.00317774
-0.00453438
-0.0113782
-0.00493206
-0.0112748
-0.00533783
-0.0111623
-0.00573748
-0.0110291
-0.00614908
-0.0108899
-0.00655272
-0.010735
-0.00696077
-0.0105679
-0.00735387
-0.0103844
-0.00772743
-0.0101839
-0.00806288
-0.00995656
-0.0083444
-0.00970098
-0.00853527
-0.00941272
-0.00860327
-0.00908748
-0.00849771
-0.00871769
-0.00820226
-0.00830199
-0.00761876
-0.00784047
-0.00678092
-0.00734369
-0.00545438
-0.00681205
-0.00352679
-0.00633194
-0.00571533
1.13605e-12
-0.0035073
-0.0110698
-0.00380081
-0.0109813
-0.00408307
-0.01088
-0.00435291
-0.0107593
-0.00461403
-0.0106287
-0.00486184
-0.0104872
-0.00509686
-0.0103329
-0.0053157
-0.0101655
-0.00551617
-0.00998339
-0.00568642
-0.00978631
-0.00581365
-0.00957375
-0.00587968
-0.00934669
-0.0058607
-0.00910646
-0.00572172
-0.00885667
-0.0054237
-0.00860001
-0.00492253
-0.00834164
-0.0041769
-0.00808931
-0.00313877
-0.00785019
-0.00181624
-0.00765447
-0.00753157
7.07654e-13
-0.00288277
-0.0108022
-0.00313767
-0.0107264
-0.00337509
-0.0106426
-0.00359133
-0.0105431
-0.00378114
-0.0104389
-0.00394238
-0.0103259
-0.00407048
-0.0102048
-0.00416089
-0.0100751
-0.00420716
-0.00993711
-0.00420318
-0.0097903
-0.00414196
-0.00963497
-0.00401702
-0.00947164
-0.0038217
-0.00930178
-0.00355048
-0.00912789
-0.00319584
-0.00895465
-0.00274925
-0.00878824
-0.00220323
-0.00863533
-0.00154959
-0.00850383
-0.000799136
-0.00840492
-0.00833071
6.46631e-13
-0.00208048
-0.0106007
-0.00226797
-0.0105389
-0.0024402
-0.0104704
-0.00259566
-0.0103876
-0.00273459
-0.0103
-0.00285459
-0.0102059
-0.00295276
-0.0101066
-0.00302527
-0.0100026
-0.00306782
-0.00989455
-0.00307462
-0.0097835
-0.00303905
-0.00967054
-0.00295363
-0.00955706
-0.00281079
-0.00944462
-0.0026036
-0.00933507
-0.0023278
-0.00923046
-0.00198259
-0.00913344
-0.00157042
-0.0090475
-0.00109698
-0.00897726
-0.000574539
-0.00892737
-0.00890525
5.68624e-13
-0.00167619
-0.0104444
-0.00181653
-0.0103986
-0.00193977
-0.0103471
-0.00204238
-0.010285
-0.0021229
-0.0102195
-0.00217948
-0.0101494
-0.00221041
-0.0100757
-0.00221425
-0.00999878
-0.00218968
-0.00991912
-0.0021359
-0.00983728
-0.00205234
-0.0097541
-0.00193873
-0.00967066
-0.00179485
-0.0095885
-0.00162041
-0.00950951
-0.00141496
-0.00943591
-0.00117846
-0.00936994
-0.00091228
-0.00931368
-0.000620961
-0.00926858
-0.000311987
-0.00923634
-0.00921723
3.6404e-13
-0.00116643
-0.0103244
-0.00127791
-0.0102871
-0.00137842
-0.0102466
-0.00146605
-0.0101974
-0.0015396
-0.0101459
-0.00159752
-0.0100915
-0.00163812
-0.0100351
-0.00165948
-0.00997741
-0.0016595
-0.00991911
-0.0016359
-0.00986088
-0.00158654
-0.00980346
-0.0015096
-0.0097476
-0.00140403
-0.00969407
-0.00126987
-0.00964368
-0.00110847
-0.00959731
-0.000922359
-0.00955605
-0.000714924
-0.00952112
-0.000489529
-0.00949398
-0.000250134
-0.00947573
-0.00946737
3.42007e-13
-0.000922972
-0.0102392
-0.000996391
-0.0102137
-0.00105849
-0.0101845
-0.00110671
-0.0101491
-0.00114074
-0.0101119
-0.00115984
-0.0100724
-0.00116371
-0.0100312
-0.00115227
-0.00998885
-0.00112569
-0.00994569
-0.00108436
-0.00990221
-0.00102879
-0.00985903
-0.000959516
-0.00981687
-0.000877022
-0.00977657
-0.000781684
-0.00973901
-0.000673884
-0.00970511
-0.000554319
-0.00967561
-0.000424331
-0.0096511
-0.000286402
-0.00963191
-0.000143713
-0.00961842
-0.00961108
3.6389e-13
-0.000637844
-0.0101712
-0.00070128
-0.0101503
-0.000757907
-0.0101279
-0.000806426
-0.0101006
-0.000845858
-0.0100725
-0.000875279
-0.0100429
-0.000893737
-0.0100128
-0.000900278
-0.00998231
-0.000893974
-0.00995199
-0.000873999
-0.00992219
-0.000839764
-0.00989327
-0.00079105
-0.00986559
-0.000728134
-0.00983948
-0.00065185
-0.0098153
-0.000563541
-0.00979342
-0.000464861
-0.00977429
-0.000357551
-0.00975841
-0.000243171
-0.00974629
-0.000123339
-0.00973826
-0.00973442
2.7956e-13
-0.000491069
-0.0101261
-0.000528808
-0.0101125
-0.000559824
-0.0100969
-0.000582561
-0.0100779
-0.000597137
-0.0100579
-0.000603335
-0.0100367
-0.000601274
-0.0100148
-0.000591199
-0.00999238
-0.000573481
-0.00996971
-0.000548575
-0.00994709
-0.000516946
-0.0099249
-0.000479016
-0.00990352
-0.000435117
-0.00988338
-0.000385511
-0.0098649
-0.000330471
-0.00984846
-0.000270435
-0.00983433
-0.000206152
-0.0098227
-0.000138777
-0.00981366
-6.96537e-05
-0.00980738
-0.00980407
2.00503e-13
-0.000345684
-0.0100886
-0.000380914
-0.0100773
-0.000412355
-0.0100654
-0.000439236
-0.010051
-0.000460872
-0.0100363
-0.000476696
-0.0100209
-0.000486149
-0.0100054
-0.000488712
-0.00998982
-0.000483933
-0.00997449
-0.000471478
-0.00995955
-0.000451195
-0.00994518
-0.000423176
-0.00993154
-0.000387791
-0.00991876
-0.00034568
-0.00990701
-0.00029768
-0.00989646
-0.000244705
-0.0098873
-0.000187635
-0.00987976
-0.00012725
-0.00987405
-6.43591e-05
-0.00987027
-0.00986843
2.03277e-13
-0.000253943
-0.0100651
-0.000273145
-0.0100581
-0.000288527
-0.0100501
-0.000299231
-0.0100403
-0.00030545
-0.01003
-0.00030718
-0.0100192
-0.00030461
-0.0100079
-0.000297991
-0.00999644
-0.00028763
-0.00998485
-0.000273851
-0.00997333
-0.000256951
-0.00996208
-0.000237171
-0.00995132
-0.000214682
-0.00994125
-0.000189605
-0.00993209
-0.000162071
-0.00992399
-0.000132297
-0.00991708
-0.000100659
-0.0099114
-6.76911e-05
-0.00990702
-3.39789e-05
-0.00990398
-0.00990241
2.19739e-13
-0.000186984
-0.0100446
-0.000206437
-0.0100386
-0.000223904
-0.0100326
-0.000238937
-0.0100253
-0.000251098
-0.0100179
-0.000260023
-0.0100103
-0.000265367
-0.0100026
-0.000266821
-0.00999499
-0.000264131
-0.00998754
-0.00025713
-0.00998033
-0.000245777
-0.00997343
-0.000230177
-0.00996692
-0.000210594
-0.00996084
-0.000187428
-0.00995526
-0.000161164
-0.00995026
-0.000132304
-0.00994594
-0.000101315
-0.00994239
-6.86192e-05
-0.00993971
-3.46612e-05
-0.00993794
-0.00993707
2.28273e-13
-0.000126558
-0.0100324
-0.000136241
-0.0100289
-0.000143784
-0.010025
-0.000148749
-0.0100203
-0.000151299
-0.0100153
-0.000151508
-0.01001
-0.000149538
-0.0100046
-0.000145589
-0.00999894
-0.000139875
-0.00999325
-0.000132602
-0.0099876
-0.000123948
-0.00998209
-0.000114039
-0.00997683
-0.000102948
-0.00997193
-9.072e-05
-0.00996749
-7.73997e-05
-0.00996358
-6.30825e-05
-0.00996025
-4.79413e-05
-0.00995753
-3.22191e-05
-0.00995543
-1.61718e-05
-0.00995399
-0.00995324
1.05865e-13
-0.000100867
-0.0100211
-0.000111651
-0.0100182
-0.000121439
-0.0100153
-0.000129964
-0.0100118
-0.000136964
-0.0100083
-0.000142194
-0.0100048
-0.000145437
-0.0100013
-0.000146497
-0.00999788
-0.000145214
-0.00999453
-0.000141491
-0.00999132
-0.000135309
-0.00998827
-0.00012674
-0.0099854
-0.000115949
-0.00998272
-0.000103173
-0.00998026
-8.8689e-05
-0.00997806
-7.27801e-05
-0.00997616
-5.57056e-05
-0.00997461
-3.77056e-05
-0.00997343
-1.90344e-05
-0.00997266
-0.00997228
1.28865e-13
-5.86809e-05
-0.0100149
-6.35029e-05
-0.0100133
-6.71215e-05
-0.0100116
-6.93423e-05
-0.0100096
-7.02805e-05
-0.0100074
-7.00317e-05
-0.0100051
-6.87201e-05
-0.0100026
-6.64899e-05
-0.0100001
-6.34866e-05
-0.00999754
-5.98414e-05
-0.00999497
-5.56565e-05
-0.00999246
-5.09961e-05
-0.00999006
-4.58876e-05
-0.00998783
-4.03358e-05
-0.00998581
-3.4346e-05
-0.00998405
-2.7949e-05
-0.00998256
-2.12149e-05
-0.00998134
-1.42458e-05
-0.0099804
-7.14761e-06
-0.00997976
-0.00997943
1.80199e-13
-5.34149e-05
-0.0100087
-5.94176e-05
-0.0100073
-6.49473e-05
-0.0100061
-6.9834e-05
-0.0100047
-7.39388e-05
-0.0100033
-7.70884e-05
-0.0100019
-7.9152e-05
-0.0100006
-7.9996e-05
-0.00999926
-7.95186e-05
-0.00999802
-7.76552e-05
-0.00999683
-7.43922e-05
-0.00999572
-6.97721e-05
-0.00999468
-6.38916e-05
-0.00999371
-5.68887e-05
-0.00999282
-4.89233e-05
-0.00999202
-4.01557e-05
-0.00999133
-3.07344e-05
-0.00999076
-2.0799e-05
-0.00999034
-1.04969e-05
-0.00999006
-0.00998992
6.43178e-14
-2.23734e-05
-0.0100057
-2.46576e-05
-0.0100051
-2.62497e-05
-0.0100045
-2.71143e-05
-0.0100038
-2.7312e-05
-0.0100031
-2.69538e-05
-0.0100023
-2.61208e-05
-0.0100014
-2.49233e-05
-0.0100005
-2.34584e-05
-0.00999948
-2.18107e-05
-0.00999848
-2.004e-05
-0.00999749
-1.81778e-05
-0.00999654
-1.62289e-05
-0.00999566
-1.41815e-05
-0.00999486
-1.20213e-05
-0.00999418
-9.74674e-06
-0.0099936
-7.37538e-06
-0.00999313
-4.93997e-06
-0.00999277
-2.47431e-06
-0.00999252
-0.0099924
1.00086e-13
-2.61889e-05
-0.0100023
-2.93879e-05
-0.0100019
-3.24114e-05
-0.0100015
-3.51232e-05
-0.0100011
-3.74872e-05
-0.0100007
-3.93608e-05
-0.0100004
-4.06824e-05
-0.0100001
-4.13525e-05
-0.00999979
-4.13091e-05
-0.00999952
-4.05063e-05
-0.00999928
-3.89325e-05
-0.00999906
-3.66088e-05
-0.00999886
-3.35893e-05
-0.00999867
-2.99514e-05
-0.0099985
-2.57845e-05
-0.00999835
-2.11781e-05
-0.00999821
-1.62154e-05
-0.0099981
-1.09749e-05
-0.00999801
-5.53881e-06
-0.00999796
-0.00999794
1.28537e-13
-2.28334e-06
-0.0100013
-2.98431e-06
-0.0100012
-3.29713e-06
-0.0100012
-3.32286e-06
-0.0100011
-3.03276e-06
-0.010001
-2.58358e-06
-0.0100008
-1.99412e-06
-0.0100007
-1.37198e-06
-0.0100004
-7.70789e-07
-0.0100001
-2.5165e-07
-0.0099998
1.53961e-07
-0.00999947
4.31868e-07
-0.00999914
5.91181e-07
-0.00999883
6.52635e-07
-0.00999856
6.42071e-07
-0.00999833
5.80256e-07
-0.00999815
4.79287e-07
-0.009998
3.4439e-07
-0.00999788
1.80861e-07
-0.0099978
-0.00999775
6.51842e-14
-9.8067e-06
-1.09633e-05
-1.21445e-05
-1.32194e-05
-1.42354e-05
-1.50829e-05
-1.57468e-05
-1.61582e-05
-1.62826e-05
-1.60851e-05
-1.55539e-05
-1.46934e-05
-1.35274e-05
-1.2091e-05
-1.04258e-05
-8.57275e-06
-6.5688e-06
-4.44806e-06
-2.24545e-06
-9.14211e-16
0.00571212
-0.00727577
0.00563667
-0.00729852
0.00554516
-0.00732755
0.00543596
-0.00736032
0.00530738
-0.00739435
0.00515775
-0.00742676
0.00498532
-0.00745469
0.00478818
-0.00747539
0.00456436
-0.00748604
0.0043119
-0.00748361
0.00402886
-0.00746468
0.00371336
-0.00742529
0.00336371
-0.00736084
0.0029786
-0.00726625
0.00255743
-0.00713665
0.00210075
-0.00696957
0.00161081
-0.00676997
0.00109211
-0.00655776
0.000551867
-0.00637194
-0.00626141
4.45928e-12
0.00573495
-0.00718254
0.00563165
-0.00719522
0.00551618
-0.00721209
0.00538653
-0.00723067
0.00524051
-0.00724834
0.0050759
-0.00726215
0.00489055
-0.00726934
0.00468244
-0.00726727
0.00444968
-0.00725328
0.00419056
-0.00722448
0.00390345
-0.00717757
0.00358685
-0.00710869
0.00323946
-0.00701345
0.0028604
-0.00688719
0.00244949
-0.00672573
0.0020075
-0.00652759
0.00153656
-0.00629903
0.0010405
-0.00606169
0.000525431
-0.00585688
-0.00573598
4.06319e-12
0.00579464
-0.00707503
0.00568093
-0.00708152
0.00555794
-0.0070891
0.00542235
-0.00709508
0.00527087
-0.00709685
0.00510071
-0.00709199
0.00490958
-0.00707821
0.00469552
-0.00705321
0.00445677
-0.00701454
0.0041917
-0.00695941
0.00389877
-0.00688463
0.00357661
-0.00678653
0.00322419
-0.00666104
0.00284104
-0.00650404
0.0024275
-0.0063122
0.001985
-0.00608509
0.00151614
-0.00583016
0.00102489
-0.00557045
0.000516963
-0.00534895
-0.00521902
4.06951e-12
0.00590051
-0.00696049
0.00578001
-0.00696102
0.00565055
-0.00695963
0.00550888
-0.00695341
0.00535225
-0.00694022
0.00517836
-0.00691811
0.00498511
-0.00688496
0.0047704
-0.0068385