/*--------------------------------*- C++ -*----------------------------------*\
  =========                 |
  \\      /  F ield         | OpenFOAM: The Open Source CFD Toolbox
   \\    /   O peration     | Website:  https://openfoam.org
    \\  /    A nd           | Version:  7
     \\/     M anipulation  |
\*---------------------------------------------------------------------------*/
FoamFile
{
    version     2.0;
    format      ascii;
    class       volVectorField;
    location    "20";
    object      U;
}
// * * * * * * * * * * * * * * * * * * * * * * * * * * * * * * * * * * * * * //

dimensions      [0 1 -1 0 0 0 0];

internalField   nonuniform List<vector> 
8000
(
(0.866172 -0.0201781 1.87795e-19)
(0.854031 -0.0209452 -4.17735e-19)
(0.85106 -0.0207034 3.181e-19)
(0.841561 -0.0215999 -1.10723e-18)
(0.836386 -0.0216483 1.17928e-18)
(0.827959 -0.0225111 -5.89461e-19)
(0.821477 -0.0228636 -2.00553e-18)
(0.81332 -0.0237258 9.0311e-19)
(0.805936 -0.0243313 1.03764e-18)
(0.797607 -0.0252487 2.27952e-18)
(0.789468 -0.0260659 3.64878e-18)
(0.780704 -0.0270834 3.80781e-18)
(0.771826 -0.0280906 6.94818e-18)
(0.762445 -0.0292416 -5.24722e-18)
(0.75278 -0.0304336 -3.10961e-18)
(0.742637 -0.031745 -1.99497e-18)
(0.732098 -0.0331294 -5.64053e-18)
(0.721057 -0.034628 1.82198e-18)
(0.709532 -0.0362234 -5.21098e-18)
(0.697454 -0.0379399 -5.94858e-19)
(0.684807 -0.0397752 -9.39334e-18)
(0.671536 -0.0417471 -3.92568e-18)
(0.657607 -0.0438618 1.21145e-18)
(0.642965 -0.0461352 -1.43664e-18)
(0.627562 -0.0485791 -2.54495e-18)
(0.61134 -0.0512104 -3.32019e-18)
(0.59424 -0.0540454 -1.89815e-18)
(0.576194 -0.0571035 -6.2388e-18)
(0.557131 -0.060405 2.79443e-19)
(0.536972 -0.0639726 -4.52018e-18)
(0.515631 -0.0678306 -3.73145e-18)
(0.493016 -0.0720049 -3.67537e-18)
(0.469023 -0.0765211 -1.35777e-17)
(0.44354 -0.0814027 5.20435e-18)
(0.416451 -0.0866746 7.24847e-18)
(0.387629 -0.0923574 -4.10904e-18)
(0.356939 -0.098466 -5.81725e-18)
(0.324241 -0.105005 -1.50698e-17)
(0.289391 -0.111964 -4.49454e-18)
(0.252247 -0.119307 -1.09363e-17)
(0.21268 -0.126967 -1.50619e-18)
(0.170578 -0.134836 -1.57852e-18)
(0.125879 -0.142756 -2.57152e-18)
(0.0785053 -0.150477 2.46042e-19)
(0.0286357 -0.157887 1.35308e-18)
(-0.0234767 -0.164309 1.25902e-18)
(-0.077643 -0.169516 -1.39805e-17)
(-0.133348 -0.173042 -3.7049e-19)
(-0.189896 -0.174444 5.70875e-18)
(-0.246477 -0.173365 8.16999e-18)
(-0.302143 -0.169544 1.29078e-17)
(-0.355885 -0.162887 -1.86432e-17)
(-0.406707 -0.153467 -8.46582e-18)
(-0.453693 -0.141536 -3.90472e-17)
(-0.496077 -0.127476 -2.28566e-17)
(-0.533273 -0.11176 2.74554e-18)
(-0.564897 -0.094893 -1.88008e-17)
(-0.590754 -0.0773636 6.88209e-18)
(-0.610813 -0.0596056 -1.15448e-17)
(-0.625165 -0.0419821 -2.41557e-18)
(-0.633996 -0.0247798 1.03782e-16)
(-0.637586 -0.00823966 2.12428e-17)
(-0.636187 0.00744018 1.1834e-16)
(-0.630095 0.0222222 2.87364e-17)
(-0.619716 0.0359607 -3.40025e-18)
(-0.605433 0.0485613 4.79876e-17)
(-0.587588 0.0599463 1.74352e-17)
(-0.566594 0.0700576 1.09036e-16)
(-0.542866 0.0788531 3.87681e-17)
(-0.516829 0.0862941 7.35867e-18)
(-0.488914 0.0923606 8.22939e-17)
(-0.459547 0.0970365 4.6177e-17)
(-0.429151 0.100309 1.13378e-16)
(-0.398146 0.102173 2.39808e-17)
(-0.36695 0.102624 3.54183e-17)
(-0.33598 0.101665 -1.23664e-17)
(-0.305645 0.0993129 -2.15346e-17)
(-0.276347 0.0956049 3.90574e-17)
(-0.248481 0.0906104 5.34128e-17)
(-0.222417 0.0844443 4.4286e-18)
(-0.198488 0.077275 3.36811e-17)
(-0.176972 0.0693279 1.44873e-17)
(-0.158072 0.0608858 4.40403e-17)
(-0.14189 0.0522817 -2.48082e-17)
(-0.128403 0.0438855 2.74976e-17)
(-0.117444 0.036087 2.78099e-17)
(-0.10869 0.0292701 3.97172e-17)
(-0.101686 0.0237859 -1.53572e-17)
(-0.09589 0.0199094 2.59396e-17)
(-0.0907531 0.0178627 -2.86249e-17)
(-0.0857756 0.0177353 -8.10992e-18)
(-0.0806507 0.0195548 -8.13377e-18)
(-0.0751041 0.0232797 -1.24429e-18)
(-0.06952 0.0289755 -5.76065e-19)
(-0.0633042 0.0366407 -6.22668e-20)
(-0.059416 0.0460501 1.214e-17)
(-0.0531497 0.0582884 7.65175e-19)
(-0.0563167 0.0672303 -6.01355e-17)
(-0.0470481 0.0812569 -1.57595e-17)
(-0.036806 0.0498935 -8.65036e-17)
(0.862155 -0.0181796 3.66519e-19)
(0.84981 -0.0188459 -6.11404e-20)
(0.846828 -0.0186554 1.85337e-19)
(0.837146 -0.0194479 1.44853e-20)
(0.83192 -0.0194994 1.4035e-18)
(0.823339 -0.020272 1.2852e-18)
(0.816777 -0.0205899 8.67102e-19)
(0.808482 -0.0213649 7.98486e-19)
(0.800998 -0.0219082 9.93307e-19)
(0.792539 -0.022733 1.72831e-18)
(0.784286 -0.0234661 2.8713e-18)
(0.775393 -0.0243803 5.99552e-18)
(0.766392 -0.0252841 6.16239e-18)
(0.756879 -0.0263177 -5.21676e-18)
(0.747083 -0.0273875 -6.84741e-18)
(0.736802 -0.0285649 -2.19219e-18)
(0.726122 -0.0298075 -1.51183e-18)
(0.714936 -0.0311528 -7.44403e-19)
(0.70326 -0.0325848 -9.1313e-18)
(0.691025 -0.0341255 -1.88514e-18)
(0.678216 -0.0357727 -8.54425e-18)
(0.664776 -0.0375423 -1.28745e-17)
(0.65067 -0.0394399 -3.64876e-18)
(0.635842 -0.0414799 4.55789e-18)
(0.620246 -0.0436726 -1.97109e-18)
(0.603821 -0.0460335 -2.97326e-18)
(0.586506 -0.0485769 1.45397e-18)
(0.568233 -0.0513205 -1.15011e-17)
(0.548929 -0.0542824 5.68941e-18)
(0.528513 -0.0574833 -4.39027e-18)
(0.5069 -0.060945 -4.0187e-18)
(0.483992 -0.064691 1.97196e-18)
(0.459688 -0.0687435 -4.38767e-18)
(0.433871 -0.0731211 1.26252e-17)
(0.406424 -0.0778467 -1.04742e-18)
(0.377218 -0.0829387 -1.71488e-18)
(0.346116 -0.0884097 -4.28516e-18)
(0.312976 -0.0942631 -9.07185e-18)
(0.277653 -0.100488 -5.45262e-18)
(0.240008 -0.107053 -5.86839e-18)
(0.19991 -0.113898 -9.41158e-19)
(0.15725 -0.120925 -1.2953e-18)
(0.111974 -0.127996 -1.80684e-18)
(0.063979 -0.13489 -5.58591e-19)
(0.0134883 -0.141517 6.33361e-19)
(-0.0392465 -0.147213 4.67055e-19)
(-0.0940738 -0.151889 -7.40959e-18)
(-0.150464 -0.155075 -4.41729e-19)
(-0.207745 -0.156396 3.47532e-18)
(-0.26513 -0.155532 5.12761e-18)
(-0.321691 -0.152252 6.30595e-18)
(-0.376442 -0.146464 5.46495e-18)
(-0.428399 -0.138225 -1.45207e-17)
(-0.476645 -0.127742 -1.64843e-17)
(-0.520398 -0.115344 -3.24453e-17)
(-0.559046 -0.101439 -1.94171e-18)
(-0.592166 -0.0864688 -7.26627e-17)
(-0.61952 -0.0708655 -7.57586e-18)
(-0.641033 -0.0550182 -5.56518e-17)
(-0.65676 -0.0392572 -8.98891e-18)
(-0.666859 -0.0238479 4.13793e-17)
(-0.671565 -0.00900893 3.0281e-18)
(-0.671153 0.00515532 5.81145e-17)
(-0.665922 0.0185198 -1.19033e-17)
(-0.656217 0.0309026 -2.97706e-17)
(-0.642433 0.0422938 8.71453e-17)
(-0.624932 0.0526152 2.15738e-17)
(-0.604121 0.0618122 4.64226e-17)
(-0.580418 0.0698455 2.51554e-17)
(-0.554249 0.0766792 6.12294e-18)
(-0.526048 0.0822925 2.77499e-17)
(-0.496247 0.0866686 7.28527e-17)
(-0.46528 0.0897947 8.58858e-17)
(-0.433575 0.0916615 1.28308e-17)
(-0.401564 0.0922632 5.84172e-17)
(-0.369675 0.0916003 -3.6082e-17)
(-0.338336 0.089686 -3.94019e-17)
(-0.307963 0.086547 8.14384e-17)
(-0.278967 0.0822412 9.4432e-18)
(-0.251732 0.0768662 -9.99618e-19)
(-0.226605 0.070567 -1.0919e-17)
(-0.203878 0.0635395 1.93345e-17)
(-0.18377 0.0560309 1.25985e-17)
(-0.166401 0.0483328 -5.97572e-17)
(-0.151777 0.0407692 -1.35628e-17)
(-0.13977 0.0336824 -2.05356e-17)
(-0.130108 0.0274127 7.88002e-18)
(-0.122385 0.0222801 -3.95891e-17)
(-0.116086 0.0185511 -1.34812e-17)
(-0.110667 0.0164746 -6.49784e-17)
(-0.105585 0.0161487 -1.08977e-17)
(-0.100444 0.017651 -1.51217e-17)
(-0.0948011 0.0210091 -3.39691e-18)
(-0.0888995 0.0263211 -5.9996e-21)
(-0.0818491 0.0337786 4.97145e-19)
(-0.0762673 0.0429549 2.75848e-17)
(-0.0673253 0.0555838 2.11516e-18)
(-0.0647593 0.0643678 -4.88469e-17)
(-0.0497281 0.0775241 -1.64515e-17)
(-0.0251203 0.0454568 -4.10823e-17)
(0.858305 -0.0161542 2.76588e-19)
(0.845764 -0.0167048 3.24514e-19)
(0.842763 -0.0165813 1.24743e-19)
(0.83291 -0.0172549 4.36413e-19)
(0.827627 -0.0173207 2.04526e-18)
(0.8189 -0.0179934 -5.29527e-19)
(0.812253 -0.0182828 -1.41428e-18)
(0.803826 -0.0189651 1.12725e-18)
(0.796239 -0.0194491 1.09643e-18)
(0.787653 -0.020178 1.06385e-18)
(0.779286 -0.0208281 1.63695e-18)
(0.770264 -0.0216371 3.44134e-19)
(0.76114 -0.0224376 3.69491e-18)
(0.751495 -0.0233525 -3.13294e-18)
(0.741566 -0.0242996 -3.19653e-18)
(0.731147 -0.0253419 -5.37818e-18)
(0.720326 -0.026442 1.53681e-18)
(0.708993 -0.0276329 -5.23858e-19)
(0.697166 -0.0289006 -3.347e-18)
(0.684774 -0.0302645 -2.43876e-18)
(0.671802 -0.0317226 -8.74715e-18)
(0.658192 -0.033289 -1.42735e-17)
(0.643909 -0.0349686 2.23977e-18)
(0.628897 -0.0367741 -6.18518e-18)
(0.613107 -0.0387146 -3.78478e-19)
(0.596479 -0.0408037 -6.15566e-18)
(0.578951 -0.0430543 1.09604e-17)
(0.560453 -0.0454816 -3.90604e-18)
(0.540912 -0.0481018 1.57429e-17)
(0.520246 -0.0509329 -4.06474e-18)
(0.498366 -0.0539939 -9.46993e-18)
(0.475176 -0.0573052 1.10438e-17)
(0.450571 -0.060887 -5.2729e-19)
(0.424436 -0.0647568 4.61314e-18)
(0.396648 -0.068934 -1.0076e-17)
(0.367079 -0.0734345 1.04691e-18)
(0.335591 -0.0782692 -2.0906e-18)
(0.30204 -0.083441 -7.09321e-18)
(0.266282 -0.0889401 -9.86481e-18)
(0.228178 -0.0947388 -3.09299e-18)
(0.187599 -0.100785 -5.98571e-19)
(0.144438 -0.106993 -1.36053e-18)
(0.0986493 -0.113242 -1.2489e-18)
(0.0501081 -0.119361 -1.94499e-19)
(-0.000920473 -0.125191 9.20131e-20)
(-0.0541964 -0.13025 -8.36836e-20)
(-0.109599 -0.134435 -4.03152e-18)
(-0.166576 -0.137325 -2.58383e-19)
(-0.224486 -0.138598 1.84548e-18)
(-0.282559 -0.137974 5.65074e-18)
(-0.33989 -0.135245 2.10297e-18)
(-0.395514 -0.130321 4.2711e-17)
(-0.44846 -0.12324 -4.2175e-17)
(-0.497813 -0.114169 5.4778e-18)
(-0.542779 -0.103381 -7.13003e-17)
(-0.582724 -0.0912239 -1.33735e-17)
(-0.61719 -0.0780779 -2.75342e-17)
(-0.645903 -0.0643207 -1.03215e-17)
(-0.668747 -0.0502968 4.3213e-17)
(-0.685743 -0.0363024 1.91636e-17)
(-0.697018 -0.0225774 2.75333e-18)
(-0.702787 -0.00931857 -1.65557e-17)
(-0.703301 0.00330957 3.74492e-17)
(-0.698865 0.0152961 -9.17643e-17)
(-0.689809 0.026435 -4.00707e-17)
(-0.676512 0.0366982 1.9112e-17)
(-0.659348 0.046017 1.70062e-17)
(-0.638722 0.0543418 2.53163e-17)
(-0.615052 0.0616352 1.75846e-17)
(-0.588765 0.0678636 6.24855e-18)
(-0.560298 0.0730059 1.38352e-17)
(-0.530091 0.0770453 1.45848e-17)
(-0.498583 0.0799701 -2.30145e-17)
(-0.466212 0.0817708 -6.72853e-18)
(-0.433422 0.0824404 1.05333e-16)
(-0.400654 0.0819776 6.90495e-18)
(-0.368348 0.0803926 3.31197e-17)
(-0.336938 0.0777096 8.0587e-17)
(-0.306847 0.0739786 -3.32482e-17)
(-0.278476 0.0692842 -7.74724e-18)
(-0.252187 0.0637527 -5.15028e-17)
(-0.228289 0.0575553 3.74695e-17)
(-0.207013 0.050908 -7.97051e-18)
(-0.1885 0.0440661 -5.57917e-17)
(-0.172776 0.0373132 -4.55502e-17)
(-0.159743 0.0309486 -7.53147e-17)
(-0.149164 0.0252712 -1.0751e-17)
(-0.140675 0.020566 -2.01433e-17)
(-0.133783 0.0170811 -4.9192e-17)
(-0.127953 0.0150275 -7.02549e-17)
(-0.122608 0.0145577 -1.14858e-17)
(-0.117286 0.0157706 -2.86424e-17)
(-0.111395 0.0187398 -6.03367e-18)
(-0.105039 0.0235699 -3.72724e-19)
(-0.0970488 0.0305827 1.33589e-18)
(-0.0896767 0.0392506 5.72144e-17)
(-0.0780654 0.051596 5.11674e-18)
(-0.0701705 0.0599969 -7.37133e-17)
(-0.050536 0.0714435 -1.63992e-17)
(-0.0194522 0.0418694 -3.28269e-17)
(0.8547 -0.0140889 3.17193e-19)
(0.841975 -0.0145423 1.01607e-18)
(0.838947 -0.0144634 -4.76993e-21)
(0.828939 -0.0150302 9.33029e-20)
(0.823595 -0.0151007 4.82548e-19)
(0.814732 -0.0156778 -1.29116e-18)
(0.808001 -0.0159342 9.96205e-20)
(0.799448 -0.0165246 1.11132e-18)
(0.79176 -0.0169469 1.71963e-18)
(0.783051 -0.0175796 7.87389e-19)
(0.774572 -0.018145 1.66597e-18)
(0.765426 -0.0188477 3.203e-18)
(0.75618 -0.0195434 5.42992e-18)
(0.746406 -0.0203383 -3.73469e-19)
(0.736348 -0.0211613 -8.00087e-20)
(0.725794 -0.0220669 -7.36504e-19)
(0.714835 -0.0230228 4.7123e-18)
(0.703357 -0.0240577 1.6081e-18)
(0.691382 -0.0251593 1.66923e-18)
(0.678836 -0.0263446 -1.65891e-18)
(0.665704 -0.0276117 -9.10002e-18)
(0.651927 -0.028973 -1.08592e-17)
(0.63747 -0.0304327 9.39153e-18)
(0.622277 -0.0320017 -1.10245e-18)
(0.606298 -0.0336882 2.39118e-18)
(0.589471 -0.0355039 3.41426e-18)
(0.571735 -0.0374599 7.5803e-18)
(0.553019 -0.0395696 -1.8042e-18)
(0.533248 -0.0418471 1.46117e-17)
(0.512339 -0.0443081 1.71619e-19)
(0.490203 -0.0469691 -2.23216e-18)
(0.466741 -0.0498475 2.80666e-18)
(0.441849 -0.0529611 4.20648e-18)
(0.415409 -0.0563262 1.413e-18)
(0.3873 -0.0599583 -3.09687e-18)
(0.35739 -0.0638712 5.37724e-18)
(0.325541 -0.0680741 9.83104e-19)
(0.29161 -0.0725692 -6.87165e-18)
(0.255452 -0.0773482 -1.84828e-18)
(0.21693 -0.0823871 -1.91371e-18)
(0.175916 -0.0876408 -6.21141e-19)
(0.132306 -0.0930366 -1.65974e-18)
(0.0860583 -0.0984708 -1.10619e-18)
(0.0370502 -0.103826 -2.10335e-19)
(-0.0144449 -0.108838 -7.1148e-19)
(-0.0681973 -0.113282 -1.6788e-19)
(-0.124089 -0.11696 -2.88324e-18)
(-0.181565 -0.119529 6.43171e-19)
(-0.240006 -0.120718 1.55816e-18)
(-0.29866 -0.120282 1.06484e-17)
(-0.356643 -0.118038 2.51334e-18)
(-0.413011 -0.113904 1.99349e-17)
(-0.466804 -0.107902 -1.32976e-17)
(-0.517114 -0.100166 4.3459e-17)
(-0.563139 -0.0909213 -4.17382e-17)
(-0.604225 -0.0804599 -1.21181e-17)
(-0.639887 -0.0691061 9.57076e-18)
(-0.669814 -0.0571846 4.26177e-18)
(-0.693859 -0.0449956 1.42463e-17)
(-0.712006 -0.0327993 4.01211e-17)
(-0.724357 -0.0208102 -5.62032e-17)
(-0.731101 -0.00920437 -3.87128e-17)
(-0.732466 0.00187664 2.00229e-17)
(-0.72876 0.0124037 -7.29551e-17)
(-0.720305 0.0222077 -3.22671e-17)
(-0.707462 0.0312555 -3.399e-18)
(-0.69061 0.0394877 1.66672e-17)
(-0.670151 0.0468593 2.27902e-17)
(-0.646504 0.0533363 1.56218e-17)
(-0.620099 0.058888 7.29939e-18)
(-0.591376 0.0634943 9.7636e-18)
(-0.560779 0.0671388 -2.35884e-17)
(-0.528754 0.0698106 3.01865e-18)
(-0.495751 0.0715012 -2.43261e-18)
(-0.462221 0.0722022 1.01324e-16)
(-0.42862 0.071911 1.24612e-17)
(-0.395399 0.0706352 1.21151e-17)
(-0.363006 0.0683945 3.06669e-17)
(-0.33188 0.0652305 -1.91237e-17)
(-0.302434 0.0612144 -1.26969e-17)
(-0.275048 0.0564533 -3.40104e-17)
(-0.250043 0.0510937 8.77533e-18)
(-0.227669 0.0453207 -3.69148e-17)
(-0.20808 0.0393544 -1.46688e-17)
(-0.191323 0.0334392 -2.04741e-17)
(-0.177318 0.0278338 -9.54602e-17)
(-0.165858 0.0227972 -2.0372e-17)
(-0.156605 0.018579 -1.18123e-17)
(-0.149093 0.0154035 -3.89427e-17)
(-0.142789 0.0134494 -4.00204e-17)
(-0.137091 0.0128905 -4.26915e-18)
(-0.131493 0.0138385 -6.12539e-17)
(-0.125274 0.0163996 -7.71972e-18)
(-0.118408 0.020674 6.73824e-19)
(-0.109486 0.0270765 8.46638e-19)
(-0.100391 0.0349931 5.05818e-17)
(-0.0863234 0.0465617 6.53489e-18)
(-0.0737588 0.0543806 -7.0488e-17)
(-0.0504187 0.0640475 -1.48835e-17)
(-0.0165477 0.0382626 -5.03483e-17)
(0.851417 -0.0119874 1.29303e-19)
(0.838527 -0.0123577 1.20929e-18)
(0.835467 -0.0123075 2.58216e-19)
(0.825321 -0.0127765 -3.97463e-19)
(0.819916 -0.0128448 -4.16571e-20)
(0.810929 -0.0133293 -3.02914e-18)
(0.804116 -0.01355 7.36804e-19)
(0.795447 -0.0140491 1.25179e-18)
(0.787664 -0.0144083 3.56545e-18)
(0.778839 -0.0149444 6.46565e-19)
(0.770254 -0.0154242 1.60315e-18)
(0.760991 -0.01602 6.26169e-18)
(0.751631 -0.01661 1.43615e-18)
(0.741735 -0.017284 4.33964e-18)
(0.731554 -0.0179819 3.68799e-18)
(0.720871 -0.0187499 1.15563e-18)
(0.70978 -0.0195605 1.05129e-17)
(0.698166 -0.0204381 5.52681e-18)
(0.68605 -0.0213723 9.30992e-18)
(0.673356 -0.0223775 2.23037e-18)
(0.660071 -0.0234521 -1.12294e-17)
(0.646136 -0.0246066 -2.18661e-17)
(0.631514 -0.0258445 2.1856e-17)
(0.616148 -0.0271752 5.05071e-18)
(0.599988 -0.0286055 5.21692e-18)
(0.582973 -0.0301455 1.42533e-17)
(0.565039 -0.0318045 1.00315e-17)
(0.546116 -0.0335941 -5.33664e-18)
(0.526127 -0.0355262 2.3836e-17)
(0.504988 -0.0376142 9.20985e-18)
(0.482609 -0.0398724 3.71403e-18)
(0.458892 -0.0423158 -7.1351e-18)
(0.433731 -0.0449593 1.29239e-17)
(0.407008 -0.0478166 3.27798e-19)
(0.3786 -0.0508998 6.07923e-19)
(0.348375 -0.0542207 1.41858e-17)
(0.316195 -0.0577866 8.26832e-18)
(0.281917 -0.0615995 -1.10246e-17)
(0.245397 -0.0656525 6.96189e-18)
(0.206497 -0.0699253 -1.46521e-18)
(0.165096 -0.0743801 -3.54924e-19)
(0.121088 -0.0789564 -2.96975e-18)
(0.0744335 -0.0835658 -1.34419e-18)
(0.0250298 -0.0881299 -4.84806e-19)
(-0.0268672 -0.0923496 -2.89163e-18)
(-0.081036 -0.0961513 -4.87757e-19)
(-0.137339 -0.0993009 -3.50014e-18)
(-0.195236 -0.101525 4.77741e-18)
(-0.254124 -0.102599 1.76842e-18)
(-0.313265 -0.102313 2.86831e-17)
(-0.371796 -0.100512 8.2528e-18)
(-0.428791 -0.097121 5.45912e-19)
(-0.483304 -0.0921516 2.2089e-17)
(-0.534432 -0.0857084 1.33607e-16)
(-0.581368 -0.0779737 -5.49939e-17)
(-0.623441 -0.0691865 -4.85823e-18)
(-0.660145 -0.0596159 7.90382e-17)
(-0.691138 -0.0495345 2.53531e-17)
(-0.716241 -0.0391968 3.53777e-18)
(-0.735408 -0.0288254 7.22763e-17)
(-0.748716 -0.0186058 -1.95294e-16)
(-0.756331 -0.0086905 -5.78168e-17)
(-0.758458 0.000819722 1.2502e-17)
(-0.755401 0.00981415 -1.20073e-16)
(-0.747479 0.0182294 -1.63124e-17)
(-0.735038 0.0260122 -4.4082e-18)
(-0.718458 0.0331073 4.03167e-17)
(-0.698137 0.0394748 2.97597e-17)
(-0.674496 0.0450837 1.57055e-17)
(-0.647966 0.0499069 1.27458e-17)
(-0.618991 0.0539257 2.42411e-18)
(-0.58802 0.0571253 5.966e-17)
(-0.555505 0.0594965 3.05881e-17)
(-0.521906 0.0610298 1.46808e-17)
(-0.487684 0.0617173 5.36144e-17)
(-0.453305 0.061556 -5.53308e-18)
(-0.419232 0.0605514 3.19509e-18)
(-0.385928 0.0587195 5.86509e-18)
(-0.353843 0.0560945 -2.96938e-17)
(-0.323405 0.0527351 -1.9293e-17)
(-0.295006 0.0487304 -4.03048e-17)
(-0.268984 0.0442025 -3.95093e-18)
(-0.245603 0.0393067 -1.23055e-17)
(-0.225031 0.034228 1.66058e-17)
(-0.207329 0.0291726 -6.88837e-18)
(-0.192438 0.0243591 -1.00518e-16)
(-0.180165 0.0200067 -2.54929e-17)
(-0.170196 0.0163275 -9.49172e-18)
(-0.162084 0.0135164 -5.1758e-17)
(-0.155299 0.0117339 -3.01268e-17)
(-0.14922 0.0111332 7.308e-18)
(-0.143309 0.0118404 -5.96936e-17)
(-0.136738 0.013977 -6.24034e-18)
(-0.129371 0.0176297 3.84634e-18)
(-0.119598 0.0232671 7.20796e-17)
(-0.10895 0.0302273 7.52551e-17)
(-0.0927371 0.0406234 8.42028e-18)
(-0.0762307 0.0476977 -4.47092e-17)
(-0.0498519 0.0557643 -1.18334e-17)
(-0.0148959 0.0342566 -3.25343e-17)
(0.848534 -0.00985462 1.54516e-19)
(0.8355 -0.0101496 7.99399e-19)
(0.832407 -0.0101189 -1.06864e-18)
(0.822141 -0.0104953 -1.01275e-18)
(0.816678 -0.0105572 -3.18719e-18)
(0.807583 -0.0109506 -2.65027e-18)
(0.800695 -0.0111338 2.5136e-19)
(0.791922 -0.0115416 5.56255e-19)
(0.784052 -0.0118368 7.32015e-19)
(0.775124 -0.0122758 1.35723e-18)
(0.766442 -0.0126692 -2.63826e-19)
(0.757073 -0.0131573 3.76729e-18)
(0.747608 -0.0136409 -1.79036e-18)
(0.737602 -0.0141932 -7.56941e-19)
(0.727309 -0.0147651 -1.2596e-18)
(0.716508 -0.0153945 1.14328e-19)
(0.705298 -0.0160588 7.56713e-18)
(0.693558 -0.016778 -3.326e-18)
(0.681312 -0.0175436 9.31348e-18)
(0.668485 -0.0183675 -1.34948e-18)
(0.65506 -0.0192482 -1.12118e-17)
(0.640979 -0.0201944 -2.52341e-17)
(0.626205 -0.021209 2.42397e-17)
(0.610681 -0.0222997 -2.9368e-18)
(0.594357 -0.0234721 6.87249e-18)
(0.577169 -0.0247344 1.10468e-17)
(0.559054 -0.0260943 2.72143e-18)
(0.53994 -0.0275615 3.64441e-18)
(0.519752 -0.0291457 2.24713e-17)
(0.498403 -0.0308581 4.33474e-18)
(0.475804 -0.0327105 -8.37194e-18)
(0.451855 -0.0347156 -1.62777e-18)
(0.426449 -0.0368859 4.75103e-18)
(0.39947 -0.0392322 9.90574e-19)
(0.370794 -0.0417632 1.22935e-18)
(0.340288 -0.0444884 7.7207e-18)
(0.307812 -0.0474138 3.77836e-18)
(0.273226 -0.0505413 -3.10878e-18)
(0.236386 -0.0538651 1.26092e-18)
(0.197156 -0.057369 -1.56013e-18)
(0.155416 -0.0610224 -6.86594e-20)
(0.111064 -0.064777 -6.15401e-18)
(0.0640584 -0.0685589 -2.34153e-18)
(0.0143199 -0.0723129 -6.94081e-19)
(-0.0379173 -0.0757696 -1.21437e-18)
(-0.0924393 -0.0789096 -5.69429e-19)
(-0.149086 -0.0815206 -7.8881e-18)
(-0.207335 -0.083386 1.38196e-17)
(-0.266593 -0.0843221 5.66824e-18)
(-0.326139 -0.0841574 1.23975e-17)
(-0.385126 -0.0827637 1.03228e-17)
(-0.442644 -0.080075 -2.74191e-17)
(-0.49776 -0.0760955 5.61993e-18)
(-0.549575 -0.0709038 8.42441e-17)
(-0.59728 -0.0646422 -3.5176e-17)
(-0.640193 -0.0575007 5.29538e-17)
(-0.677785 -0.0496954 6.80803e-17)
(-0.709692 -0.0414475 3.73813e-17)
(-0.735704 -0.0329662 -9.3103e-20)
(-0.755752 -0.0244354 9.60663e-17)
(-0.769886 -0.0160106 -1.65747e-16)
(-0.778247 -0.00781937 -1.71921e-17)
(-0.781042 6.63717e-05 4.68257e-18)
(-0.77855 0.00750524 -7.52043e-17)
(-0.771074 0.014492 4.10036e-17)
(-0.75897 0.0209623 1.48079e-17)
(-0.74261 0.026871 1.02819e-16)
(-0.72239 0.0321841 3.82361e-17)
(-0.698732 0.0368748 1.18395e-17)
(-0.672068 0.0409193 2.43942e-17)
(-0.642845 0.0443015 9.64247e-18)
(-0.611517 0.0470097 3.36835e-17)
(-0.578544 0.0490344 5.06521e-17)
(-0.544393 0.0503668 3.65399e-17)
(-0.509535 0.0510002 4.55849e-17)
(-0.474445 0.0509315 -4.02601e-17)
(-0.4396 0.0501648 -2.78099e-18)
(-0.405471 0.0487126 -1.40949e-17)
(-0.372522 0.046602 -6.10896e-17)
(-0.341193 0.0438803 -3.19864e-17)
(-0.31189 0.040619 -6.48719e-17)
(-0.284962 0.0369167 -1.03238e-17)
(-0.260686 0.0328996 1.56792e-18)
(-0.239246 0.0287183 -1.85424e-17)
(-0.220714 0.0245414 -5.76536e-18)
(-0.205043 0.0205475 -9.49081e-17)
(-0.192055 0.0169165 -2.6972e-17)
(-0.181452 0.0138231 -7.76278e-18)
(-0.172798 0.0114289 -2.731e-17)
(-0.165571 0.00987453 -3.20368e-17)
(-0.15913 0.00927829 3.18691e-17)
(-0.152914 0.00977435 -2.58601e-17)
(-0.146016 0.0114834 1.08563e-18)
(-0.1382 0.0144711 8.19088e-18)
(-0.127702 0.0192149 1.10982e-16)
(-0.115735 0.02506 6.60824e-17)
(-0.0977281 0.0339714 7.34374e-18)
(-0.0779996 0.0401278 -5.16576e-17)
(-0.049082 0.046786 -1.00992e-17)
(-0.0137934 0.0297372 -4.28247e-17)
(0.846124 -0.00769522 -1.09332e-19)
(0.832969 -0.00791954 1.92827e-19)
(0.829845 -0.0079017 -2.35722e-18)
(0.819481 -0.00818963 -1.0218e-18)
(0.813965 -0.00824124 -3.47938e-18)
(0.80478 -0.00854511 -4.82816e-19)
(0.797826 -0.00868906 -1.21686e-18)
(0.788966 -0.0090056 -1.60543e-19)
(0.78102 -0.00923572 -2.29304e-18)
(0.772004 -0.00957712 3.53017e-18)
(0.763239 -0.00988338 -3.81835e-18)
(0.753779 -0.0102632 4.35838e-18)
(0.744225 -0.0106395 -5.03982e-18)
(0.734123 -0.0110694 -6.57057e-18)
(0.723733 -0.0115145 -7.78657e-18)
(0.712831 -0.0120044 -5.37594e-18)
(0.701517 -0.0125214 -2.94225e-18)
(0.689669 -0.0130813 -1.90946e-18)
(0.677311 -0.0136773 -1.54883e-19)
(0.664367 -0.0143186 1.94559e-18)
(0.650821 -0.0150043 -8.44849e-18)
(0.636614 -0.015741 -2.32911e-17)
(0.621709 -0.0165309 1.90095e-17)
(0.606048 -0.0173802 -1.03127e-17)
(0.58958 -0.0182931 8.37283e-18)
(0.572242 -0.0192762 1.59224e-17)
(0.55397 -0.0203355 -2.76304e-18)
(0.534692 -0.0214784 8.47656e-18)
(0.51433 -0.0227128 1.21781e-17)
(0.4928 -0.0240475 9.80974e-18)
(0.47001 -0.025492 -1.00333e-18)
(0.44586 -0.0270566 2.73848e-19)
(0.420244 -0.0287514 -1.82599e-18)
(0.393045 -0.0305843 2.26577e-18)
(0.364139 -0.0325605 9.49709e-19)
(0.333392 -0.0346878 4.75003e-18)
(0.300666 -0.0369709 2.93476e-18)
(0.265819 -0.0394114 3.9756e-18)
(0.228709 -0.0420049 -4.06574e-18)
(0.189202 -0.044739 -2.73338e-18)
(0.147179 -0.0475903 1.23934e-18)
(0.102542 -0.050522 -2.71744e-18)
(0.0552468 -0.0534764 -4.48547e-18)
(0.0052345 -0.0564104 -3.1975e-19)
(-0.0472809 -0.0591098 -2.86278e-19)
(-0.102091 -0.0615763 -5.90684e-19)
(-0.159017 -0.0636346 -2.16619e-17)
(-0.217551 -0.06512 2.32248e-18)
(-0.277112 -0.0658898 1.35963e-17)
(-0.336987 -0.06581 -2.68258e-19)
(-0.396347 -0.0647794 1.60771e-17)
(-0.454294 -0.0627442 -9.07026e-17)
(-0.509905 -0.0597038 1.99353e-17)
(-0.562288 -0.055715 7.38722e-17)
(-0.610629 -0.0508843 -6.42512e-17)
(-0.654238 -0.045356 4.60637e-17)
(-0.692568 -0.0392962 9.43081e-17)
(-0.725233 -0.0328761 4.14885e-17)
(-0.752003 -0.0262589 1.31017e-17)
(-0.772783 -0.0195893 1.27965e-16)
(-0.787604 -0.0129904 -1.27819e-16)
(-0.796586 -0.00656321 -8.38468e-17)
(-0.799927 -0.000362782 -1.58032e-17)
(-0.797894 0.00546713 -7.19378e-17)
(-0.790782 0.0109737 -1.84204e-17)
(-0.778943 0.0160788 5.85833e-17)
(-0.762746 0.0207459 4.87011e-17)
(-0.742588 0.0249493 3.00441e-17)
(-0.718888 0.0286674 7.24743e-19)
(-0.692082 0.0318816 5.04992e-17)
(-0.662621 0.0345792 1.3867e-17)
(-0.630961 0.0367501 4.26947e-17)
(-0.597572 0.0383856 9.49035e-17)
(-0.562926 0.0394785 6.89656e-17)
(-0.527503 0.0400232 5.03687e-17)
(-0.491787 0.0400168 -4.85754e-18)
(-0.456264 0.0394618 3.26867e-18)
(-0.421417 0.0383677 -4.42022e-17)
(-0.387719 0.0367546 -3.29598e-17)
(-0.355623 0.0346585 -5.21135e-17)
(-0.325544 0.0321339 -1.21413e-16)
(-0.297844 0.0292567 -9.05269e-18)
(-0.272811 0.0261242 1.91979e-17)
(-0.250638 0.022853 1.46423e-17)
(-0.23141 0.0195741 -6.33398e-18)
(-0.215089 0.0164267 -8.25884e-17)
(-0.201507 0.0135514 -2.7198e-17)
(-0.190375 0.0110845 -7.88921e-18)
(-0.181268 0.00915331 -1.96713e-17)
(-0.17367 0.00787212 -5.09968e-17)
(-0.166921 0.0073296 7.85439e-18)
(-0.160444 0.00764714 -1.77757e-17)
(-0.153273 0.0089362 1.33089e-17)
(-0.145093 0.0112379 1.31483e-17)
(-0.134021 0.0149949 7.18818e-17)
(-0.121 0.0196101 8.34493e-17)
(-0.101567 0.0267931 5.70797e-18)
(-0.0793019 0.0318492 -2.26784e-17)
(-0.0482608 0.037213 -5.80595e-18)
(-0.0129386 0.0245989 -1.77006e-17)
(0.844249 -0.00551382 -5.9527e-19)
(0.831001 -0.00567057 -4.40669e-19)
(0.827851 -0.00566065 -2.23801e-18)
(0.817412 -0.00586328 -6.76326e-19)
(0.811852 -0.00590174 -2.37235e-18)
(0.802598 -0.00611731 6.85301e-19)
(0.795591 -0.00622063 -3.79142e-18)
(0.786662 -0.0064461 -3.36588e-19)
(0.778656 -0.00661049 -1.41188e-18)
(0.769571 -0.00685404 1.00148e-18)
(0.760739 -0.00707264 -2.27569e-18)
(0.751207 -0.00734375 -3.45322e-19)
(0.74158 -0.00761234 -7.47226e-18)
(0.731403 -0.00791918 -3.30682e-18)
(0.720936 -0.00823693 -7.23556e-18)
(0.709953 -0.00858665 -2.32934e-18)
(0.698556 -0.00895581 -2.2044e-18)
(0.686622 -0.00935559 -2.46609e-18)
(0.674174 -0.00978118 4.07807e-18)
(0.661137 -0.0102392 9.77759e-18)
(0.647494 -0.0107289 -6.80847e-19)
(0.633186 -0.0112552 -1.0537e-17)
(0.618175 -0.0118195 6.02053e-18)
(0.602404 -0.0124263 -3.76977e-18)
(0.585821 -0.0130787 6.43864e-18)
(0.568363 -0.0137814 1.35448e-17)
(0.549966 -0.0145386 1.26696e-17)
(0.530555 -0.015356 1.4805e-17)
(0.510056 -0.016239 7.85898e-18)
(0.48838 -0.0171943 1.85941e-19)
(0.465438 -0.018229 7.37064e-18)
(0.441127 -0.0193511 3.22103e-18)
(0.415344 -0.0205695 1.43044e-17)
(0.38797 -0.0218881 5.49675e-18)
(0.358883 -0.0233068 -6.80266e-19)
(0.327946 -0.024833 3.58676e-18)
(0.295023 -0.0264707 3.97006e-18)
(0.259971 -0.0282214 1.60068e-17)
(0.22265 -0.0300825 8.15313e-18)
(0.182928 -0.0320455 -6.3326e-18)
(0.140687 -0.0340943 4.38404e-18)
(0.0958296 -0.0362036 4.24916e-19)
(0.0483144 -0.0383327 -3.05405e-18)
(-0.00190595 -0.0404476 4.10046e-19)
(-0.0546337 -0.0423996 3.37814e-19)
(-0.109663 -0.0441954 -2.88892e-19)
(-0.166802 -0.0457045 -1.02325e-17)
(-0.225555 -0.0468114 -4.90027e-18)
(-0.285349 -0.0474134 -1.24198e-17)
(-0.345482 -0.0474134 -1.71096e-17)
(-0.405136 -0.0467371 2.07693e-17)
(-0.463423 -0.0453424 -6.6353e-17)
(-0.519428 -0.043225 4.25173e-18)
(-0.572263 -0.0404212 -2.55745e-17)
(-0.621112 -0.0370032 -3.52969e-17)
(-0.665275 -0.0330709 -1.20053e-17)
(-0.704194 -0.0287414 2.57049e-17)
(-0.737463 -0.0241364 3.55036e-17)
(-0.764833 -0.019374 5.59768e-17)
(-0.786191 -0.014559 2.52613e-17)
(-0.801551 -0.00978242 -9.44924e-17)
(-0.811015 -0.00511947 -1.51233e-16)
(-0.814789 -0.000618644 -3.48737e-17)
(-0.813108 0.00364161 -1.17552e-16)
(-0.806255 0.00765654 -3.65863e-17)
(-0.794605 0.0113834 -1.11556e-17)
(-0.778514 0.0147953 1.23544e-17)
(-0.758377 0.0178725 1.54495e-17)
(-0.734616 0.0205986 -7.21699e-18)
(-0.707668 0.0229598 1.09821e-16)
(-0.677986 0.0249457 5.71717e-18)
(-0.646034 0.0265479 9.2315e-17)
(-0.612284 0.0277601 6.39112e-17)
(-0.577217 0.0285773 1.17826e-16)
(-0.541318 0.0289955 6.19403e-17)
(-0.505081 0.029013 5.12814e-18)
(-0.468999 0.0286319 2.48048e-18)
(-0.433564 0.0278592 -5.86045e-18)
(-0.399258 0.0267098 -2.14291e-17)
(-0.366541 0.0252094 -1.33191e-17)
(-0.33584 0.0233969 -6.85154e-17)
(-0.307525 0.0213268 1.84667e-17)
(-0.281892 0.0190683 5.20439e-17)
(-0.259145 0.0167049 5.29574e-17)
(-0.239375 0.0143303 -1.59055e-17)
(-0.222553 0.0120444 -1.26026e-16)
(-0.208516 0.00994792 -3.04814e-17)
(-0.196982 0.00813893 -8.41585e-18)
(-0.187531 0.00670946 -2.63149e-17)
(-0.179651 0.00574377 -2.64784e-17)
(-0.172671 0.00530639 -1.2051e-20)
(-0.166 0.00547732 -2.48977e-17)
(-0.158627 0.00636244 3.63143e-17)
(-0.150184 0.00797751 2.46421e-17)
(-0.138697 0.01069 8.41336e-17)
(-0.124902 0.0140035 7.30013e-17)
(-0.104412 0.0192693 -6.78668e-18)
(-0.080263 0.0230557 -1.12263e-17)
(-0.0475042 0.0271113 -1.79337e-18)
(-0.012233 0.01876 -8.89962e-18)
(0.842964 -0.00331525 -7.26214e-19)
(0.829653 -0.00340594 -3.89992e-19)
(0.826483 -0.00340034 -1.12265e-18)
(0.815993 -0.00351985 -3.78435e-19)
(0.810403 -0.00354297 -3.38976e-18)
(0.8011 -0.00367118 -1.17316e-18)
(0.794056 -0.0037329 -2.92799e-18)
(0.78508 -0.0038675 -1.1623e-18)
(0.777031 -0.00396574 -2.16064e-18)
(0.767898 -0.00411137 5.17339e-20)
(0.75902 -0.0042421 -1.92567e-18)
(0.749438 -0.00440432 -2.58865e-18)
(0.739761 -0.00456503 -2.74976e-18)
(0.729531 -0.0047487 -9.1626e-19)
(0.719009 -0.0049389 1.03757e-18)
(0.707971 -0.00514828 -1.84705e-18)
(0.696515 -0.00536932 -2.45346e-18)
(0.68452 -0.00560872 -7.33282e-18)
(0.67201 -0.00586359 6.21683e-18)
(0.658908 -0.00613791 9.94288e-18)
(0.645197 -0.00643124 -3.83484e-18)
(0.630818 -0.00674646 -7.65668e-18)
(0.615734 -0.00708455 -4.23729e-18)
(0.599886 -0.00744812 -9.74216e-19)
(0.583222 -0.00783908 2.92667e-18)
(0.56568 -0.00826026 1.76012e-17)
(0.547194 -0.00871437 1.15751e-17)
(0.527692 -0.00920477 7.65526e-18)
(0.507096 -0.00973505 1.18502e-17)
(0.485319 -0.0103095 -1.08688e-17)
(0.462269 -0.010933 -4.22889e-18)
(0.437847 -0.011612 4.87512e-18)
(0.411946 -0.0123552 1.57834e-17)
(0.384453 -0.0131632 -1.0627e-17)
(0.35524 -0.0140258 -3.19753e-18)
(0.324174 -0.0149503 3.37367e-18)
(0.291116 -0.0159399 4.3761e-18)
(0.255924 -0.0169958 1.60682e-17)
(0.218461 -0.0181166 8.20594e-18)
(0.178593 -0.0192971 -1.50702e-17)
(0.136204 -0.0205276 -4.248e-18)
(0.0911989 -0.0217936 4.81134e-18)
(0.0435365 -0.0230726 -2.96374e-18)
(-0.00682314 -0.0243305 -2.26903e-20)
(-0.0596944 -0.0254909 1.69133e-18)
(-0.114873 -0.0265621 1.26886e-19)
(-0.172156 -0.0274574 -5.55636e-18)
(-0.231062 -0.0281105 -1.51619e-17)
(-0.291022 -0.0284604 -8.00124e-18)
(-0.351341 -0.0284493 1.16399e-17)