/*--------------------------------*- C++ -*----------------------------------*\
  =========                 |
  \\      /  F ield         | OpenFOAM: The Open Source CFD Toolbox
   \\    /   O peration     | Website:  https://openfoam.org
    \\  /    A nd           | Version:  7
     \\/     M anipulation  |
\*---------------------------------------------------------------------------*/
FoamFile
{
    version     2.0;
    format      ascii;
    class       surfaceScalarField;
    location    "46";
    object      phi;
}
// * * * * * * * * * * * * * * * * * * * * * * * * * * * * * * * * * * * * * //

dimensions      [0 3 -1 0 0 0 0];

internalField   nonuniform List<scalar> 
14496
(
0.000708564
6.25834e-05
-0.000132369
0.000883325
0.00016658
-0.000341341
0.00118051
0.000295168
-0.000592356
0.00150644
0.000331619
-0.000657545
0.001824
0.000327302
-0.000644864
0.00210778
0.000294318
-0.000578095
0.00235145
0.000253038
-0.000496705
0.00255584
0.00021192
-0.000416316
0.00272463
0.000174423
-0.000343207
0.00286219
0.000141567
-0.000279131
0.00297266
0.000113154
-0.000223621
0.00305958
8.85986e-05
-0.000175521
0.0031259
6.72443e-05
-0.000133567
0.00317403
4.8494e-05
-9.66178e-05
0.00320589
3.18399e-05
-6.37073e-05
0.0032231
1.68948e-05
-3.40995e-05
0.00322693
3.35486e-06
-7.18802e-06
0.00321843
-9.14496e-06
1.76492e-05
0.00319859
-2.05824e-05
4.04166e-05
0.00316825
-3.1127e-05
6.14653e-05
0.00312818
-4.09064e-05
8.0978e-05
0.00307912
-4.99266e-05
9.89884e-05
0.00302181
-5.82023e-05
0.000115518
0.00295698
-6.57257e-05
0.000130549
0.00288542
-7.24759e-05
0.000144038
0.00280792
-7.8424e-05
0.000155924
0.00272531
-8.35378e-05
0.000166144
0.00263847
-8.77852e-05
0.000174632
0.00254827
-9.1138e-05
0.000181331
0.00245565
-9.35747e-05
0.000186199
0.00236152
-9.50829e-05
0.000189211
0.00226682
-9.56612e-05
0.000190364
0.00217246
-9.53212e-05
0.00018968
0.00207933
-9.40886e-05
0.000187213
0.00198829
-9.20047e-05
0.000183045
0.00190013
-8.91262e-05
0.000177291
0.00181556
-8.55252e-05
0.000170095
0.00173522
-8.12877e-05
0.00016163
0.00165963
-7.6512e-05
0.000152094
0.00158924
-7.13055e-05
0.000141703
0.00152434
-6.57823e-05
0.000130683
0.00146512
-6.00588e-05
0.00011927
0.00141168
-5.42502e-05
0.000107693
0.00136398
-4.8467e-05
9.61732e-05
0.00132187
-4.28111e-05
8.49132e-05
0.00128515
-3.73731e-05
7.40937e-05
0.00125352
-3.223e-05
6.38679e-05
0.0012266
-2.74436e-05
5.43584e-05
0.001204
-2.30598e-05
4.56563e-05
0.00118529
-1.91098e-05
3.78227e-05
0.00117001
-1.5607e-05
3.08877e-05
0.00115773
-1.25461e-05
2.48254e-05
0.00114802
-9.90935e-06
1.96156e-05
0.00114049
-7.68057e-06
1.52191e-05
0.00113474
-5.8293e-06
1.15737e-05
0.00113046
-4.31843e-06
8.60457e-06
0.00112733
-3.10777e-06
6.23109e-06
0.00112512
-2.15597e-06
4.37044e-06
0.0011236
-1.42214e-06
2.94086e-06
0.0011226
-8.67776e-07
1.86556e-06
0.00112198
-4.5797e-07
1.07533e-06
0.00112164
-1.61114e-07
5.09369e-07
0.00112148
4.628e-08
1.1405e-07
0.00112143
1.79587e-07
-1.36105e-07
0.00112145
2.63652e-07
-2.81296e-07
0.00112149
3.05482e-07
-3.4854e-07
0.00112153
3.1253e-07
-3.48332e-07
0.00112153
2.89236e-07
-2.8803e-07
0.00112146
2.36836e-07
-1.70573e-07
0.00112131
1.52485e-07
-4.10165e-09
0.00112101
4.01623e-08
2.58786e-07
0.00112055
-1.18114e-07
5.83428e-07
0.00111987
-3.20113e-07
9.98444e-07
0.00111892
-5.72917e-07
1.51832e-06
0.00111765
-8.86557e-07
2.16004e-06
0.00111598
-1.27106e-06
2.94342e-06
0.00111383
-1.73797e-06
3.89133e-06
0.0011111
-2.30064e-06
5.03022e-06
0.00110768
-2.97493e-06
6.39155e-06
0.00110345
-3.77961e-06
8.01246e-06
0.00109825
-4.7374e-06
9.93788e-06
0.0010919
-5.87608e-06
1.22228e-05
0.00108419
-7.23006e-06
1.49352e-05
0.00107488
-8.84241e-06
1.81601e-05
0.00106364
-1.07676e-05
2.2005e-05
0.00105011
-1.30755e-05
2.66077e-05
0.00103382
-1.58564e-05
3.21459e-05
0.00101419
-1.92288e-05
3.88526e-05
0.000990505
-2.33525e-05
4.70409e-05
0.000961826
-2.84281e-05
5.71072e-05
0.000926924
-3.47833e-05
6.9685e-05
0.000884329
-4.26533e-05
8.52486e-05
0.00083164
-5.30484e-05
0.000105737
0.000767012
-6.53671e-05
0.000129994
0.000684242
-8.41184e-05
0.000166888
0.000584873
-0.000101577
0.000200946
0.000451358
-0.000136586
0.000270102
0.00030459
-0.000152007
0.000298775
0.000127759
-0.000179962
0.000356792
-0.000131176
0.000258936
0.000698414
-9.76789e-12
0.000864994
-3.02601e-11
0.00116016
-4.86281e-11
0.00149178
-5.39357e-11
0.00181908
-5.66193e-11
0.0021134
-5.94811e-11
0.00236644
-6.68203e-11
0.00257836
-7.89938e-11
0.00275278
-9.45198e-11
0.00289435
-1.12161e-10
0.0030075
-1.30259e-10
0.0030961
-1.47086e-10
0.00316335
-1.61274e-10
0.00321184
-1.71783e-10
0.00324368
-1.77815e-10
0.00326057
-1.78562e-10
0.00326393
-1.7413e-10
0.00325479
-1.66959e-10
0.0032342
-1.52023e-10
0.00320308
-1.32176e-10
0.00316217
-1.07674e-10
0.00311224
-7.89678e-11
0.00305404
-4.61392e-11
0.00298832
-9.61026e-12
0.00291584
2.99202e-11
0.00283742
7.17479e-11
0.00275388
1.15352e-10
0.00266609
1.60103e-10
0.00257495
2.05461e-10
0.00248138
2.50844e-10
0.0023863
2.95423e-10
0.00229063
3.38535e-10
0.00219531
3.79442e-10
0.00210122
4.17547e-10
0.00200922
4.52122e-10
0.00192009
4.82608e-10
0.00183457
5.08481e-10
0.00175328
5.29139e-10
0.00167677
5.44145e-10
0.00160546
5.53069e-10
0.00153968
5.55509e-10
0.00147962
5.51172e-10
0.00142537
5.39866e-10
0.0013769
5.21425e-10
0.00133409
4.95865e-10
0.00129671
4.63278e-10
0.00126448
4.23863e-10
0.00123704
3.77921e-10
0.00121398
3.26057e-10
0.00119487
2.68891e-10
0.00117926
2.07033e-10
0.00116672
1.41418e-10
0.00115681
7.31414e-11
0.00114913
3.16454e-12
0.0011433
-6.67608e-11
0.00113898
-1.35754e-10
0.00113587
-2.02447e-10
0.00113371
-2.656e-10
0.00113229
-3.24039e-10
0.00113143
-3.7674e-10
0.00113097
-4.24143e-10
0.00113081
-4.56658e-10
0.00113085
-4.79902e-10
0.00113103
-4.73786e-10
0.0011313
-4.87912e-10
0.0011316
-4.87059e-10
0.00113192
-4.69175e-10
0.00113221
-4.38635e-10
0.00113244
-4.01527e-10
0.0011326
-3.65262e-10
0.00113264
-3.00393e-10
0.00113252
-2.35593e-10
0.0011322
-1.76247e-10
0.00113163
-1.10654e-10
0.00113074
-4.54117e-11
0.00112947
1.73057e-11
0.00112773
7.58234e-11
0.00112543
1.29288e-10
0.00112246
1.75523e-10
0.00111868
2.13464e-10
0.00111394
2.42226e-10
0.00110806
2.61276e-10
0.00110083
2.70455e-10
0.00109199
2.69966e-10
0.00108122
2.60433e-10
0.00106814
2.42873e-10
0.00105229
2.18582e-10
0.00103306
1.89108e-10
0.00100971
1.56091e-10
0.000981278
1.21486e-10
0.000946495
8.67053e-11
0.000903842
5.41655e-11
0.000850793
2.35341e-11
0.000785426
-1.48528e-12
0.000701308
-2.31394e-11
0.000599731
-3.85547e-11
0.000463145
-5.01687e-11
0.000311138
-5.81425e-11
0.000131176
-6.00923e-11
-4.66668e-11
0.000708393
0.000213308
-0.000314251
0.000910948
0.000524604
-0.000727159
0.00120027
0.000881181
-0.0011705
0.00148764
0.000960807
-0.00124818
0.00175281
0.000933178
-0.00119835
0.00198426
0.000832885
-0.00106434
0.0021825
0.000714982
-0.000913219
0.00235036
0.000599968
-0.000767828
0.00249119
0.000495776
-0.000636607
0.00260815
0.000404405
-0.00052136
0.00270395
0.000325028
-0.000420828
0.00278087
0.000255972
-0.000332896
0.00284081
0.000195469
-0.000255406
0.00288532
0.00014194
-0.000186455
0.00291572
9.40599e-05
-0.000124455
0.0029331
5.08143e-05
-6.81936e-05
0.00293837
1.14133e-05
-1.66833e-05
0.00293237
-2.50779e-05
3.10746e-05
0.00291587
-5.86093e-05
7.51094e-05
0.00288952
-8.96312e-05
0.000115984
0.00285401
-0.000118431
0.000153935
0.00281002
-0.00014503
0.000189025
0.00275821
-0.000169453
0.000221261
0.00269929
-0.000191664
0.000250586
0.00263398
-0.000211595
0.000276902
0.00256305
-0.000229154
0.000300084
0.0024873
-0.000244242
0.000319996
0.00240755
-0.000256764
0.00033651
0.00232467
-0.000266633
0.000349511
0.00223954
-0.000273786
0.000358915
0.00215306
-0.000278186
0.000364673
0.0020661
-0.000279831
0.000366783
0.00197957
-0.000278756
0.000365294
0.00189429
-0.00027504
0.000360313
0.00181109
-0.00026881
0.000352011
0.00173071
-0.000260236
0.00034062
0.00165381
-0.000249538
0.000326432
0.00158099
-0.000236974
0.000309795
0.00151273
-0.00022284
0.000291104
0.0014494
-0.000207459
0.000270791
0.00139126
-0.000191169
0.000249307
0.00133847
-0.000174319
0.000227114
0.00129105
-0.000157249
0.000204663
0.00124895
-0.000140286
0.000182384
0.00121201
-0.000123728
0.000160672
0.00117998
-0.000107842
0.000139874
0.00115255
-9.28508e-05
0.000120284
0.00112935
-7.89335e-05
0.000102133
0.00110998
-6.62223e-05
8.55924e-05
0.00109401
-5.4803e-05
7.0771e-05
0.00108101
-4.47098e-05
5.77088e-05
0.00107057
-3.59198e-05
4.63569e-05
0.00106228
-2.8385e-05
3.66734e-05
0.00105577
-2.20474e-05
2.85608e-05
0.00105069
-1.68111e-05
2.18886e-05
0.00104675
-1.25636e-05
1.65051e-05
0.00104369
-9.18443e-06
1.22494e-05
0.00104128
-6.55035e-06
8.95743e-06
0.00103935
-4.54016e-06
6.4688e-06
0.00103776
-3.04074e-06
4.63485e-06
0.00103638
-1.95072e-06
3.32335e-06
0.00103514
-1.18217e-06
2.42072e-06
0.00103398
-6.64469e-07
1.83364e-06
0.00103282
-3.40654e-07
1.49279e-06
0.00103165
-1.63677e-07
1.34039e-06
0.00103041
-1.0411e-07
1.33589e-06
0.0010291
-1.44326e-07
1.45585e-06
0.00102769
-2.72084e-07
1.68896e-06
0.00102614
-4.84475e-07
2.03425e-06
0.00102443
-7.88945e-07
2.49849e-06
0.00102252
-1.19335e-06
3.10477e-06
0.00102037
-1.71483e-06
3.86364e-06
0.00101794
-2.37101e-06
4.8017e-06
0.00101517
-3.18325e-06
5.94858e-06
0.00101201
-4.17738e-06
7.33782e-06
0.00100839
-5.38269e-06
9.00761e-06
0.00100422
-6.83292e-06
1.10019e-05
0.000999412
-8.567e-06
1.33715e-05
0.000993867
-1.06313e-05
1.61766e-05
0.000987459
-1.30803e-05
1.94881e-05
0.000980047
-1.59803e-05
2.3392e-05
0.000971466
-1.94121e-05
2.7993e-05
0.000961521
-2.34754e-05
3.34205e-05
0.000949981
-2.82954e-05
3.9836e-05
0.000936567
-3.40295e-05
4.74428e-05
0.000920946
-4.088e-05
5.65011e-05
0.000902709
-4.91069e-05
6.73446e-05
0.000881349
-5.90517e-05
8.04114e-05
0.00085624
-7.11689e-05
9.62781e-05
0.000826583
-8.60451e-05
0.000115702
0.000791384
-0.000104571
0.00013977
0.000749356
-0.00012753
0.000169558
0.000698754
-0.000157527
0.00020813
0.000637748
-0.000193331
0.000254337
0.00056221
-0.000246772
0.000322309
0.000473222
-0.000296603
0.000385591
0.000357297
-0.00039628
0.000512205
0.000237573
-0.000433149
0.000552873
8.48561e-05
-0.000517908
0.000670625
-0.000352266
0.000437122
0.000696051
0.000879315
0.00116814
0.0014714
0.00175972
0.00201451
0.00223278
0.00241643
0.002569
0.00269428
0.00279568
0.00287614
0.00293804
0.00298336
0.00301371
0.00303043
0.00303465
0.00302722
0.00300903
0.00298087
0.00294341
0.00289737
0.00284344
0.00278232
0.00271476
0.00264153
0.00256344
0.0024813
0.002396
0.00230842
0.00221944
0.00212997
0.0020409
0.00195307
0.00186731
0.00178436
0.00170492
0.00162957
0.00155883
0.00149307
0.00143259
0.00137754
0.00132798
0.00128387
0.00124505
0.00121131
0.00118232
0.00115775
0.00113718
0.0011202
0.00110638
0.00109529
0.00108652
0.00107969
0.00107445
0.00107049
0.00106754
0.00106536
0.00106376
0.00106258
0.00106171
0.00106104
0.00106048
0.00106001
0.00105956
0.00105911
0.00105862
0.00105806
0.0010574
0.00105661
0.00105567
0.00105454
0.00105317
0.00105151
0.00104949
0.00104705
0.00104411
0.00104057
0.00103633
0.00103126
0.00102522
0.00101803
0.00100949
0.000999356
0.000987332
0.000973059
0.000956098
0.000935899
0.000911771
0.000882833
0.000847947
0.000805666
0.000753876
0.000690539
0.000610656
0.000514999
0.000388821
0.000254446
9.33303e-05
0.000651016
0.000431045
-0.000574768
0.0008783
0.000934969
-0.00116225
0.00113458
0.00143505
-0.00169133
0.00136125
0.00149588
-0.00172254
0.00155728
0.00141914
-0.00161518
0.0017258
0.00125503
-0.00142354
0.00187124
0.0010767
-0.00122214
0.00199699
0.000907406
-0.00103315
0.00210521
0.000755033
-0.000863256
0.00219744
0.000620885
-0.000713117
0.0022749
0.000503309
-0.000580772
0.00233861
0.000399866
-0.000463572
0.00238942
0.000308144
-0.000358957
0.0024281
0.00022604
-0.000264722
0.00245534
0.000151808
-0.00017904
0.00247174
8.41119e-05
-0.000100511
0.00247785
2.19258e-05
-2.80419e-05
0.00247429
-3.59429e-05
3.95091e-05
0.00246152
-8.94741e-05
0.000102238
0.00244008
-0.000139216
0.000160659
0.00241053
-0.000185468
0.000215012
0.00237345
-0.000228265
0.000265349
0.00232942
-0.000267595
0.000311626
0.00227907
-0.000303376
0.000353728
0.00222306
-0.000335474
0.000391485
0.00216208
-0.000363732
0.000424702
0.00209689
-0.000387978
0.000453174
0.00202823
-0.000408052
0.000476707
0.00195691
-0.000423813
0.000495135
0.00188374
-0.000435158
0.000508334
0.00180952
-0.00044203
0.00051624
0.0017351
-0.000444427
0.000518854
0.00166125
-0.000442413
0.000516259
0.00158875
-0.000436128
0.000508625
0.00151833
-0.000425786
0.000496214
0.00145062
-0.000411678
0.00047938
0.00138623
-0.000394173
0.000458569
0.00132563
-0.000373706
0.000434303
0.00126923
-0.000350767
0.000407172
0.0012173
-0.000325891
0.000377814
0.00117004
-0.000299638
0.000346897
0.00112752
-0.000272573
0.000315093
0.00108972
-0.000245252
0.000283056
0.00105651
-0.000218198
0.000251406
0.0010277
-0.000191893
0.000220706
0.00100301
-0.000166757
0.000191447
0.000982113
-0.000143142
0.000164038
0.000964642
-0.000121326
0.000138797
0.000950194
-0.000101511
0.000115959
0.00093835
-8.38153e-05
9.5659e-05
0.000928735
-6.8272e-05
7.78866e-05
0.000920961
-5.48406e-05
6.26147e-05
0.00091466
-4.34402e-05
4.97412e-05
0.000909516
-3.3943e-05
3.90872e-05
0.00090525
-2.61817e-05
3.04479e-05
0.000901623
-1.99661e-05
2.35931e-05
0.000898436
-1.50962e-05
1.82829e-05
0.000895529
-1.137e-05
1.42769e-05
0.000892777
-8.59097e-06
1.13434e-05
0.000890083
-6.57893e-06
9.2722e-06
0.000887378
-5.17524e-06
7.88039e-06
0.000884609
-4.24542e-06
7.01461e-06
0.000881738
-3.68044e-06
6.55177e-06
0.000878736
-3.39656e-06
6.39867e-06
0.000875579
-3.3286e-06
6.48524e-06
0.000872247
-3.43296e-06
6.76502e-06
0.000868719
-3.6849e-06
7.21261e-06
0.000864974
-4.07331e-06
7.81899e-06
0.000860984
-4.59974e-06
8.58918e-06
0.000856721
-5.27618e-06
9.53939e-06
0.000852149
-6.1236e-06
1.06958e-05
0.000847227
-7.16395e-06
1.20857e-05
0.00084191
-8.42886e-06
1.37462e-05
0.000836144
-9.95409e-06
1.57195e-05
0.000829871
-1.17805e-05
1.80534e-05
0.000823024
-1.39545e-05
2.08018e-05
0.000815527
-1.65294e-05
2.40263e-05
0.000807296
-1.95665e-05
2.77979e-05
0.000798234
-2.3139e-05
3.2201e-05
0.000788232
-2.73323e-05
3.73339e-05
0.000777167
-3.22501e-05
4.33157e-05
0.000764894
-3.80189e-05
5.02914e-05
0.000751249
-4.47944e-05
5.84394e-05
0.000736039
-5.27709e-05
6.79811e-05
0.000719038
-6.21922e-05
7.91935e-05
0.000699978
-7.337e-05
9.24293e-05
0.000678544
-8.67019e-05
0.000108136
0.000654356
-0.00010271
0.000126899
0.00062696
-0.000122074
0.00014947
0.000595797
-0.000145699
0.000176863
0.000560243
-0.000174812
0.000210366
0.000519412
-0.000210842
0.000251673
0.000472679
-0.000256864
0.000303596
0.000418394
-0.000312685
0.000366971
0.000356387
-0.000391831
0.000453838
0.000285475
-0.000467634
0.000538546
0.000204858
-0.000612073
0.00069269
0.000125878
-0.00065203
0.00073101
1.78791e-05
-0.000793324
0.000901323
-0.000463189
0.000481068
0.000656944
0.000864754
0.0011293
0.001377
0.0015978
0.00178849
0.00195197
0.00209155
0.00220997
0.0023095
0.00239198
0.00245895
0.00251169
0.00255127
0.00257862
0.00259454
0.00259979
0.00259492
0.00258055
0.00255732
0.00252579
0.00248655
0.00244021
0.00238742
0.00232885
0.0022652
0.00219722
0.00212568
0.00205138
0.00197513
0.00189778
0.00182013
0.00174301
0.0016672
0.00159343
0.00152237
0.00145463
0.00139071
0.00133105
0.00127595
0.00122562
0.00118016
0.00113957
0.00110376
0.00107254
0.00104565
0.00102279
0.0010036
0.000987683
0.000974639
0.000964076
0.000955592
0.000948825
0.000943443
0.00093915
0.000935689
0.000932842
0.000930429
0.000928307
0.000926363
0.000924511
0.000922686
0.00092084
0.000918936
0.000916948
0.000914851
0.000912622
0.000910237
0.000907672
0.000904894
0.000901875
0.000898575
0.000894948
0.000890942
0.0008865
0.000881553
0.000876025
0.00086983
0.000862868
0.000855024
0.000846165
0.00083614
0.000824766
0.000811831
0.000797081
0.000780212
0.000760855
0.000738556
0.00071276
0.000682763
0.000647721
0.000606437
0.000557703
0.000499355
0.000429834
0.000347791
0.000247923
0.000148765
2.60668e-05
0.000537966
0.000726226
-0.00090222
0.000764603
0.00137844
-0.00160508
0.000965452
0.001906
-0.00210685
0.00112742
0.00190396
-0.00206593
0.00126174
0.00176714
-0.00190146
0.00137814
0.0015546
-0.001671
0.00148067
0.001336
-0.00143854
0.00157173
0.00113279
-0.00122384
0.0016521
0.000950047
-0.00103042
0.00172211
0.00078786
-0.000857865
0.00178201
0.000644107
-0.000704008
0.00183206
0.000516037
-0.000566093
0.00187255
0.000401038
-0.00044152
0.00190375
0.000296871
-0.00032807
0.00192597
0.000201693
-0.000223914
0.00193952
0.00011408
-0.000127635
0.00194479
3.2964e-05
-3.82354e-05
0.00194212
-4.28589e-05
4.55335e-05
0.00193175
-0.000113458
0.000123824
0.00191427
-0.000179279
0.000196759
0.00189006
-0.00024057
0.000264788
0.00185957
-0.000297362
0.000327843
0.00182334
-0.000349574
0.000385806
0.0017819
-0.000397055
0.000438492
0.00173585
-0.000439603
0.000485661
0.00168578
-0.000476986
0.000527048
0.00163237
-0.000508968
0.000562385
0.00157627
-0.000535327
0.000591424
0.00151819
-0.000555874
0.000613954
0.00145884
-0.000570473
0.000629827
0.00139892
-0.000579052
0.000638969
0.00133914
-0.00058162
0.000641395
0.00128019
-0.000578279
0.000637231
0.00122272
-0.000569236
0.000626713
0.00116731
-0.000554798
0.000610203
0.00111451
-0.000535383
0.000588182
0.00106478
-0.000511508
0.000561243
0.00101848
-0.00048378
0.000530078
0.000975898
-0.000452881
0.000495461
0.000937219
-0.000419546
0.000458225
0.000902528
-0.000384538
0.000419229
0.000871818
-0.000348623
0.000379334
0.000844991
-0.000312547
0.000339374
0.000821871
-0.000277009
0.000300128
0.000802213
-0.000242642
0.000262301
0.000785713
-0.000209998
0.000226497
0.000772028
-0.000179528
0.000193214
0.000760784
-0.000151583
0.000162826
0.000751602
-0.000126407
0.000135589
0.000744124
-0.000104146
0.000111625
0.000737971
-8.47721e-05
9.0925e-05
0.000732814
-6.82331e-05
7.339e-05
0.000728359
-5.43962e-05
5.88514e-05
0.00072437
-4.30379e-05
4.70268e-05
0.000720643
-3.39158e-05
3.7643e-05
0.000717015
-2.67616e-05
3.0389e-05
0.000713363
-2.12983e-05
2.49502e-05
0.000709595
-1.72517e-05
2.102e-05
0.000705647
-1.436e-05
1.83085e-05
0.000701476
-1.23893e-05
1.65602e-05
0.000697055
-1.11388e-05
1.55589e-05
0.000692369
-1.04424e-05
1.51288e-05
0.000687405
-1.01687e-05
1.51328e-05
0.000682154
-1.02195e-05
1.54705e-05
0.000676606
-1.05233e-05
1.60716e-05
0.000670747
-1.10346e-05
1.68936e-05
0.00066456
-1.17307e-05
1.79176e-05
0.000658023
-1.26064e-05
1.91432e-05
0.000651109
-1.36711e-05
2.05852e-05
0.000643785
-1.4946e-05
2.227e-05
0.000636014
-1.64612e-05
2.42325e-05
0.000627752
-1.82504e-05
2.65121e-05
0.000618952
-2.0356e-05
2.91564e-05
0.000609559
-2.28258e-05
3.22183e-05
0.000599516
-2.57136e-05
3.5757e-05
0.000588757
-2.90798e-05
3.98386e-05
0.000577212
-3.29934e-05
4.45382e-05
0.000564803
-3.75336e-05
4.99423e-05
0.000551445
-4.27949e-05
5.61535e-05
0.000537041
-4.88862e-05
6.32895e-05
0.000521488
-5.59403e-05
7.1494e-05
0.000504665
-6.41184e-05
8.09407e-05
0.000486442
-7.36177e-05
9.1841e-05
0.000466669
-8.46826e-05
0.000104456
0.000445177
-9.76181e-05
0.000119109
0.00042178
-0.00011281
0.000136207
0.000396266
-0.000130745
0.000156259
0.000368403
-0.000152057
0.00017992
0.000337942
-0.000177553
0.000208014
0.000304629
-0.00020831
0.000241623
0.00026826
-0.000245652
0.000282021
0.000228541
-0.000291427
0.000331145
0.00018597
-0.000348059
0.000390631
0.000139659
-0.000417483
0.000463793
9.48453e-05
-0.00050805
0.000552864
4.62841e-05
-0.000600319
0.00064888
1.73519e-05
-0.000749358
0.00077829
-1.45789e-05
-0.000789749
0.000821679
-2.50935e-05
-0.000956938
0.000967452
-0.000437818
0.000412724
0.000557572
0.000773761
0.000988435
0.00116985
0.00132181
0.00145287
0.00156673
0.00166637
0.00175316
0.0018279
0.00189124
0.0019437
0.00198578
0.00201793
0.00204058
0.00205415
0.00205907
0.00205573
0.00204451
0.00202589
0.00200033
0.00196831
0.00193037
0.00188704
0.00183892
0.00178664
0.00173085
0.00167223
0.00161149
0.00154935
0.00148654
0.00142377
0.00136175
0.00130114
0.00124256
0.00118655
0.00113361
0.00108414
0.00103843
0.000996696
0.000959055
0.000925525
0.000896034
0.000870432
0.000848495
0.000829945
0.000814454
0.000801669
0.000791221
0.000782733
0.000775848
0.00077023
0.000765575
0.000761624
0.000758156
0.000754987
0.000751972
0.000748997
0.000745981
0.000742864
0.000739605
0.000736177
0.00073256
0.00072874
0.000724702
0.000720432
0.000715914
0.000711126
0.000706045
0.000700638
0.000694872
0.000688708
0.000682098
0.000674992
0.000667331
0.000659053
0.000650086
0.000640351
0.000629757
0.000618205
0.00060558
0.000591753
0.000576575
0.000559873
0.000541449
0.000521068
0.000498459
0.000473301
0.000445219
0.000413771
0.000378485
0.000338731
0.000294268
0.000243756
0.000189544
0.000127771
7.11024e-05
1.23642e-05
-4.32505e-05
-0.000887483
0.010534
-0.0103036
-0.00111856
0.0105251
-0.010294
-0.00135049
0.010512
-0.0102801
-0.00158368
0.0105025
-0.0102693
-0.00181825
0.0104983
-0.0102637
-0.0020546
0.0105005
-0.0102641
-0.00229319
0.0105102
-0.0102716
-0.0025346
0.010529
-0.0102876
-0.00277961
0.010559
-0.010314
-0.00302886
0.0106022
-0.0103529
-0.0032814
0.010658
-0.0104055
-0.00352919
0.0107154
-0.0104677
-0.00374281
0.0107303
-0.0105167
-0.00384427
0.0105789
-0.0104775
-0.0036835
0.010006
-0.0101667
-0.00307786
0.00864132
-0.00924696
-0.0019872
0.0061551
-0.00724577
-0.000772965
0.0027992
-0.00401342
-0.000100345
0.000219634
-0.000892254
-0.000521434
0.000421089
-0.00089327
0.0107631
-0.00112559
0.0107574
-0.00135774
0.0107441
-0.00159167
0.0107364
-0.00182678
0.0107334
-0.00206377
0.0107374
-0.00230291
0.0107493
-0.00254473
0.0107708
-0.00278949
0.0108037
-0.00303608
0.0108488
-0.00327851
0.0109005
-0.00349709
0.010934
-0.00364241
0.0108757
-0.00361872
0.0105552
-0.00328729
0.00967453
-0.00253854
0.00789258
-0.00144847
0.00506504
-0.000479963
0.00183068
-3.5445e-05
-0.000224884
-0.000556879
-0.000916763
0.01012
-0.00993577
-0.00110128
0.0101102
-0.00992565
-0.00128694
0.0100948
-0.00990915
-0.00147401
0.0100827
-0.00989568
-0.0016627
0.0100756
-0.00988689
-0.00185336
0.0100741
-0.00988343
-0.00204638
0.0100794
-0.00988633
-0.0022423
0.0100927
-0.00989682
-0.00244185
0.0101161
-0.00991658
-0.00264589
0.010152
-0.00994793
-0.00285485
0.0102026
-0.00999366
-0.00306657
0.010268
-0.0100562
-0.00327023
0.0103357
-0.0101321
-0.0034302
0.0103593
-0.0101993
-0.00346375
0.0102112
-0.0101776
-0.00322293
0.00961732
-0.00985814
-0.00252618
0.00808327
-0.00878001
-0.00131544
0.00518874
-0.00639947
-0.000272674
0.00167071
-0.00271348
-0.000280728
8.05434e-06
-0.000925036
-0.00110886
-0.0012941
-0.00148062
-0.00166879
-0.00185881
-0.00205105
-0.00224589
-0.00244374
-0.0026447
-0.00284757
-0.00304726
-0.00322822
-0.00334641
-0.00330198
-0.00293162
-0.00209413
-0.000918816
-0.000140361
-0.000904868
0.00980471
-0.00967256
-0.00103752
0.00979424
-0.00966159
-0.00117146
0.00977625
-0.00964231
-0.00130712
0.00976135
-0.00962569
-0.00144468
0.00975065
-0.00961309
-0.00158447
0.00974513
-0.00960534
-0.00172691
0.00974562
-0.00960318
-0.00187247
0.00975336
-0.0096078
-0.0020218
0.00976992
-0.00962059
-0.00217567
0.00979761
-0.00964374
-0.00233478
0.00983929
-0.00968018
-0.00249905
0.0098979
-0.00973363
-0.00266587
0.00997274
-0.00980592
-0.00282389
0.0100553
-0.00989723
-0.00294125
0.0100974
-0.00998006
-0.00292645
0.0099562
-0.009971
-0.00260362
0.0092384
-0.00956123
-0.001758
0.00734827
-0.00819389
-0.000572053
0.00373281
-0.00491876
0.00033314
-0.000905193
-0.000915116
-0.00104653
-0.00117943
-0.00131376
-0.00145
-0.00158829
-0.001729
-0.00187246
-0.00201912
-0.00216944
-0.00232382
-0.00248215
-0.00264151
-0.00278556
-0.00286577
-0.00276771
-0.00230932
-0.00136053
-0.000341194
-0.00085369
0.00959761
-0.00952104
-0.00093122
0.00958582
-0.00950829
-0.00101041
0.0095648
-0.00948561
-0.00109146
0.00954663
-0.00946558
-0.00117485
0.00953175
-0.00944835
-0.0012609
0.00952161
-0.00943556
-0.00135002
0.0095167
-0.00942758
-0.00144266
0.00951822
-0.00942557
-0.00153948
0.00952741
-0.0094306
-0.00164126
0.00954637
-0.00944459
-0.00174894
0.00957778
-0.00947011
-0.00186315
0.00962543
-0.00951122
-0.0019846
0.00969143
-0.00956998
-0.00211109
0.00978026
-0.00965378
-0.00223621
0.0098749
-0.00974978
-0.00231539
0.00993728
-0.00985811
-0.00224785
0.00972017
-0.00978771
-0.00179554
0.00874134
-0.00919365
-0.000836425
0.00584912
-0.00680824
0.00147889
-0.00231531
-0.000865506
-0.000941277
-0.00101878
-0.00109785
-0.00117919
-0.00126292
-0.0013494
-0.00143899
-0.00153216
-0.00162954
-0.00173193
-0.00184013
-0.00195462
-0.00207158
-0.00217673
-0.00221045
-0.00205151
-0.00150406
-0.000573693
-0.000767372
0.00950356
-0.009484
-0.000788583
0.00948928
-0.00946807
-0.000811959
0.00946461
-0.00944123
-0.00083773
0.00944231
-0.00941654
-0.000866237
0.00942267
-0.00939417
-0.000897875
0.00940702
-0.00937538
-0.000933124
0.00939581
-0.00936056
-0.000972519
0.00939019
-0.00935079
-0.00101672
0.00939107
-0.00934687
-0.00106665
0.00940015
-0.00935022
-0.00112353
0.00941989
-0.00936301
-0.00118849
0.00945417
-0.00938921
-0.00126348
0.009505
-0.00943001
-0.0013491
0.00958012
-0.0094945
-0.00144774
0.00966951
-0.00957087
-0.00154537
0.00978752
-0.0096899
-0.00160569
0.00978109
-0.00972077
-0.00144818
0.00942025
-0.00957775
-0.000855452
0.00739886
-0.00799159
0.00295012
-0.00380557
-0.000780039
-0.000799044
-0.000820047
-0.000843316
-0.000868997
-0.00089754
-0.000929308
-0.000964691
-0.00100422
-0.00104865
-0.00109887
-0.00115592
-0.0012209
-0.00129455
-0.00137482
-0.00144541
-0.00145203
-0.00122542
-0.000634804
-0.000652193
0.00952348
-0.00956063
-0.000617677
0.00950507
-0.00953959
-0.00058546
0.0094763
-0.00950852
-0.000556283
0.00944857
-0.00947775
-0.000530202
0.00942355
-0.00944963
-0.0005079
0.00940129
-0.00942359
-0.000490042
0.00938272
-0.00940058
-0.000476787
0.00936879
-0.00938205
-0.000469099
0.00936011
-0.0093678
-0.000468324
0.00935769
-0.00935846
-0.000475686
0.00936387
-0.00935651
-0.00049297
0.00938173
-0.00936445
-0.000522002
0.00941358
-0.00938455
-0.000567176
0.00946421
-0.00941904
-0.000630212
0.00952861
-0.00946558
-0.000721293
0.00962322
-0.00953213
-0.000820904
0.00966027
-0.00956065
-0.000863942
0.00958169
-0.00953865
-0.000623195
0.00822617
-0.00846692
0.00423424
-0.00485743
-0.000664665
-0.000627664
-0.000592597
-0.000560568
-0.000531183
-0.000505271
-0.00048311
-0.000465112
-0.000451877
-0.000444405
-0.000443543
-0.000451017
-0.000467451
-0.000497742
-0.000539996
-0.000606676
-0.000667181
-0.00066325
-0.000428668
-0.000516127
0.00965489
-0.00974666
-0.000428373
0.00963015
-0.00971791
-0.000342916
0.00959746
-0.00968292
-0.00026083
0.00956314
-0.00964522
-0.000181474
0.00953237
-0.00961173
-0.000106224
0.00950249
-0.00957774
-3.5574e-05
0.00947545
-0.0095461
2.89304e-05
0.00945073
-0.00951523
8.57377e-05
0.00943027
-0.00948708
0.000134811
0.00941411
-0.00946318
0.000174549
0.00940432
-0.00944406
0.000202691
0.00940254
-0.00943069
0.000216628
0.00941176
-0.00942569
0.000210915
0.00942958
-0.00942386
0.000181926
0.00945976
-0.00943077
0.00010992
0.00948542
-0.00941341
1.21865e-05
0.00949271
-0.00939497
-0.000179208
0.00938639
-0.00919499
-0.000198859
0.00844054
-0.00842089
0.0048718
-0.00507066
-0.000527107
-0.000436539
-0.000347596
-0.000262209
-0.000179466
-0.000100567
-2.56924e-05
4.29902e-05
0.000105463
0.000161108
0.000208914
0.000247009
0.000274216
0.000284752
0.000278932
0.000232218
0.000164269
1.20065e-05
-1.43716e-05
-0.000369014
0.00989185
-0.0100313
-0.000232314
0.00985719
-0.00999389
-9.59185e-05
0.00982226
-0.00995866
3.50558e-05
0.00977971
-0.00991069
0.000159693
0.00974135
-0.00986599
0.000279367
0.00970304
-0.00982272
0.000393016
0.00966628
-0.00977993
0.000500133
0.00963012
-0.00973724
0.000599721
0.0095958
-0.00969539
0.000690247
0.00956434
-0.00965487
0.000770058
0.0095363
-0.00961611
0.000836846
0.00951204
-0.00957883
0.000886916
0.00949278
-0.00954285
0.000914569
0.00947172
-0.00949937
0.000909458
0.00944906
-0.00944395
0.000853907
0.00938616
-0.00933061
0.000720416
0.00929576
-0.00916227
0.000449434
0.00895745
-0.00868647
0.000128634
0.00813516
-0.00781436
0.0046766
-0.00454796
-0.000376049
-0.000236768
-9.74204e-05
3.70694e-05
0.000166693
0.000291993
0.000412173
0.000527062
0.000635791
0.000736953
0.000829195
0.000910554
0.000977642
0.0010255
0.0010438
0.00101655
0.000917332
0.000679795
0.000394066
0.00378759
3.71244e-06
-2.88493e-06
0.00378837
-1.08278e-07
-6.72677e-07
0.0037858
1.25289e-05
-9.96315e-06
0.0037857
1.00622e-05
-9.95887e-06
0.00378171
2.05294e-05
-1.65421e-05
0.00377957
2.95101e-05
-2.73694e-05
0.00377283
3.6381e-05
-2.96386e-05
0.00376628
6.82515e-05
-6.17019e-05
0.00375409
6.87729e-05
-5.65842e-05
0.00373806
0.000146587
-0.000130555
0.00371439
0.000138163
-0.000114494
0.00367786
0.000308994
-0.000272464
0.00362827
0.000294005
-0.000244413
0.0035454
0.000666563
-0.000583697
0.0034307
0.000675057
-0.00056036
0.00323128
0.00155566
-0.00135624
0.00292085
0.00177897
-0.00146854
0.00236625
0.00431921
-0.00376461
0.00136255
0.00607811
-0.00507441
0.015356
-0.0139934
0.0037876
4.52379e-06
0.0037883
-8.01153e-07
0.00378585
1.49785e-05
0.00378565
1.02615e-05
0.00378175
2.44262e-05
0.00377953
3.1727e-05
0.0037728
4.31143e-05
0.0037662
7.48468e-05
0.00375379
8.11834e-05
0.00373777
0.000162608
0.00371326
0.000162674
0.00367684
0.00034541
0.00362478
0.000346071
0.00354226
0.000749078
0.00342082
0.000796498
0.0032231
0.00175339
0.00289591
0.00210615
0.00235802
0.0048571
0.00135196
0.00708418
0.0167079
0.00432155
2.14487e-06
-1.5273e-06
0.00432178
1.13608e-06
-1.36458e-06
0.00431977
7.65258e-06
-5.64399e-06
0.0043187
9.23713e-06
-8.16307e-06
0.00431548
1.289e-05
-9.67038e-06
0.00431181
2.41927e-05
-2.0527e-05
0.00430622
2.33788e-05
-1.77846e-05
0.0042973
5.34482e-05
-4.45309e-05
0.0042869
4.51174e-05
-3.47126e-05
0.00426724
0.000111762
-9.21044e-05
0.00424654
9.19919e-05
-7.1292e-05
0.00420449
0.000231502
-0.000189449
0.00416049
0.000197062
-0.000153061
0.00406911
0.000493782
-0.000402405
0.00396721
0.0004514
-0.000349501
0.00375364
0.00114612
-0.000932554
0.00348193
0.00117998
-0.000908265
0.00288624
0.00319365