/*--------------------------------*- C++ -*----------------------------------*\
  =========                 |
  \\      /  F ield         | OpenFOAM: The Open Source CFD Toolbox
   \\    /   O peration     | Website:  https://openfoam.org
    \\  /    A nd           | Version:  7
     \\/     M anipulation  |
\*---------------------------------------------------------------------------*/
FoamFile
{
    version     2.0;
    format      ascii;
    class       volVectorField;
    location    "20";
    object      U;
}
// * * * * * * * * * * * * * * * * * * * * * * * * * * * * * * * * * * * * * //

dimensions      [0 1 -1 0 0 0 0];

internalField   nonuniform List<vector> 
225
(
(0.0153573 -0.0209087 -1.39782e-18)
(0.0181614 -0.0187173 -1.01685e-18)
(0.0207008 -0.0165062 -1.7437e-19)
(0.0229593 -0.0143008 6.73685e-19)
(0.0249223 -0.0120984 1.52599e-18)
(0.0265774 -0.00989578 2.02831e-18)
(0.0279141 -0.0076923 1.69451e-18)
(0.0289237 -0.00548694 1.35351e-18)
(0.0296001 -0.00327834 7.12423e-19)
(0.0299393 -0.00107632 5.82602e-19)
(-0.0226881 -0.0418364 -1.59889e-18)
(-0.0183701 -0.0397494 -1.90373e-18)
(-0.0141075 -0.037639 -2.23682e-18)
(-0.009923 -0.0355417 -2.7553e-18)
(-0.00583877 -0.0334512 -2.86171e-18)
(-0.00187687 -0.0313617 -2.59449e-18)
(0.00194112 -0.0292725 -2.39495e-18)
(0.0055942 -0.0271836 -1.85836e-18)
(0.00906209 -0.0250937 -1.79075e-18)
(0.0123254 -0.0229995 -1.80634e-18)
(-0.0644858 -0.0609323 1.28171e-18)
(-0.0606458 -0.0590079 1.01825e-18)
(-0.0566887 -0.0570641 7.74262e-19)
(-0.052629 -0.0551461 5.94256e-19)
(-0.0484816 -0.053241 4.072e-19)
(-0.0442624 -0.0513405 2.35499e-19)
(-0.0399876 -0.0494445 8.02178e-20)
(-0.0356743 -0.0475551 -7.37797e-20)
(-0.0313399 -0.0456722 -7.0042e-19)
(-0.0270023 -0.0437749 -1.34008e-18)
(-0.095277 -0.0774904 3.12958e-18)
(-0.0928692 -0.0759994 3.84561e-18)
(-0.090298 -0.0741196 3.60519e-18)
(-0.0875679 -0.0724122 3.44688e-18)
(-0.0846837 -0.0707841 2.87139e-18)
(-0.0816508 -0.0691515 2.30737e-18)
(-0.0784747 -0.0675159 1.86395e-18)
(-0.0751618 -0.0658925 1.36467e-18)
(-0.0717195 -0.0642855 1.48573e-18)
(-0.0681554 -0.0626537 1.60998e-18)
(1.2317 0.00555287 6.57665e-20)
(1.2434 -0.0661212 -6.15703e-18)
(1.29509 -0.0841273 5.60274e-19)
(1.25058 -0.255406 4.59448e-18)
(0.862261 -0.182415 1.30478e-17)
(1.23048 0.00285137 -3.04295e-19)
(1.24189 -0.0703537 -4.29608e-18)
(1.29051 -0.0917126 7.0223e-19)
(1.24017 -0.264623 1.31159e-18)
(0.831959 -0.189073 1.28465e-17)
(1.22924 0.000139865 -1.51972e-19)
(1.24034 -0.0746201 -4.22844e-18)
(1.28587 -0.0993473 8.63537e-19)
(1.22959 -0.273732 1.6937e-18)
(0.802995 -0.1956 1.33717e-17)
(1.22791 -0.00257874 -2.85718e-19)
(1.23858 -0.0789174 -3.89616e-18)
(1.28093 -0.107026 7.43915e-19)
(1.21866 -0.28279 2.57707e-18)
(0.776325 -0.20205 1.20272e-17)
(1.2265 -0.00529967 -1.62517e-19)
(1.23665 -0.0832395 -3.71023e-18)
(1.27572 -0.11474 9.02968e-19)
(1.20739 -0.291827 6.39622e-18)
(0.751005 -0.20843 9.66048e-18)
(1.22502 -0.00801391 -2.02834e-19)
(1.23455 -0.0875744 -2.97868e-18)
(1.27027 -0.122475 9.90703e-19)
(1.19586 -0.300845 6.15672e-18)
(0.726704 -0.214681 8.25039e-18)
(1.22346 -0.0106977 -3.71423e-20)
(1.23231 -0.0918884 -1.18854e-18)
(1.26461 -0.130189 1.02212e-18)
(1.18414 -0.309798 5.31397e-18)
(0.703573 -0.220656 6.57408e-18)
(1.22183 -0.0132818 5.10341e-19)
(1.22991 -0.0960762 -7.94903e-19)
(1.25874 -0.137748 1.76276e-18)
(1.17226 -0.318492 4.53396e-18)
(0.681564 -0.226045 3.51484e-18)
(1.22011 -0.0155598 2.39139e-18)
(1.22728 -0.099803 3.95794e-19)
(1.25248 -0.144679 4.49806e-18)
(1.15974 -0.326242 1.00954e-18)
(0.659579 -0.230228 -4.15054e-18)
(1.21827 -0.0169095 3.62058e-18)
(1.22435 -0.101999 -1.04863e-18)
(1.2456 -0.149333 4.49922e-18)
(1.14601 -0.330728 7.52765e-19)
(0.637672 -0.232 -5.58808e-18)
(1.24273 0.0328924 -9.44802e-19)
(1.25533 -0.0225124 -3.54792e-18)
(1.33387 -0.0121087 -9.32656e-18)
(1.3263 -0.155263 -1.10515e-17)
(1.10111 -0.0961882 9.73294e-18)
(1.24192 0.0302043 -2.88024e-18)
(1.25468 -0.0268573 -3.24122e-18)
(1.33091 -0.0189982 -8.54525e-18)
(1.32002 -0.165892 -1.02773e-17)
(1.07231 -0.105789 1.94778e-17)
(1.24109 0.0275031 -3.1945e-18)
(1.25403 -0.0312113 -1.80487e-18)
(1.3279 -0.0259655 -4.87911e-18)
(1.31371 -0.176278 -9.44313e-18)
(1.04417 -0.115109 2.50325e-17)
(1.24017 0.0247912 -5.12763e-18)
(1.25322 -0.0355722 -3.65451e-18)
(1.32462 -0.0330023 -4.84663e-18)
(1.30701 -0.186491 -5.00399e-18)
(1.01829 -0.124222 2.15289e-17)
(1.23917 0.0220715 -6.27854e-18)
(1.25224 -0.0399364 -3.67397e-18)
(1.32107 -0.0400988 -4.59369e-18)
(1.29991 -0.19658 -3.94363e-18)
(0.993845 -0.133183 1.32086e-17)
(1.2381 0.0193465 -4.46761e-18)
(1.25112 -0.0443015 -4.44671e-18)
(1.3173 -0.0472472 -4.66113e-18)
(1.29251 -0.206576 1.74802e-19)
(0.970356 -0.142016 9.12986e-18)
(1.23695 0.0166177 -4.40458e-18)
(1.24986 -0.0486654 -6.47495e-18)
(1.3133 -0.0544419 -4.07924e-18)
(1.28484 -0.216497 -2.57366e-19)
(0.947795 -0.150729 2.46165e-18)
(1.23573 0.0138856 -3.86242e-18)
(1.24846 -0.0530262 -7.78145e-18)
(1.30909 -0.0616789 -3.71407e-18)
(1.27692 -0.22636 1.4667e-19)
(0.926239 -0.159301 4.1891e-18)
(1.23444 0.0111464 -1.71982e-18)
(1.2469 -0.0573823 -7.33897e-18)
(1.30467 -0.0689594 -2.76194e-18)
(1.26887 -0.236153 3.64461e-19)
(0.906245 -0.167642 7.25597e-18)
(1.23305 0.00838055 -1.45475e-19)
(1.24517 -0.0617348 -6.98052e-18)
(1.30006 -0.0763124 4.86922e-19)
(1.26108 -0.245806 1.26191e-18)
(0.888098 -0.175504 1.41995e-17)
(1.25926 0.0234052 4.23365e-18)
(1.35501 0.0515033 -1.93561e-17)
(1.36512 -0.040279 -2.46949e-17)
(1.29905 0.0167802 1.69701e-17)
(1.25927 0.0187715 2.10614e-18)
(1.35389 0.0455256 -1.56798e-17)
(1.36238 -0.0525867 -2.33073e-17)
(1.27533 0.00447813 2.67614e-17)
(1.25934 0.0141348 1.52574e-18)
(1.35269 0.0394505 -1.62641e-17)
(1.35978 -0.0645818 -2.21351e-17)
(1.2516 -0.0075096 3.25004e-17)
(1.25929 0.00949853 1.18852e-18)
(1.35123 0.0332856 -1.67298e-17)
(1.35684 -0.0763395 -2.05306e-17)
(1.23002 -0.0192495 3.14089e-17)
(1.25909 0.00486793 -1.00922e-18)
(1.34948 0.0270426 -1.93112e-17)
(1.3535 -0.0879249 -1.85524e-17)
(1.20992 -0.0308039 2.91717e-17)
(1.25876 0.00024715 -1.02772e-18)
(1.34748 0.0207312 -1.827e-17)
(1.34984 -0.0993734 -1.41146e-17)
(1.19073 -0.0422034 2.10526e-17)
(1.25833 -0.00436012 -1.27499e-18)
(1.34525 0.0143588 -1.35938e-17)
(1.3459 -0.110712 -1.39342e-17)
(1.17237 -0.0534667 1.84683e-17)
(1.25778 -0.00894991 -1.58661e-18)
(1.34278 0.00793054 -1.09093e-17)
(1.34171 -0.121963 -1.37893e-17)
(1.15492 -0.064601 1.75679e-17)
(1.2571 -0.0135168 -3.2554e-18)
(1.34009 0.00144527 -1.30733e-17)
(1.33735 -0.13314 -1.68361e-17)
(1.13881 -0.0755739 1.71751e-17)
(1.25624 -0.0180493 -1.76729e-18)
(1.33712 -0.00513201 -9.618e-18)
(1.33291 -0.144217 -1.57555e-17)
(1.12402 -0.0862239 1.52201e-17)
(1.25745 0.0715005 6.70408e-18)
(1.35618 0.106346 -1.24816e-17)
(1.37274 0.0881983 -1.585e-17)
(1.4263 0.148661 -4.33495e-18)
(1.25793 0.0667302 8.31482e-18)
(1.35712 0.101237 -1.26843e-17)
(1.37297 0.0747795 -1.9079e-17)
(1.41034 0.134916 -3.20664e-18)
(1.25848 0.0619317 9.57362e-18)
(1.35803 0.0960307 -1.32893e-17)
(1.3734 0.0616345 -1.95487e-17)
(1.39391 0.121399 5.34644e-18)
(1.25895 0.0571108 7.17276e-18)
(1.35864 0.0907324 -1.6185e-17)
(1.37358 0.048686 -2.29348e-17)
(1.37952 0.108049 6.96254e-18)
(1.2593 0.0522748 6.89916e-18)
(1.35893 0.0853521 -1.70314e-17)
(1.37339 0.0358597 -2.32906e-17)
(1.36663 0.0948031 1.36904e-17)
(1.25955 0.0474302 6.98138e-18)
(1.35894 0.0798991 -2.34482e-17)
(1.3729 0.0231141 -2.95522e-17)
(1.35462 0.0816278 1.39859e-17)
(1.25971 0.0425825 7.04108e-18)
(1.3587 0.0743809 -2.27617e-17)
(1.37213 0.0104191 -2.83946e-17)
(1.34337 0.0685021 1.59956e-17)
(1.25977 0.0377377 8.68103e-18)
(1.3582 0.068804 -2.23104e-17)
(1.37111 -0.00225424 -2.3652e-17)
(1.33298 0.0554078 2.41404e-17)
(1.25974 0.0329043 7.60799e-18)
(1.35744 0.0631701 -2.12568e-17)
(1.36989 -0.0149314 -2.66133e-17)
(1.32379 0.0423417 2.30547e-17)
(1.25953 0.0281011 5.2668e-18)
(1.35634 0.0574563 -2.01063e-17)
(1.36837 -0.0276197 -2.54433e-17)
(1.31554 0.0293735 1.55423e-17)
(1.09117 0.0764711 5.52949e-18)
(1.03316 0.0619481 1.56716e-18)
(0.882622 0.0324794 1.1994e-17)
(0.595019 -0.00602618 1.10983e-18)
(-0.115557 -0.0759356 -1.77219e-18)
)
;

boundaryField
{
    inlet
    {
        type            uniformFixedValue;
        uniformValue    constant (1 0 0);
        value           nonuniform 0();
    }
    outlet
    {
        type            pressureInletOutletVelocity;
        value           nonuniform 0();
    }
    polygon
    {
        type            fixedValue;
        value           uniform (0 0 0);
    }
    top
    {
        type            symmetryPlane;
    }
    bottom
    {
        type            symmetryPlane;
    }
    outside
    {
        type            zeroGradient;
    }
    procBoundary10to6
    {
        type            processor;
        value           uniform (0.0299393 0.00107632 4.52498e-19);
    }
    procBoundary10to9
    {
        type            processor;
        value           nonuniform List<vector> 4((1.25719 0.0762418 6.45925e-18) (1.35555 0.111361 -1.28683e-17) (1.37294 0.101761 -1.56551e-17) (1.43406 0.162472 -4.85415e-18));
    }
    procBoundary10to11
    {
        type            processor;
        value           nonuniform List<vector> 
26
(
(0.506651 -0.00869771 8.96158e-18)
(0.503276 -0.00771069 7.90635e-18)
(0.500269 -0.00674657 9.2868e-18)
(0.497633 -0.00580322 8.92177e-18)
(0.495369 -0.00487849 6.95539e-18)
(0.49348 -0.00396975 5.1642e-18)
(0.491966 -0.0030743 5.62159e-18)
(0.490829 -0.00218963 8.52621e-18)
(0.49007 -0.00131294 1.15964e-17)
(0.489691 -0.00043848 1.51823e-17)
(0.558344 -0.020091 1.41019e-17)
(0.551779 -0.0187911 1.35907e-17)
(0.545507 -0.0175249 1.35618e-17)
(0.539535 -0.0162989 1.39628e-17)
(0.533869 -0.0151126 1.28229e-17)
(0.528517 -0.0139638 9.95935e-18)
(0.523484 -0.0128508 7.48713e-18)
(0.518777 -0.0117724 7.36399e-18)
(0.5144 -0.0107264 7.6234e-18)
(0.510359 -0.00970476 8.2024e-18)
(0.601916 -0.0283829 1.34154e-17)
(0.594151 -0.0269036 1.40651e-17)
(0.586577 -0.0254671 1.51799e-17)
(0.579203 -0.0240743 1.46815e-17)
(0.572039 -0.0227242 1.4573e-17)
(0.565096 -0.0214036 1.31385e-17)
)
;
    }
    procBoundary10to14
    {
        type            processor;
        value           nonuniform List<vector> 
42
(
(1.20072 0.00489031 1.43858e-18)
(1.20029 0.00323207 1.49568e-18)
(1.19985 0.00157701 1.51674e-18)
(1.19935 -7.30709e-05 1.43484e-18)
(1.1988 -0.00171473 1.62587e-18)
(1.19821 -0.00334048 2.25029e-18)
(1.19757 -0.00493073 1.30746e-18)
(1.19689 -0.0064311 1.37919e-18)
(1.19615 -0.00768827 1.34304e-18)
(1.19534 -0.00826754 1.44283e-18)
(1.20454 0.0233277 8.05606e-19)
(1.24364 0.035656 -2.1893e-18)
(1.20433 0.0214441 1.02515e-18)
(1.20412 0.0195655 1.8834e-18)
(1.20385 0.0176928 1.34765e-18)
(1.20353 0.0158276 3.52891e-19)
(1.20317 0.0139709 1.77835e-19)
(1.20276 0.0121236 2.62467e-19)
(1.20231 0.0102867 5.12893e-19)
(1.20181 0.00846068 1.50288e-18)
(1.20125 0.00664491 1.48592e-18)
(1.24864 0.0597237 -1.05063e-18)
(1.24836 0.0571005 -2.82597e-18)
(1.24807 0.0544601 -2.58256e-18)
(1.24769 0.0518044 -2.15266e-18)
(1.24722 0.0491363 -4.42952e-19)
(1.24666 0.0464582 -1.07783e-18)
(1.24603 0.043772 -2.67684e-18)
(1.24533 0.041079 -2.08041e-18)
(1.24453 0.0383777 -6.26998e-19)
(1.24364 0.035656 -2.1893e-18)
(1.24832 0.0856865 -2.39037e-18)
(1.24868 0.0831439 1.14997e-20)
(1.24904 0.0805862 1.87359e-18)
(1.2493 0.0780141 1.68415e-18)
(1.24947 0.0754299 1.18757e-18)
(1.24954 0.0728356 -8.13557e-19)
(1.24954 0.0702328 -6.9642e-19)
(1.24945 0.0676226 -4.86746e-19)
(1.24927 0.0650049 -3.8463e-19)
(1.24898 0.0623742 -5.98439e-19)
(1.13551 0.0829529 5.66013e-18)
)
;
    }
    procBoundary10to15
    {
        type            processor;
        value           nonuniform List<vector> 
19
(
(0.634642 -0.0347279 1.11718e-17)
(0.626233 -0.0330889 1.00633e-17)
(0.617968 -0.0314746 1.13708e-17)
(0.609858 -0.0299057 1.31354e-17)
(0.719098 -0.0518704 1.10547e-17)
(0.710652 -0.0498683 7.25656e-18)
(0.702183 -0.0481054 5.61624e-18)
(0.693699 -0.0463369 5.93282e-18)
(0.685209 -0.0445751 6.8278e-18)
(0.676724 -0.0428511 7.77335e-18)
(0.668252 -0.0411685 8.98124e-18)
(0.659805 -0.039527 1.03916e-17)
(0.651393 -0.037926 1.23745e-17)
(0.643026 -0.0363403 1.26104e-17)
(1.14921 -0.0756254 -4.90938e-17)
(1.1256 -0.0926198 -6.64112e-18)
(1.0741 -0.0912977 -4.93728e-17)
(0.953836 -0.110728 -6.01481e-18)
(0.797887 -0.0760103 4.68262e-17)
)
;
    }
}


// ************************************************************************* //
