/*--------------------------------*- C++ -*----------------------------------*\
  =========                 |
  \\      /  F ield         | OpenFOAM: The Open Source CFD Toolbox
   \\    /   O peration     | Website:  https://openfoam.org
    \\  /    A nd           | Version:  7
     \\/     M anipulation  |
\*---------------------------------------------------------------------------*/
FoamFile
{
    version     2.0;
    format      ascii;
    class       surfaceScalarField;
    location    "88";
    object      phi;
}
// * * * * * * * * * * * * * * * * * * * * * * * * * * * * * * * * * * * * * //

dimensions      [0 3 -1 0 0 0 0];

internalField   nonuniform List<scalar> 
14496
(
0.00154749
1.44758e-07
-3.27402e-07
0.0015482
6.33581e-07
-1.35125e-06
0.00154975
1.39674e-06
-2.93927e-06
0.00155197
2.04029e-06
-4.26051e-06
0.00155459
2.42651e-06
-5.04633e-06
0.00155729
2.51016e-06
-5.21217e-06
0.00155976
2.29151e-06
-4.76481e-06
0.00156173
1.80537e-06
-3.77896e-06
0.00156299
1.1008e-06
-2.35555e-06
0.00156336
2.30183e-07
-6.00253e-07
0.00156272
-7.72668e-07
1.4153e-06
0.00156097
-1.86781e-06
3.61366e-06
0.00155808
-3.00963e-06
5.90294e-06
0.00155402
-4.17105e-06
8.22926e-06
0.0015488
-5.3298e-06
1.05482e-05
0.00154245
-6.46749e-06
1.28232e-05
0.00153499
-7.56936e-06
1.50248e-05
0.00152648
-8.62371e-06
1.71297e-05
0.00151699
-9.62127e-06
1.91197e-05
0.00150656
-1.05547e-05
2.098e-05
0.00149528
-1.14179e-05
2.26987e-05
0.00148322
-1.22059e-05
2.42662e-05
0.00147046
-1.29147e-05
2.56743e-05
0.00145708
-1.35407e-05
2.69162e-05
0.00144318
-1.40809e-05
2.79861e-05
0.00142883
-1.45328e-05
2.88794e-05
0.00141413
-1.48948e-05
2.95929e-05
0.00139918
-1.51658e-05
3.01247e-05
0.00138405
-1.53456e-05
3.04748e-05
0.00136884
-1.54349e-05
3.0645e-05
0.00135363
-1.54355e-05
3.06388e-05
0.00133852
-1.53499e-05
3.04619e-05
0.00132358
-1.51818e-05
3.01216e-05
0.00130889
-1.49354e-05
2.96269e-05
0.00129452
-1.46159e-05
2.89881e-05
0.00128053
-1.4229e-05
2.82167e-05
0.00126698
-1.37807e-05
2.73253e-05
0.00125394
-1.32777e-05
2.63269e-05
0.00124143
-1.27267e-05
2.52352e-05
0.0012295
-1.21347e-05
2.4064e-05
0.00121818
-1.15085e-05
2.2827e-05
0.0012075
-1.08551e-05
2.15381e-05
0.00119747
-1.01813e-05
2.02103e-05
0.0011881
-9.49345e-06
1.88568e-05
0.00117941
-8.79795e-06
1.74896e-05
0.00117139
-8.10074e-06
1.61205e-05
0.00116404
-7.40743e-06
1.47604e-05
0.00115734
-6.72333e-06
1.34197e-05
0.00115129
-6.05334e-06
1.21077e-05
0.00114586
-5.4019e-06
1.08331e-05
0.00114103
-4.77303e-06
9.60344e-06
0.00113677
-4.17032e-06
8.42563e-06
0.00113306
-3.59689e-06
7.30555e-06
0.00112987
-3.05541e-06
6.24824e-06
0.00112716
-2.54811e-06
5.25785e-06
0.0011249
-2.0768e-06
4.33773e-06
0.00112305
-1.64288e-06
3.49044e-06
0.00112158
-1.24737e-06
2.71787e-06
0.00112045
-8.90942e-07
2.02126e-06
0.00111962
-5.73943e-07
1.40132e-06
0.00111906
-2.95716e-07
8.58077e-07
0.00111872
-5.23318e-08
3.90653e-07
0.0011186
1.38017e-07
-1.15673e-08
0.0011186
2.9917e-07
-3.04454e-07
0.00111873
4.14846e-07
-5.39022e-07
0.00111893
4.92361e-07
-6.95112e-07
0.00111917
5.31398e-07
-7.72157e-07
0.00111941
5.30471e-07
-7.69112e-07
0.0011196
4.89991e-07
-6.8493e-07
0.00111971
4.10833e-07
-5.14479e-07
0.00111969
2.78205e-07
-2.60966e-07
0.0011195
1.02332e-07
8.70106e-08
0.00111907
-1.27923e-07
5.62204e-07
0.00111834
-4.14607e-07
1.13661e-06
0.00111727
-7.6131e-07
1.83813e-06
0.00111576
-1.17855e-06
2.68242e-06
0.00111375
-1.67622e-06
3.68937e-06
0.00111113
-2.26643e-06
4.88306e-06
0.0011078
-2.96415e-06
6.29318e-06
0.00110364
-3.78765e-06
7.95579e-06
0.00109848
-4.7595e-06
9.91538e-06
0.00109216
-5.90766e-06
1.2227e-05
0.00108447
-7.26691e-06
1.49589e-05
0.00107515
-8.88087e-06
1.81971e-05
0.00106391
-1.08047e-05
2.20496e-05
0.00105036
-1.31089e-05
2.66555e-05
0.00103405
-1.58846e-05
3.21934e-05
0.00101441
-1.92509e-05
3.88972e-05
0.000990694
-2.33682e-05
4.7081e-05
0.00096199
-2.84377e-05
5.71418e-05
0.000927064
-3.47875e-05
6.97138e-05
0.000884445
-4.26529e-05
8.52717e-05
0.000831734
-5.30444e-05
0.000105755
0.000767087
-6.5361e-05
0.000130008
0.000684299
-8.4111e-05
0.000166899
0.000584914
-0.000101569
0.000200954
0.000451385
-0.000136579
0.000270108
0.000304605
-0.000152
0.00029878
0.000127765
-0.000179957
0.000356797
-0.000131175
0.00025894
0.00156304
4.29338e-10
0.00156367
3.4682e-09
0.00156506
7.85029e-09
0.00156708
1.30443e-08
0.00156949
1.8629e-08
0.00157198
2.43517e-08
0.00157424
3.00634e-08
0.00157601
3.57053e-08
0.00157707
4.10797e-08
0.00157725
4.62275e-08
0.00157643
5.24589e-08
0.0015745
5.72577e-08
0.00157143
6.14085e-08
0.00156719
6.48776e-08
0.0015618
6.74605e-08
0.00155526
6.89454e-08
0.00154762
6.91533e-08
0.00153893
6.79399e-08
0.00152924
6.52066e-08
0.00151863
6.0911e-08
0.00150716
5.50688e-08
0.0014949
4.77539e-08
0.00148195
3.90947e-08
0.00146838
2.92688e-08
0.00145428
1.84933e-08
0.00143974
7.01591e-09
0.00142485
-4.89628e-09
0.0014097
-1.69413e-08
0.00139438
-2.88462e-08
0.00137899
-4.03148e-08
0.0013636
-5.10667e-08
0.00134832
-6.0836e-08
0.0013332
-6.93784e-08
0.00131834
-7.64757e-08
0.00130381
-8.19409e-08
0.00128967
-8.56263e-08
0.00127597
-8.74228e-08
0.00126278
-8.72651e-08
0.00125014
-8.51324e-08
0.00123809
-8.10496e-08
0.00122665
-7.50873e-08
0.00121587
-6.73592e-08
0.00120574
-5.80198e-08
0.0011963
-4.72602e-08
0.00118753
-3.53038e-08
0.00117946
-2.24008e-08
0.00117206
-8.81982e-09
0.00116533
5.15016e-09
0.00115926
1.91672e-08
0.00115382
3.29726e-08
0.001149
4.62371e-08
0.00114477
5.86578e-08
0.00114111
6.99376e-08
0.00113797
7.98046e-08
0.00113534
8.80126e-08
0.00113316
9.43466e-08
0.00113142
9.86348e-08
0.00113007
1.00749e-07
0.00112908
1.00652e-07
0.00112841
9.8314e-08
0.00112802
9.41222e-08
0.00112788
8.70471e-08
0.00112794
7.76768e-08
0.00112818
6.3932e-08
0.00112854
5.14036e-08
0.00112899
3.83161e-08
0.0011295
2.38103e-08
0.00113002
8.98401e-09
0.00113052
-6.07231e-09
0.00113095
-2.01976e-08
0.00113126
-3.46913e-08
0.00113142
-4.96782e-08
0.00113135
-6.13141e-08
0.00113101
-7.03715e-08
0.00113032
-7.71295e-08
0.00112922
-8.17293e-08
0.00112763
-8.40542e-08
0.00112545
-8.39998e-08
0.00112257
-8.1588e-08
0.00111886
-7.69464e-08
0.00111417
-7.02998e-08
0.00110832
-6.19584e-08
0.00110111
-5.22993e-08
0.00109227
-4.17484e-08
0.00108149
-3.07595e-08
0.0010684
-1.97959e-08
0.00105253
-9.29879e-09
0.00103328
3.59609e-10
0.0010099
8.716e-09
0.000981448
1.56167e-08
0.000946639
2.09315e-08
0.000903962
2.43926e-08
0.000850891
2.64137e-08
0.000785503
2.66219e-08
0.000701367
2.57315e-08
0.000599774
2.36584e-08
0.000463174
2.11694e-08
0.000311155
1.84653e-08
0.000131183
1.48522e-08
8.14931e-09
0.00141645
5.85997e-07
-9.88949e-07
0.00141762
2.22518e-06
-3.3993e-06
0.0014199
4.73396e-06
-7.01276e-06
0.00142299
6.77977e-06
-9.87622e-06
0.00142654
7.98019e-06
-1.15229e-05
0.00143015
8.22614e-06
-1.18425e-05
0.00143351
7.54365e-06
-1.09002e-05
0.00143633
6.05542e-06
-8.87999e-06
0.00143842
3.91732e-06
-5.99949e-06
0.0014396
1.29094e-06
-2.47716e-06
0.00143979
-1.70959e-06
1.52175e-06
0.0014389
-4.98203e-06
5.87397e-06
0.00143689
-8.38154e-06
1.0387e-05
0.00143376
-1.18318e-05
1.49606e-05
0.00142952
-1.52678e-05
1.95097e-05
0.00142419
-1.86357e-05
2.3965e-05
0.00141782
-2.18929e-05
2.82712e-05
0.00141044
-2.50055e-05
3.23846e-05
0.00140211
-2.79468e-05
3.62706e-05
0.00139291
-3.06954e-05
3.99019e-05
0.00138288
-3.32341e-05
4.32559e-05
0.00137212
-3.55487e-05
4.63144e-05
0.00136068
-3.76273e-05
4.90618e-05
0.00134866
-3.946e-05
5.1485e-05
0.00133612
-4.10383e-05
5.35731e-05
0.00132316
-4.23556e-05
5.53172e-05
0.00130986
-4.34072e-05
5.67112e-05
0.0012963
-4.41905e-05
5.77516e-05
0.00128256
-4.47055e-05
5.84385e-05
0.00126874
-4.49549e-05
5.87759e-05
0.00125492
-4.49445e-05
5.87712e-05
0.00124116
-4.46827e-05
5.84359e-05
0.00122756
-4.41807e-05
5.77849e-05
0.00121417
-4.34518e-05
5.68363e-05
0.00120108
-4.25117e-05
5.56109e-05
0.00118832
-4.13775e-05
5.41317e-05
0.00117597
-4.00681e-05
5.24237e-05
0.00116406
-3.86028e-05
5.05128e-05
0.00115263
-3.7002e-05
4.84259e-05
0.00114173
-3.52862e-05
4.61904e-05
0.00113137
-3.34759e-05
4.38332e-05
0.00112158
-3.15911e-05
4.1381e-05
0.00111237
-2.96516e-05
3.88599e-05
0.00110375
-2.76763e-05
3.62948e-05
0.00109573
-2.56833e-05
3.37095e-05
0.00108829
-2.36897e-05
3.11265e-05
0.00108144
-2.17115e-05
2.85669e-05
0.00107515
-1.97638e-05
2.60504e-05
0.00106941
-1.78603e-05
2.35948e-05
0.00106421
-1.60134e-05
2.12165e-05
0.00105952
-1.42344e-05
1.893e-05
0.0010553
-1.25329e-05
1.67478e-05
0.00105154
-1.09176e-05
1.46809e-05
0.00104819
-9.39546e-06
1.27386e-05
0.00104524
-7.97254e-06
1.09283e-05
0.00104264
-6.65349e-06
9.25606e-06
0.00104035
-5.44192e-06
7.72625e-06
0.00103835
-4.34041e-06
6.3421e-06
0.00103659
-3.35065e-06
5.10564e-06
0.00103505
-2.47351e-06
4.01794e-06
0.00103368
-1.70898e-06
3.07921e-06
0.00103245
-1.0558e-06
2.2884e-06
0.00103132
-5.2038e-07
1.64536e-06
0.00103025
-8.48723e-08
1.16046e-06
0.00102921
2.13968e-07
8.21483e-07
0.00102818
4.0395e-07
6.32428e-07
0.0010271
4.81877e-07
5.97292e-07
0.00102593
4.41722e-07
7.19652e-07
0.00102465
2.83135e-07
1.00211e-06
0.00102318
2.01677e-08
1.45321e-06
0.00102152
-4.20933e-07
2.07861e-06
0.00101961
-9.86603e-07
2.89463e-06
0.00101739
-1.70777e-06
3.92386e-06
0.00101482
-2.59935e-06
5.1767e-06
0.00101182
-3.68013e-06
6.68026e-06
0.00100832
-4.97393e-06
8.4663e-06
0.00100426
-6.51024e-06
1.05733e-05
0.000999538
-8.32462e-06
1.30477e-05
0.000994052
-1.04609e-05
1.59468e-05
0.000987685
-1.29723e-05
1.93398e-05
0.000980297
-1.59242e-05
2.33118e-05
0.000971727
-1.93975e-05
2.79677e-05
0.000961782
-2.34927e-05
3.34376e-05
0.000950234
-2.83355e-05
3.98841e-05
0.000936806
-3.40847e-05
4.75121e-05
0.000921167
-4.09438e-05
5.65832e-05
0.000902908
-4.91741e-05
6.74328e-05
0.000881526
-5.91183e-05
8.05004e-05
0.000856394
-7.1232e-05
9.6364e-05
0.000826715
-8.61029e-05
0.000115782
0.000791495
-0.000104622
0.000139843
0.000749447
-0.000127575
0.000169622
0.000698827
-0.000157565
0.000208185
0.000637804
-0.000193363
0.000254385
0.000562252
-0.000246798
0.00032235
0.000473252
-0.000296625
0.000385625
0.000357316
-0.000396298
0.000512234
0.000237583
-0.000433165
0.000552897
8.48593e-05
-0.000517921
0.000670645
-0.000352275
0.000437134
0.00145875
0.00145962
0.00146142
0.00146394
0.00146687
0.00146988
0.00147266
0.00147494
0.0014765
0.00147719
0.0014769
0.00147553
0.00147305
0.00146945
0.00146473
0.00145892
0.00145205
0.00144417
0.00143534
0.00142563
0.00141509
0.00140381
0.00139186
0.00137931
0.00136626
0.00135279
0.00133897
0.00132491
0.00131068
0.00129637
0.00128206
0.00126784
0.00125378
0.00123996
0.00122643
0.00121327
0.00120053
0.00118825
0.00117649
0.00116526
0.00115461
0.00114456
0.00113512
0.0011263
0.00111811
0.00111054
0.00110359
0.00109724
0.00109149
0.00108631
0.00108168
0.00107757
0.00107396
0.00107081
0.0010681
0.00106578
0.00106383
0.00106221
0.00106088
0.00105981
0.00105895
0.00105829
0.00105776
0.00105737
0.00105704
0.00105675
0.00105646
0.00105613
0.00105573
0.00105524
0.00105456
0.00105366
0.00105251
0.00105105
0.00104921
0.00104691
0.00104409
0.00104065
0.00103648
0.00103147
0.00102546
0.00101829
0.00100976
0.000999617
0.000987582
0.000973293
0.000956312
0.000936091
0.00091194
0.000882979
0.000848071
0.000805768
0.000753958
0.000690604
0.000610704
0.000515034
0.000388844
0.000254459
9.33348e-05
0.00119852
1.57368e-06
-2.47397e-06
0.00120061
4.9068e-06
-6.9954e-06
0.00120416
9.74994e-06
-1.32979e-05
0.00120864
1.34645e-05
-1.7944e-05
0.00121353
1.55373e-05
-2.04324e-05
0.00121842
1.58956e-05
-2.07795e-05
0.00122296
1.46666e-05
-1.92049e-05
0.0012269
1.21059e-05
-1.60502e-05
0.00123007
8.49499e-06
-1.16677e-05
0.00123235
4.10839e-06
-6.38466e-06
0.00123366
-8.29356e-07
-4.80412e-07
0.00123395
-6.20103e-06
5.90796e-06
0.00123321
-1.17508e-05
1.24964e-05
0.00123142
-1.73658e-05
1.91501e-05
0.00122862
-2.2943e-05
2.5749e-05
0.00122482
-2.83997e-05
3.21986e-05
0.00122006
-3.367e-05
3.84239e-05
0.0012144
-3.8702e-05
4.43655e-05
0.00120788
-4.34547e-05
4.99767e-05
0.00120055
-4.78952e-05
5.52197e-05
0.00119249
-5.19969e-05
6.00639e-05
0.00118374
-5.57376e-05
6.44838e-05
0.00117438
-5.90987e-05
6.84575e-05
0.00116448
-6.20643e-05
7.19664e-05
0.0011541
-6.46209e-05
7.49947e-05
0.00114333
-6.67579e-05
7.75296e-05
0.00113224
-6.84674e-05
7.95619e-05
0.0011209
-6.97456e-05
8.10869e-05
0.00110939
-7.05926e-05
8.21048e-05
0.00109778
-7.10132e-05
8.26216e-05
0.00108615
-7.10171e-05
8.26489e-05
0.00107456
-7.06185e-05
8.22039e-05
0.00106309
-6.98361e-05
8.13092e-05
0.00105179
-6.86925e-05
7.99919e-05
0.00104072
-6.72134e-05
7.82828e-05
0.00102993
-6.54276e-05
7.62165e-05
0.00101947
-6.33658e-05
7.38295e-05
0.00100936
-6.10602e-05
7.11605e-05
0.00099966
-5.8544e-05
6.82488e-05
0.000990377
-5.58507e-05
6.51342e-05
0.000981534
-5.30136e-05
6.18563e-05
0.000973146
-5.00655e-05
5.84539e-05
0.000965219
-4.70382e-05
5.49645e-05
0.000957757
-4.39621e-05
5.14244e-05
0.000950756
-4.08665e-05
4.78676e-05
0.000944208
-3.77786e-05
4.43265e-05
0.000938101
-3.47242e-05
4.08311e-05
0.000932419
-3.1727e-05
3.74092e-05
0.000927141
-2.88089e-05
3.40864e-05
0.000922245
-2.59893e-05
3.08854e-05
0.000917705
-2.32857e-05
2.78263e-05
0.000913491
-2.07132e-05
2.49267e-05
0.000909575
-1.82849e-05
2.22013e-05
0.000905924
-1.60115e-05
1.96625e-05
0.000902506
-1.3902e-05
1.73203e-05
0.000899286
-1.19631e-05
1.51823e-05
0.000896232
-1.02001e-05
1.3254e-05
0.000893309
-8.61633e-06
1.15393e-05
0.000890483
-7.21414e-06
1.00405e-05
0.000887719
-5.99454e-06
8.75842e-06
0.000884984
-4.95771e-06
7.69333e-06
0.000882242
-4.10324e-06
6.84463e-06
0.000879461
-3.43247e-06
6.21332e-06
0.000876605
-2.94497e-06
5.80145e-06
0.000873642
-2.6438e-06
5.60687e-06
0.000870539
-2.52745e-06
5.63026e-06
0.000867261
-2.5984e-06
5.87635e-06
0.000863772
-2.86166e-06
6.35124e-06
0.000860031
-3.32206e-06
7.06223e-06
0.000855998
-3.98442e-06
8.01828e-06
0.000851635
-4.8739e-06
9.23653e-06
0.000846898
-5.99609e-06
1.07328e-05
0.000841738
-7.37533e-06
1.25352e-05
0.000836102
-9.0327e-06
1.46691e-05
0.000829931
-1.10002e-05
1.71714e-05
0.00082316
-1.33162e-05
2.00868e-05
0.000815717
-1.60273e-05
2.347e-05
0.000807521
-1.91903e-05
2.73865e-05
0.000798478
-2.28748e-05
3.19176e-05
0.000788483
-2.71645e-05
3.71596e-05
0.000777414
-3.21626e-05
4.32316e-05
0.000765131
-3.79958e-05
5.02792e-05
0.00075147
-4.48209e-05
5.84818e-05
0.000736241
-5.28336e-05
6.80629e-05
0.000719218
-6.22795e-05
7.93017e-05
0.000700137
-7.3472e-05
9.25529e-05
0.000678682
-8.6811e-05
0.000108266
0.000654473
-0.00010282
0.000127029
0.000627058
-0.00012218
0.000149596
0.000595877
-0.000145799
0.000176979
0.000560308
-0.000174902
0.000210472
0.000519463
-0.000210922
0.000251767
0.000472718
-0.000256934
0.000303679
0.000418422
-0.000312746
0.000367042
0.000356406
-0.000391882
0.000453899
0.000285487
-0.000467678
0.000538597
0.000204864
-0.00061211
0.000692733
0.00012588
-0.000652061
0.000731045
1.78786e-05
-0.000793347
0.000901349
-0.000463202
0.00048108
0.00125607
0.00125758
0.00126032
0.0012639
0.00126792
0.00127197
0.00127574
0.00127896
0.00128146
0.00128309
0.00128378
0.00128346
0.00128209
0.00127969
0.00127625
0.00127182
0.00126642
0.0012601
0.00125292
0.00124493
0.00123619
0.00122676
0.00121672
0.00120615
0.0011951
0.00118366
0.0011719
0.00115991
0.00114775
0.00113552
0.00112327
0.00111109
0.00109904
0.00108718
0.00107558
0.00106428
0.00105334
0.00104279
0.00103267
0.00102301
0.00101383
0.00100515
0.00099697
0.000989303
0.000982146
0.000975494
0.000969336
0.00096366
0.000958446
0.000953673
0.000949317
0.000945352
0.000941748
0.000938475
0.000935501
0.000932794
0.00093032
0.000928046
0.000925938
0.000923961
0.000922082
0.000920268
0.000918481
0.000916696
0.000914874
0.000912979
0.000910978
0.000908836
0.000906516
0.000903984
0.000901189
0.000898088
0.000894636
0.00089078
0.00088646
0.00088161
0.000876156
0.000870014
0.000863086
0.000855261
0.00084641
0.000836382
0.000824999
0.000812049
0.000797282
0.000780393
0.000761015
0.000738695
0.000712879
0.000682862
0.000647803
0.000606503
0.000557755
0.000499394
0.000429862
0.000347809
0.000247933
0.00014877
2.60673e-05
0.000936749
3.65145e-06
-5.35838e-06
0.00094008
9.52361e-06
-1.28541e-05
0.000945067
1.72898e-05
-2.2277e-05
0.000950915
2.28078e-05
-2.86558e-05
0.000957005
2.56137e-05
-3.17038e-05
0.000962916
2.58727e-05
-3.17841e-05
0.000968365
2.3915e-05
-2.93638e-05
0.000973162
2.01684e-05
-2.49648e-05
0.000977183
1.50515e-05
-1.90725e-05
0.000980348
8.9394e-06
-1.21046e-05
0.000982599
2.15187e-06
-4.4029e-06
0.000983949
-5.14226e-06
3.79193e-06
0.000984373
-1.26599e-05
1.2236e-05
0.000983884
-2.02315e-05
2.07205e-05
0.000982503
-2.773e-05
2.91109e-05
0.000980259
-3.50512e-05
3.72955e-05
0.000977186
-4.2113e-05
4.51855e-05
0.000973326
-4.88503e-05
5.27108e-05
0.000968722
-5.52116e-05
5.98157e-05
0.000963422
-6.11556e-05
6.64557e-05
0.000957476
-6.66482e-05
7.25937e-05
0.000950939
-7.16611e-05
7.81986e-05
0.000943865
-7.617e-05
8.32436e-05
0.000936314
-8.01536e-05
8.77051e-05
0.000928345
-8.35941e-05
9.1563e-05
0.00092002
-8.64768e-05
9.4801e-05
0.000911404
-8.87914e-05
9.74073e-05
0.000902561
-9.05324e-05
9.93757e-05
0.000893555
-9.17002e-05
0.000100707
0.000884448
-9.2302e-05
0.000101409
0.000875301
-9.23514e-05
0.000101498
0.000866173
-9.18686e-05
0.000100997
0.000857117
-9.08798e-05
9.99358e-05
0.000848183
-8.94163e-05
9.83505e-05
0.000839415
-8.75142e-05
9.6282e-05
0.000830852
-8.52131e-05
9.37756e-05
0.000822529
-8.25553e-05
9.0879e-05
0.000814471
-7.95849e-05
8.76423e-05
0.000806702
-7.63471e-05
8.41164e-05
0.000799237
-7.28875e-05
8.03528e-05
0.000792086
-6.92511e-05
7.64019e-05
0.000785255
-6.54822e-05
7.23135e-05
0.000778743
-6.16235e-05
6.81354e-05
0.000772545
-5.77159e-05
6.39133e-05
0.000766653
-5.37982e-05
5.96905e-05
0.000761052
-4.99068e-05
5.55075e-05
0.000755726
-4.60755e-05
5.14016e-05
0.000750654
-4.23358e-05
4.74076e-05
0.000745813
-3.87161e-05
4.35571e-05
0.000741177
-3.52418e-05
3.98778e-05
0.000736718
-3.19352e-05
3.63942e-05
0.000732407
-2.88156e-05
3.31271e-05
0.000728212
-2.58994e-05
3.00941e-05
0.000724102
-2.31998e-05
2.73095e-05
0.000720045
-2.07276e-05
2.47844e-05
0.000716009
-1.84908e-05
2.2527e-05
0.000711961
-1.64951e-05
2.05435e-05
0.000707868
-1.47444e-05
1.88374e-05
0.000703698
-1.32409e-05
1.74107e-05
0.000699419
-1.19853e-05
1.62639e-05
0.000695
-1.09776e-05
1.53969e-05
0.000690408
-1.02172e-05
1.48091e-05
0.000685612
-9.7051e-06
1.45009e-05
0.000680581
-9.44191e-06
1.44733e-05
0.000675282
-9.42707e-06
1.47256e-05
0.000669684
-9.66202e-06
1.526e-05
0.000663754
-1.01519e-05
1.60823e-05
0.000657457
-1.09036e-05
1.72009e-05
0.000650757
-1.19259e-05
1.86261e-05
0.000643615
-1.32298e-05
2.03713e-05
0.000635993
-1.4835e-05
2.24571e-05
0.000627848
-1.67605e-05
2.4906e-05
0.000619133
-1.90366e-05
2.77513e-05
0.000609798
-2.16938e-05
3.10282e-05
0.00059979
-2.47743e-05
3.47832e-05
0.000589046
-2.83287e-05
3.90724e-05
0.000577501
-3.24183e-05
4.39635e-05
0.00056508
-3.71175e-05
4.9538e-05
0.000551702
-4.25173e-05
5.58957e-05
0.000537274
-4.87255e-05
6.31537e-05
0.000521692
-5.5875e-05
7.14563e-05
0.000504842
-6.41279e-05
8.09784e-05
0.000486591
-7.36832e-05
9.1934e-05
0.000466792
-8.47877e-05
0.000104587
0.000445277
-9.77487e-05
0.000119263
0.000421859
-0.000112954
0.000136372
0.000396327
-0.000130894
0.000156426
0.000368449
-0.000152204
0.000180082
0.000337976
-0.000177693
0.000208166
0.000304652
-0.00020844
0.000241763
0.000268275
-0.000245769
0.000282146
0.00022855
-0.00029153
0.000331255
0.000185974
-0.000348149
0.000390726
0.00013966
-0.00041756
0.000463874
9.48433e-05
-0.000508116
0.000552932
4.62802e-05
-0.000600373
0.000648936
1.73476e-05
-0.000749404
0.000778336
-1.45823e-05
-0.000789785
0.000821715
-2.50953e-05
-0.000956963
0.000967476
-0.000437827
0.000412732
0.000995003
0.000997531
0.00100152
0.00100639
0.00101157
0.00101666
0.00102137
0.00102549
0.00102887
0.00103143
0.0010331
0.00103387
0.0010337
0.00103262
0.00103064
0.00102779
0.0010241
0.00101961
0.00101438
0.00100844
0.00100186
0.00099468
0.000986968
0.000978781
0.000970181
0.000961234
0.000952005
0.000942559
0.000932964
0.000923283
0.000913581
0.000903916
0.000894345
0.000884921
0.000875689
0.000866693
0.000857967
0.000849543
0.000841444
0.000833691
0.000826296
0.000819268
0.000812609
0.000806318
0.000800387
0.000794807
0.000789562
0.000784636
0.000780006
0.00077565
0.000771541
0.000767652
0.000763954
0.000760416
0.000757009
0.000753701
0.00075046
0.000747254
0.000744054
0.000740827
0.000737543
0.00073417
0.000730678
0.000727038
0.000723218
0.000719186
0.00071491
0.000710358
0.000705494
0.000700283
0.000694684
0.000688657
0.000682155
0.000675131
0.000667528
0.000659286
0.000650338
0.000640607
0.000630007
0.000618441
0.000605798
0.000591949
0.000576747
0.000560023
0.000541576
0.000521174
0.000498546
0.000473371
0.000445274
0.000413814
0.000378517
0.000338754
0.000294284
0.000243765
0.000189548
0.000127772
7.11006e-05
1.23611e-05
-4.32528e-05
-0.000887479
0.010534
-0.0103036
-0.00111855
0.0105251
-0.010294
-0.00135048
0.010512
-0.01028
-0.00158368
0.0105025
-0.0102693
-0.00181824
0.0104983
-0.0102637
-0.0020546
0.0105005
-0.0102641
-0.00229318
0.0105102
-0.0102716
-0.0025346
0.010529
-0.0102876
-0.00277961
0.010559
-0.010314
-0.00302886
0.0106022
-0.0103529
-0.0032814
0.010658
-0.0104055
-0.00352919
0.0107154
-0.0104677
-0.00374281
0.0107303
-0.0105167
-0.00384427
0.0105789
-0.0104775
-0.00368351
0.010006
-0.0101667
-0.00307787
0.00864133
-0.00924697
-0.0019872
0.00615512
-0.00724578
-0.000772968
0.0027992
-0.00401343
-0.000100345
0.000219629
-0.000892252
-0.000521438
0.000421093
-0.000893265
0.0107631
-0.00112559
0.0107574
-0.00135773
0.0107441
-0.00159166
0.0107364
-0.00182677
0.0107334
-0.00206377
0.0107374
-0.0023029
0.0107493
-0.00254473
0.0107708
-0.00278949
0.0108037
-0.00303608
0.0108488
-0.00327851
0.0109005
-0.00349709
0.010934
-0.00364241
0.0108757
-0.00361872
0.0105552
-0.00328729
0.00967455
-0.00253855
0.00789259
-0.00144848
0.00506505
-0.000479965
0.00183069
-3.54454e-05
-0.00022489
-0.000556883
-0.000916758
0.01012
-0.00993577
-0.00110128
0.0101102
-0.00992565
-0.00128694
0.0100948
-0.00990914
-0.001474
0.0100827
-0.00989568
-0.0016627
0.0100756
-0.00988688
-0.00185335
0.0100741
-0.00988343
-0.00204638
0.0100794
-0.00988633
-0.0022423
0.0100927
-0.00989682
-0.00244185
0.0101161
-0.00991658
-0.00264589
0.010152
-0.00994794
-0.00285485
0.0102026
-0.00999367
-0.00306657
0.010268
-0.0100562
-0.00327023
0.0103358
-0.0101321
-0.0034302
0.0103593
-0.0101993
-0.00346375
0.0102112
-0.0101776
-0.00322293
0.00961733
-0.00985815
-0.00252618
0.00808328
-0.00878002
-0.00131545
0.00518875
-0.00639948
-0.000272675
0.00167071
-0.00271348
-0.000280732
8.05699e-06
-0.000925031
-0.00110885
-0.0012941
-0.00148062
-0.00166879
-0.00185881
-0.00205104
-0.00224588
-0.00244374
-0.0026447
-0.00284757
-0.00304726
-0.00322822
-0.00334641
-0.00330198
-0.00293163
-0.00209413
-0.000918819
-0.000140361
-0.000904863
0.00980471
-0.00967256
-0.00103752
0.00979424
-0.00966158
-0.00117146
0.00977625
-0.0096423
-0.00130712
0.00976135
-0.00962569
-0.00144467
0.00975065
-0.00961309
-0.00158447
0.00974513
-0.00960534
-0.00172691
0.00974562
-0.00960318
-0.00187247
0.00975336
-0.0096078
-0.0020218
0.00976992
-0.00962059
-0.00217566
0.00979761
-0.00964374
-0.00233477
0.00983929
-0.00968018
-0.00249904
0.00989791
-0.00973363
-0.00266587
0.00997274
-0.00980592
-0.00282389
0.0100553
-0.00989723
-0.00294125
0.0100974
-0.00998006
-0.00292645
0.00995621
-0.00997101
-0.00260362
0.00923841
-0.00956124
-0.001758
0.00734828
-0.0081939
-0.000572055
0.00373282
-0.00491876
0.000333138
-0.000905193
-0.000915111
-0.00104652
-0.00117942
-0.00131375
-0.00144999
-0.00158828
-0.00172899
-0.00187245
-0.00201911
-0.00216944
-0.00232382
-0.00248215
-0.00264151
-0.00278556
-0.00286577
-0.00276771
-0.00230933
-0.00136053
-0.000341195
-0.000853686
0.00959761
-0.00952103
-0.000931216
0.00958581
-0.00950828
-0.0010104
0.0095648
-0.00948561
-0.00109145
0.00954663
-0.00946558
-0.00117485
0.00953175
-0.00944835
-0.0012609
0.00952161
-0.00943556
-0.00135002
0.0095167
-0.00942758
-0.00144266
0.00951822
-0.00942557
-0.00153947
0.00952742
-0.0094306
-0.00164126
0.00954637
-0.00944459
-0.00174893
0.00957778
-0.00947011
-0.00186315
0.00962544
-0.00951122
-0.0019846
0.00969144
-0.00956998
-0.00211109
0.00978027
-0.00965378
-0.00223621
0.00987491
-0.00974978
-0.00231539
0.00993729
-0.00985811
-0.00224785
0.00972017
-0.00978772
-0.00179554
0.00874135
-0.00919365
-0.000836426
0.00584913
-0.00680825
0.00147889
-0.00231531
-0.000865502
-0.000941273
-0.00101878
-0.00109784
-0.00117919
-0.00126291
-0.0013494
-0.00143898
-0.00153216
-0.00162953
-0.00173193
-0.00184013
-0.00195461
-0.00207158
-0.00217673
-0.00221045
-0.00205151
-0.00150406
-0.000573694
-0.000767368
0.00950355
-0.009484
-0.00078858
0.00948928
-0.00946807
-0.000811955
0.00946461
-0.00944123
-0.000837726
0.00944231
-0.00941654
-0.000866233
0.00942267
-0.00939416
-0.000897872
0.00940702
-0.00937538
-0.00093312
0.00939581
-0.00936056
-0.000972516
0.00939019
-0.00935079
-0.00101672
0.00939107
-0.00934687
-0.00106665
0.00940015
-0.00935022
-0.00112353
0.00941989
-0.00936301
-0.00118849
0.00945417
-0.00938921
-0.00126348
0.00950501
-0.00943002
-0.0013491
0.00958013
-0.00949451
-0.00144774
0.00966951
-0.00957087
-0.00154537
0.00978753
-0.0096899
-0.00160569
0.00978109
-0.00972077
-0.00144818
0.00942026
-0.00957776
-0.000855453
0.00739887
-0.0079916
0.00295012
-0.00380557
-0.000780036
-0.00079904
-0.000820044
-0.000843312
-0.000868993
-0.000897536
-0.000929304
-0.000964687
-0.00100422
-0.00104865
-0.00109887
-0.00115592
-0.0012209
-0.00129455
-0.00137482
-0.00144541
-0.00145203
-0.00122542
-0.000634805
-0.00065219
0.00952348
-0.00956062
-0.000617674
0.00950507
-0.00953958
-0.000585457
0.0094763
-0.00950851
-0.00055628
0.00944857
-0.00947775
-0.000530199
0.00942355
-0.00944963
-0.000507897
0.00940129
-0.00942359
-0.000490039
0.00938272
-0.00940058
-0.000476784
0.00936879
-0.00938205
-0.000469096
0.00936011
-0.0093678
-0.000468322
0.00935769
-0.00935847
-0.000475683
0.00936388
-0.00935651
-0.000492968
0.00938173
-0.00936445
-0.000522
0.00941358
-0.00938455
-0.000567174
0.00946422
-0.00941904
-0.00063021
0.00952862
-0.00946558
-0.000721292
0.00962322
-0.00953214
-0.000820903
0.00966027
-0.00956066
-0.000863941
0.00958169
-0.00953865
-0.000623195
0.00822618
-0.00846692
0.00423424
-0.00485743
-0.000664662
-0.000627661
-0.000592594
-0.000560564
-0.00053118
-0.000505267
-0.000483107
-0.000465109
-0.000451874
-0.000444403
-0.000443541
-0.000451014
-0.000467449
-0.00049774
-0.000539994
-0.000606675
-0.00066718
-0.000663249
-0.000428668
-0.000516125
0.00965488
-0.00974666
-0.000428371
0.00963015
-0.00971791
-0.000342914
0.00959746
-0.00968291
-0.000260828
0.00956313
-0.00964522
-0.000181471
0.00953237
-0.00961173
-0.000106222
0.00950249
-0.00957774
-3.55715e-05
0.00947545
-0.0095461
2.89328e-05
0.00945073
-0.00951523
8.574e-05
0.00943027
-0.00948708
0.000134813
0.00941411
-0.00946318
0.000174551
0.00940432
-0.00944406
0.000202693
0.00940254
-0.00943069
0.00021663
0.00941176
-0.00942569
0.000210917
0.00942958
-0.00942386
0.000181928
0.00945976
-0.00943077
0.000109921
0.00948542
-0.00941342
1.21876e-05
0.00949271
-0.00939498
-0.000179207
0.00938639
-0.00919499
-0.000198859
0.00844055
-0.00842089
0.00487181
-0.00507066
-0.000527105
-0.000436537
-0.000347593
-0.000262207
-0.000179463
-0.000100565
-2.56897e-05
4.29928e-05
0.000105465
0.00016111
0.000208916
0.000247012
0.000274218
0.000284754
0.000278933
0.000232219
0.00016427
1.20076e-05
-1.43711e-05
-0.000369012
0.00989185
-0.0100313
-0.000232312
0.00985719
-0.00999389
-9.59165e-05
0.00982226
-0.00995866
3.50577e-05
0.00977971
-0.00991068
0.000159695
0.00974135
-0.00986599
0.000279369
0.00970304
-0.00982272
0.000393018
0.00966628
-0.00977993
0.000500135
0.00963012
-0.00973724
0.000599722
0.0095958
-0.00969539
0.000690248
0.00956435
-0.00965487
0.00077006
0.0095363
-0.00961611
0.000836848
0.00951205
-0.00957883
0.000886917
0.00949278
-0.00954285
0.00091457
0.00947172
-0.00949937
0.000909459
0.00944907
-0.00944396
0.000853908
0.00938617
-0.00933062
0.000720417
0.00929576
-0.00916227
0.000449435
0.00895746
-0.00868647
0.000128634
0.00813516
-0.00781436
0.0046766
-0.00454796
-0.000376047
-0.000236766
-9.74183e-05
3.70714e-05
0.000166695
0.000291995
0.000412175
0.000527064
0.000635793
0.000736955
0.000829197
0.000910556
0.000977644
0.0010255
0.0010438
0.00101655
0.000917334
0.000679796
0.000394066
0.00378759
3.71259e-06
-2.88504e-06
0.00378837
-1.08573e-07
-6.72413e-07
0.0037858
1.25288e-05
-9.96302e-06
0.0037857
1.00618e-05
-9.95849e-06
0.00378171
2.05289e-05
-1.65416e-05
0.00377957
2.95095e-05
-2.73689e-05
0.00377283
3.63802e-05
-2.96378e-05
0.00376628
6.82509e-05
-6.17013e-05
0.00375409
6.87715e-05
-5.65829e-05
0.00373806
0.000146586
-0.000130554
0.00371439
0.000138161
-0.000114492
0.00367786
0.000308993
-0.000272463
0.00362827
0.000294003
-0.000244411
0.0035454
0.000666562
-0.000583695
0.00343071
0.000675053
-0.000560357
0.00323128
0.00155566
-0.00135624
0.00292085
0.00177896
-0.00146853
0.00236625
0.0043192
-0.00376461
0.00136255
0.00607811
-0.00507441
0.015356
-0.0139934
0.0037876
4.52396e-06
0.0037883
-8.01481e-07
0.00378585
1.49784e-05
0.00378565
1.02611e-05
0.00378175
2.44257e-05
0.00377953
3.17264e-05
0.0037728
4.31135e-05
0.0037662
7.48462e-05
0.00375379
8.1182e-05
0.00373777
0.000162607
0.00371326
0.000162673
0.00367684
0.000345409
0.00362478
0.000346068
0.00354226
0.000749076
0.00342082
0.000796495
0.0032231
0.00175338
0.00289591
0.00210615
0.00235802
0.0048571
0.00135196
0.00708417
0.0167079
0.00432155
2.14496e-06
-1.52736e-06
0.00432178
1.13585e-06
-1.36438e-06
0.00431977
7.65241e-06
-5.64381e-06
0.0043187
9.23677e-06
-8.16273e-06
0.00431548
1.28895e-05
-9.66989e-06
0.00431181
2.41922e-05
-2.05265e-05
0.00430622
2.3378e-05
-1.77838e-05
0.0042973
5.34476e-05
-4.45302e-05
0.0042869
4.51161e-05
-3.47114e-05
0.00426724
0.000111761
-9.21036e-05
0.00424654
9.19902e-05
-7.12904e-05
0.00420449
0.000231501
-0.000189448
0.00416049
0.000197059
-0.000153059
0.00406911
0.000493781
-0.000402403
0.00396721
0.000451397