/*--------------------------------*- C++ -*----------------------------------*\
  =========                 |
  \\      /  F ield         | OpenFOAM: The Open Source CFD Toolbox
   \\    /   O peration     | Website:  https://openfoam.org
    \\  /    A nd           | Version:  7
     \\/     M anipulation  |
\*---------------------------------------------------------------------------*/
FoamFile
{
    version     2.0;
    format      ascii;
    class       volScalarField;
    location    "46";
    object      p;
}
// * * * * * * * * * * * * * * * * * * * * * * * * * * * * * * * * * * * * * //

dimensions      [0 2 -2 0 0 0 0];

internalField   nonuniform List<scalar> 
115
(
-0.14724
-0.139975
-0.133313
-0.127285
-0.121903
-0.117163
-0.113047
-0.109528
-0.106568
-0.104124
-0.102149
-0.100596
-0.099417
-0.0985663
-0.0980007
-0.0976797
-0.0975662
-0.096399
-0.0962473
-0.148054
-0.140185
-0.13298
-0.126478
-0.120695
-0.115632
-0.111273
-0.107585
-0.104529
-0.102054
-0.100106
-0.0986279
-0.097562
-0.0968553
-0.0964491
-0.0962972
-0.147993
-0.140172
-0.133011
-0.126547
-0.120797
-0.115761
-0.111421
-0.107747
-0.104698
-0.102225
-0.100275
-0.0987902
-0.0977151
-0.0969955
-0.0965776
-0.0964138
-0.147867
-0.140129
-0.133042
-0.126643
-0.120948
-0.115956
-0.11165
-0.108
-0.104964
-0.102496
-0.100542
-0.0990473
-0.0979573
-0.0972187
-0.0967803
-0.0965953
-0.147677
-0.14005
-0.133063
-0.126751
-0.12113
-0.116198
-0.111939
-0.108321
-0.105305
-0.102845
-0.100888
-0.0993819
-0.0982736
-0.0975113
-0.0970462
-0.0968331
-0.147397
-0.139899
-0.133029
-0.126821
-0.12129
-0.116433
-0.112231
-0.108656
-0.105668
-0.103222
-0.101267
-0.0997526
-0.0986273
-0.0978415
-0.0973483
-0.0971044
-0.147008
-0.13964
-0.132889
-0.126787
-0.121347
-0.116565
-0.112424
-0.108895
-0.105938
-0.10351
-0.101563
-0.100046
-0.0989114
-0.0981106
-0.097599
-0.0973351
)
;

boundaryField
{
    inlet
    {
        type            zeroGradient;
    }
    outlet
    {
        type            fixedValue;
        value           nonuniform 0();
    }
    polygon
    {
        type            zeroGradient;
    }
    top
    {
        type            symmetryPlane;
    }
    bottom
    {
        type            symmetryPlane;
    }
    outside
    {
        type            slip;
    }
    procBoundary45to37
    {
        type            processor;
        value           nonuniform List<scalar> 
17
(
-0.147874
-0.140628
-0.133971
-0.127936
-0.122536
-0.117768
-0.113619
-0.110059
-0.107053
-0.104561
-0.102536
-0.100933
-0.0997046
-0.0988067
-0.0981968
-0.0978358
-0.0976888
)
;
    }
    procBoundary45to38
    {
        type            processor;
        value           uniform -0.155058;
    }
    procBoundary45to44
    {
        type            processor;
        value           nonuniform List<scalar> 7(-0.0976353 -0.0972808 -0.09646 -0.0966211 -0.0968308 -0.0970707 -0.0972808);
    }
    procBoundary45to46
    {
        type            processor;
        value           nonuniform List<scalar> 6(-0.156528 -0.156414 -0.156198 -0.155889 -0.15547 -0.154942);
    }
    procBoundary45to52
    {
        type            processor;
        value           nonuniform List<scalar> 2(-0.0963031 -0.0963541);
    }
    procBoundary45to53
    {
        type            processor;
        value           nonuniform List<scalar> 
17
(
-0.0964238
-0.0962585
-0.148064
-0.140183
-0.132968
-0.126455
-0.120664
-0.115593
-0.111227
-0.107535
-0.104475
-0.101999
-0.100051
-0.0985742
-0.0975102
-0.0968036
-0.0968036
)
;
    }
}


// ************************************************************************* //
