/*--------------------------------*- C++ -*----------------------------------*\
  =========                 |
  \\      /  F ield         | OpenFOAM: The Open Source CFD Toolbox
   \\    /   O peration     | Website:  https://openfoam.org
    \\  /    A nd           | Version:  7
     \\/     M anipulation  |
\*---------------------------------------------------------------------------*/
FoamFile
{
    version     2.0;
    format      ascii;
    class       volScalarField;
    location    "118";
    object      p;
}
// * * * * * * * * * * * * * * * * * * * * * * * * * * * * * * * * * * * * * //

dimensions      [0 2 -2 0 0 0 0];

internalField   nonuniform List<scalar> 
11200
(
-0.000628099
-0.00209098
-0.00335241
-0.0047245
-0.00596437
-0.00716555
-0.00826868
-0.00930025
-0.0102571
-0.0111566
-0.0120104
-0.0128358
-0.0136447
-0.014451
-0.0152669
-0.0161009
-0.0169589
-0.0178438
-0.0187543
-0.0196859
-0.0206297
-0.0215732
-0.0225005
-0.0233926
-0.0242285
-0.0249865
-0.0256432
-0.0261817
-0.0265787
-0.0268278
-0.0269079
-0.0268253
-0.0265752
-0.0261639
-0.0256024
-0.0249059
-0.0240932
-0.0231864
-0.0222093
-0.0211868
-0.0201444
-0.0191071
-0.0180993
-0.0171443
-0.0162638
-0.0154778
-0.0148048
-0.0142621
-0.013863
-0.0136261
-0.0135532
-0.0136683
-0.0139741
-0.0144755
-0.015177
-0.0160831
-0.0171931
-0.0185026
-0.0200033
-0.0216824
-0.0235225
-0.0255015
-0.0275921
-0.0297619
-0.0319754
-0.0341936
-0.036376
-0.0384812
-0.0404727
-0.0423053
-0.0439693
-0.0454126
-0.0466662
-0.0476644
-0.0484511
-0.0490283
-0.0494189
-0.0496541
-0.0497712
-0.0498087
-0.0498107
-0.049815
-0.0498656
-0.0499875
-0.0502195
-0.0505565
-0.0510419
-0.051606
-0.0523385
-0.0530172
-0.0539151
-0.0544176
-0.0553945
-0.0551297
-0.0563272
-0.0542511
-0.0564299
-0.0516705
-0.0551525
-0.0515307
-0.000631494
-0.00207991
-0.00334826
-0.00472615
-0.00598553
-0.00721572
-0.00835598
-0.00943018
-0.0104318
-0.0113751
-0.0122691
-0.0131285
-0.0139603
-0.0147793
-0.0155958
-0.0164173
-0.0172495
-0.0180953
-0.0189544
-0.0198232
-0.0206948
-0.0215586
-0.0224011
-0.0232059
-0.0239548
-0.0246289
-0.0252078
-0.0256769
-0.0260152
-0.0262175
-0.0262686
-0.0261716
-0.0259236
-0.0255311
-0.0250047
-0.0243589
-0.0236114
-0.0227826
-0.0218944
-0.0209696
-0.0200314
-0.0191025
-0.0182048
-0.0173589
-0.0165842
-0.0158984
-0.0153177
-0.0148573
-0.0145289
-0.0143493
-0.0143208
-0.0144698
-0.0147742
-0.0152638
-0.0159368
-0.0167964
-0.0178426
-0.0190716
-0.0204766
-0.0220465
-0.0237661
-0.0256158
-0.0275712
-0.0296035
-0.0316805
-0.0337671
-0.0358265
-0.0378209
-0.0397174
-0.0414741
-0.0430824
-0.0444902
-0.0457181
-0.0467531
-0.0475824
-0.0482229
-0.0486953
-0.0490281
-0.0492547
-0.0494094
-0.0495318
-0.049655
-0.0498186
-0.0500434
-0.0503651
-0.0507746
-0.0513151
-0.0519121
-0.0526605
-0.0533286
-0.0542055
-0.0546549
-0.0555821
-0.0552317
-0.0563455
-0.0541977
-0.0561481
-0.0514766
-0.0544327
-0.0506531
-0.000633648
-0.00206904
-0.00334357
-0.00472811
-0.00600749
-0.00726732
-0.0084454
-0.009563
-0.0106102
-0.0115982
-0.012533
-0.0134259
-0.0142824
-0.0151146
-0.0159321
-0.0167414
-0.0175476
-0.0183542
-0.0191614
-0.0199671
-0.0207657
-0.0215489
-0.0223055
-0.0230218
-0.0236823
-0.0242711
-0.0247706
-0.0251687
-0.025447
-0.0256023
-0.0256212
-0.0255082
-0.0252609
-0.0248862
-0.0243942
-0.023799
-0.0231168
-0.0223665
-0.0215682
-0.0207427
-0.0199106
-0.0190924
-0.0183075
-0.0175739
-0.0169085
-0.0163265
-0.0158417
-0.0154675
-0.0152132
-0.0150941
-0.0151114
-0.0152889
-0.0156033
-0.0160845
-0.0167307
-0.0175447
-0.0185272
-0.0196751
-0.0209829
-0.0224414
-0.0240373
-0.025754
-0.0275698
-0.0294595
-0.0313945
-0.0333437
-0.035274
-0.0371519
-0.0389477
-0.0406236
-0.0421722
-0.0435449
-0.0447634
-0.0458127
-0.046681
-0.0473844
-0.0479402
-0.0483738
-0.0487146
-0.0489924
-0.0492422
-0.049492
-0.0497769
-0.0501127
-0.0505321
-0.0510215
-0.0516228
-0.0522576
-0.0530245
-0.0536841
-0.0545389
-0.0549351
-0.0558074
-0.0553703
-0.0563904
-0.0541702
-0.0559105
-0.051322
-0.0539199
-0.0500728
-0.000634719
-0.00205793
-0.00333809
-0.00472991
-0.00602981
-0.00731977
-0.00853619
-0.00969758
-0.0107907
-0.0118236
-0.0127992
-0.0137254
-0.0146069
-0.0154524
-0.0162708
-0.0170677
-0.0178479
-0.0186151
-0.0193704
-0.0201128
-0.0208385
-0.0215412
-0.0222121
-0.0228401
-0.0234126
-0.0239164
-0.0243369
-0.0246644
-0.0248831
-0.024992
-0.0249781
-0.024849
-0.0246022
-0.0242447
-0.0237867
-0.0232412
-0.0226234
-0.0219508
-0.0212414
-0.0205141
-0.0197874
-0.0190791
-0.0184061
-0.0177841
-0.0172274
-0.0167488
-0.0163597
-0.0160713
-0.0158911
-0.0158322
-0.0158942
-0.0160971
-0.0164247
-0.0168986
-0.0175187
-0.018288
-0.0192076
-0.0202754
-0.0214871
-0.0228352
-0.0243089
-0.0258938
-0.0275715
-0.02932
-0.0311145
-0.0329275
-0.03473
-0.0364922
-0.0381879
-0.0397832
-0.0412721
-0.0426104
-0.0438204
-0.0448801
-0.0457847
-0.0465488
-0.0471857
-0.0477179
-0.0481709
-0.04857
-0.0489458
-0.0493213
-0.0497271
-0.0501741
-0.0506915
-0.0512616
-0.0519251
-0.0525996
-0.0533873
-0.0540416
-0.0548786
-0.0552275
-0.0560512
-0.055536
-0.056472
-0.0541888
-0.05574
-0.0512164
-0.0534795
-0.0494646
-0.000634803
-0.00204644
-0.00333167
-0.00473135
-0.00605227
-0.00737287
-0.00862815
-0.00983378
-0.0109732
-0.0120513
-0.0130679
-0.014028
-0.0149341
-0.0157929
-0.0166121
-0.0173964
-0.0181505
-0.0188782
-0.0195814
-0.0202604
-0.0209131
-0.0215354
-0.0221207
-0.0226607
-0.0231454
-0.0235645
-0.0239061
-0.0241631
-0.0243224
-0.0243845
-0.0243384
-0.0241931
-0.0239465
-0.0236059
-0.0231811
-0.0226847
-0.0221307
-0.0215349
-0.0209137
-0.0202839
-0.0196617
-0.0190626
-0.0185011
-0.0179902
-0.0175418
-0.0171664
-0.0168729
-0.0166703
-0.0165641
-0.0165653
-0.0166723
-0.0169026
-0.0172419
-0.0177084
-0.0183029
-0.0190278
-0.019885
-0.0208732
-0.0219895
-0.0232281
-0.0245803
-0.0260344
-0.027575
-0.0291833
-0.0308383
-0.0325161
-0.0341915
-0.0358387
-0.0374345
-0.0389491
-0.0403777
-0.0416806
-0.0428799
-0.0439504
-0.0448902
-0.0457133
-0.0464298
-0.047059
-0.0476226
-0.0481419
-0.0486428
-0.0491434
-0.0496698
-0.0502282
-0.0508442
-0.0514961
-0.0522231
-0.0529391
-0.0537499
-0.0544019
-0.055224
-0.0555297
-0.0563092
-0.055722
-0.0565827
-0.0542411
-0.0556258
-0.0511484
-0.0531172
-0.0489233
-0.000633967
-0.00203454
-0.00332419
-0.00473232
-0.00607476
-0.00742653
-0.00872124
-0.00997161
-0.0111578
-0.0122814
-0.0133394
-0.0143336
-0.0152644
-0.0161366
-0.0169566
-0.0177282
-0.018456
-0.019144
-0.0197951
-0.0204106
-0.0209903
-0.021532
-0.0220317
-0.0224836
-0.0228806
-0.023215
-0.0234779
-0.0236644
-0.0237642
-0.0237792
-0.0237005
-0.023539
-0.0232922
-0.0229679
-0.0225759
-0.022128
-0.0216371
-0.0211175
-0.020584
-0.0200512
-0.0195331
-0.0190428
-0.0185925
-0.0181927
-0.0178527
-0.0175805
-0.0173828
-0.0172663
-0.0172345
-0.0172964
-0.0174491
-0.0177079
-0.0180587
-0.0185184
-0.0190875
-0.0197685
-0.0205636
-0.0214726
-0.0224938
-0.0236232
-0.0248544
-0.026178
-0.0275819
-0.0290505
-0.0305661
-0.0321089
-0.0336574
-0.0351894
-0.036685
-0.0381184
-0.0394859
-0.0407522
-0.0419413
-0.04302
-0.0439937
-0.0448747
-0.0456695
-0.0463946
-0.0470681
-0.0477071
-0.0483328
-0.0489588
-0.0496064
-0.0502772
-0.050993
-0.0517284
-0.0525206
-0.0532803
-0.0541164
-0.0547686
-0.0555783
-0.0558446
-0.0565831
-0.0559288
-0.0567214
-0.0543241
-0.0555665
-0.0511197
-0.052847
-0.0484923
-0.000632254
-0.00202211
-0.00331554
-0.0047327
-0.00609714
-0.00748065
-0.00881536
-0.010111
-0.0113444
-0.012514
-0.0136136
-0.0146422
-0.0155979
-0.0164835
-0.0173043
-0.0180633
-0.0187647
-0.019413
-0.0200117
-0.0205636
-0.0210701
-0.0215313
-0.0219454
-0.0223092
-0.0226183
-0.022868
-0.0230521
-0.0231681
-0.0232084
-0.0231762
-0.0230646
-0.0228864
-0.0226389
-0.0223305
-0.0219707
-0.0215707
-0.0211423
-0.0206983
-0.0202518
-0.0198155
-0.0194011
-0.0190196
-0.0186803
-0.0183916
-0.01816
-0.0179914
-0.0178898
-0.0178599
-0.0179029
-0.0180259
-0.0182248
-0.0185125
-0.0188756
-0.0193289
-0.0198732
-0.0205107
-0.0212442
-0.0220743
-0.0230007
-0.0240213
-0.0251317
-0.0263252
-0.0275925
-0.0289215
-0.0302981
-0.031706
-0.0331274
-0.0345439
-0.0359391
-0.0372907
-0.0385963
-0.0398252
-0.0410005
-0.0420886
-0.0430948
-0.0440321
-0.044904
-0.045724
-0.0465067
-0.0472649
-0.0480155
-0.0487672
-0.0495368
-0.0503211
-0.0511382
-0.0519586
-0.052818
-0.0536236
-0.0544872
-0.0551425
-0.0559423
-0.0561727
-0.0568743
-0.0561579
-0.0568896
-0.0544391
-0.0555621
-0.0511339
-0.0526701
-0.0481718
-0.000629681
-0.00200903
-0.00330555
-0.00473229
-0.00611918
-0.00753498
-0.00891029
-0.0102517
-0.0115328
-0.0127489
-0.0138905
-0.0149538
-0.0159346
-0.0168338
-0.0176555
-0.0184019
-0.0190769
-0.0196853
-0.0202316
-0.0207197
-0.021153
-0.0215334
-0.0218617
-0.0221372
-0.0223585
-0.0225233
-0.0226285
-0.0226737
-0.0226542
-0.0225746
-0.0224299
-0.0222344
-0.0219857
-0.0216925
-0.0213644
-0.0210117
-0.0206451
-0.0202763
-0.0199165
-0.0195763
-0.0192655
-0.0189926
-0.0187645
-0.0185871
-0.0184645
-0.0183998
-0.0183951
-0.0184524
-0.018571
-0.0187559
-0.0190016
-0.0193185
-0.0196948
-0.0201424
-0.0206622
-0.0212565
-0.0219286
-0.0226799
-0.0235116
-0.0244232
-0.0254127
-0.0264759
-0.0276064
-0.0287956
-0.0300326
-0.031305
-0.0325988
-0.0338993
-0.0351931
-0.0364619
-0.0377047
-0.0388951
-0.0400516
-0.041152
-0.0421889
-0.0431813
-0.0441292
-0.0450435
-0.0459351
-0.0468128
-0.047689
-0.0485675
-0.0494604
-0.05036
-0.0512804
-0.0521883
-0.0531171
-0.0539712
-0.0548647
-0.055526
-0.0563189
-0.0565171
-0.0571855
-0.0564122
-0.0570934
-0.0545906
-0.0556168
-0.0511969
-0.0525866
-0.0479606
-0.00062624
-0.00199525
-0.00329415
-0.00473104
-0.00614086
-0.00758957
-0.00900611
-0.0103939
-0.0117234
-0.0129863
-0.0141702
-0.015269
-0.0162749
-0.0171879
-0.0180107
-0.0187444
-0.019393
-0.0199615
-0.0204551
-0.0208794
-0.0212392
-0.0215386
-0.0217808
-0.021968
-0.0221011
-0.0221808
-0.0222067
-0.0221808
-0.0221011
-0.0219735
-0.021794
-0.0215817
-0.0213314
-0.0210529
-0.0207559
-0.0204499
-0.0201448
-0.0198507
-0.0195772
-0.0193331
-0.0191258
-0.0189616
-0.018845
-0.0187794
-0.0187663
-0.0188065
-0.0188994
-0.019045
-0.0192404
-0.0194884
-0.0197828
-0.0201306
-0.0205195
-0.0209616
-0.0214573
-0.0220086
-0.0226193
-0.0232919
-0.0240287
-0.0248311
-0.0256992
-0.0266315
-0.0276247
-0.0286732
-0.0297699
-0.0309059
-0.032071
-0.0332541
-0.0344453
-0.0356297
-0.0368079
-0.0379569
-0.0390908
-0.0402045
-0.0412729
-0.0423199
-0.0433437
-0.0443524
-0.0453533
-0.0463512
-0.0473541
-0.048361
-0.0493792
-0.0503964
-0.0514225
-0.0524206
-0.0534214
-0.0543268
-0.0552529
-0.0559233
-0.0567122
-0.0568845
-0.0575188
-0.0566924
-0.0573384
-0.0547852
-0.0557671
-0.051326
-0.052594
-0.0478496
-0.000621931
-0.00198102
-0.00328194
-0.0047299
-0.00616344
-0.00764586
-0.00910429
-0.0105389
-0.0119169
-0.0132268
-0.014453
-0.0155871
-0.0166178
-0.0175445
-0.018368
-0.019089
-0.019711
-0.0202395
-0.0206806
-0.0210412
-0.0213278
-0.0215468
-0.0217037
-0.0218031
-0.0218489
-0.0218444
-0.0217919
-0.0216957
-0.0215564
-0.0213813
-0.0211645
-0.0209381
-0.0206861
-0.0204218
-0.0201551
-0.0198948
-0.0196498
-0.0194288
-0.0192399
-0.0190899
-0.0189842
-0.0189266
-0.0189196
-0.0189637
-0.0190584
-0.0192017
-0.0193907
-0.0196232
-0.0198943
-0.0202049
-0.0205484
-0.020928
-0.0213283
-0.0217654
-0.0222379
-0.0227479
-0.0232994
-0.0238958
-0.0245408
-0.0252375
-0.0259883
-0.0267941
-0.0276545
-0.0285672
-0.0295284
-0.0305326
-0.0315733
-0.0326428
-0.0337345
-0.0348366
-0.035951
-0.0370555
-0.0381001
-0.0392904
-0.0403932
-0.0414933
-0.0425897
-0.0436885
-0.0447938
-0.0459066
-0.0470308
-0.0481607
-0.0492993
-0.0504296
-0.0515577
-0.0526433
-0.0537141
-0.0546703
-0.0556286
-0.0563099
-0.0570951
-0.0572485
-0.05785
-0.0569718
-0.057574
-0.0549727
-0.0558988
-0.0514441
-0.0526467
-0.0478445
-0.000517688
-0.00219871
-0.00339992
-0.0047426
-0.00584566
-0.00680984
-0.00761233
-0.0082917
-0.00887814
-0.00941362
-0.00993652
-0.0104874
-0.0110997
-0.0118031
-0.01262
-0.0135676
-0.014655
-0.0158832
-0.0172449
-0.0187248
-0.0202994
-0.0219378
-0.0236026
-0.025251
-0.0268363
-0.0283105
-0.0296245
-0.0307315
-0.0315946
-0.032198
-0.0324931
-0.0324764
-0.0321412
-0.031495
-0.0305543
-0.0293442
-0.0278968
-0.0262507
-0.0244485
-0.0225356
-0.0205585
-0.0185648
-0.0166013
-0.0147129
-0.0129426
-0.0113306
-0.009914
-0.00872727
-0.00780054
-0.00716496
-0.00685367
-0.00686725
-0.00720356
-0.0079122
-0.00898327
-0.0104186
-0.01221
-0.0143428
-0.0167944
-0.019534
-0.0225219
-0.025711
-0.0290424
-0.0324503
-0.035864
-0.0392084
-0.0424074
-0.045386
-0.0480755
-0.0504074
-0.052327
-0.0538532
-0.0549643
-0.0555951
-0.0558127
-0.055645
-0.0551522
-0.054404
-0.0534771
-0.0524522
-0.0514126
-0.0504372
-0.0496035
-0.0489706
-0.0485915
-0.0484921
-0.0486981
-0.0491788
-0.0499385
-0.0508643
-0.0519927
-0.0530481
-0.0542898
-0.0549298
-0.0563674
-0.0555542
-0.0592183
-0.0548571
-0.0684614
-0.0597427
-0.000536514
-0.0021921
-0.00339204
-0.00474057
-0.00585328
-0.00684122
-0.00767272
-0.00838683
-0.00900983
-0.00958154
-0.0101374
-0.0107152
-0.0113481
-0.0120624
-0.0128797
-0.0138164
-0.0148811
-0.0160749
-0.0173913
-0.0188156
-0.0203261
-0.0218936
-0.023483
-0.0250537
-0.0265617
-0.027962
-0.0292081
-0.0302575
-0.0310769
-0.0316405
-0.031914
-0.0318924
-0.0315685
-0.0309498
-0.0300519
-0.0288985
-0.0275205
-0.0259544
-0.0242407
-0.0224228
-0.0205449
-0.0186522
-0.0167891
-0.0149983
-0.0133206
-0.011794
-0.0104539
-0.00933301
-0.00845994
-0.00786495
-0.00757349
-0.00758655
-0.00792445
-0.00860708
-0.00963331
-0.0110075
-0.0127219
-0.0147628
-0.0171095
-0.019733
-0.022596
-0.0256542
-0.0288517
-0.032127
-0.0354133
-0.0386396
-0.0417339
-0.0446248
-0.0472474
-0.0495363
-0.0514483
-0.0529952
-0.0541069
-0.0547861
-0.0550777
-0.0550026
-0.0546161
-0.0539821
-0.0531726
-0.0522637
-0.0513348
-0.0504611
-0.0497168
-0.0491576
-0.0488357
-0.0487735
-0.0489976
-0.0494746
-0.0502187
-0.0511072
-0.0522012
-0.0531874
-0.0543918
-0.0549112
-0.0563237
-0.0553055
-0.0588921
-0.05427
-0.0669647
-0.0595165
-0.000555417
-0.00217851
-0.00338648
-0.00473625
-0.00586105
-0.00687232
-0.00773301
-0.00848169
-0.00914099
-0.00974842
-0.0103365
-0.0109412
-0.0115932
-0.0123175
-0.0131343
-0.0140592
-0.0151005
-0.0162595
-0.0175303
-0.0188993
-0.0203462
-0.0218437
-0.023359
-0.0248539
-0.0262872
-0.0276166
-0.0287982
-0.0297934
-0.0305697
-0.0310978
-0.0313528
-0.0313283
-0.0310171
-0.0304264
-0.029571
-0.0284735
-0.0271632
-0.025675
-0.0240472
-0.0223211
-0.0205385
-0.0187424
-0.0169749
-0.0152765
-0.0136858
-0.0122389
-0.0109693
-0.00990815
-0.00908239
-0.00852034
-0.00824336
-0.00826171
-0.00858916
-0.00924436
-0.0102262
-0.0115401
-0.013179
-0.0151306
-0.0173757
-0.0198873
-0.0226307
-0.025564
-0.0286354
-0.0317867
-0.0349549
-0.0380728
-0.041072
-0.0438845
-0.0464489
-0.0487021
-0.0506069
-0.0521383
-0.0532903
-0.0540209
-0.0543822
-0.054393
-0.054104
-0.0535748
-0.052873
-0.0520705
-0.0512429
-0.0504611
-0.0497964
-0.0493017
-0.0490281
-0.0489955
-0.0492335
-0.0497063
-0.0504367
-0.0512931
-0.0523584
-0.0532883
-0.05447
-0.0548979
-0.0563104
-0.0551212
-0.0586255
-0.0538001
-0.0652882
-0.0593457
-0.000571555
-0.00216634
-0.00338179
-0.00473295
-0.00587038
-0.00690489
-0.0077949
-0.00857819
-0.0092739
-0.00991718
-0.0105379
-0.0111696
-0.0118408
-0.0125752
-0.0133917
-0.0143051
-0.0153234
-0.016448
-0.0176736
-0.0189877
-0.0203714
-0.0217994
-0.0232408
-0.0246602
-0.0260187
-0.0272768
-0.0283933
-0.0293326
-0.030063
-0.0305577
-0.030793
-0.0307641
-0.0304638
-0.029899
-0.0290841
-0.0280406
-0.0267963
-0.0253842
-0.023841
-0.0222055
-0.0205175
-0.0188177
-0.0171458
-0.0155402
-0.0140372
-0.0126712
-0.0114736
-0.0104741
-0.00969773
-0.00917198
-0.00891608
-0.00894476
-0.00926084
-0.00989104
-0.0108319
-0.0120888
-0.0136556
-0.0155211
-0.0176676
-0.02007
-0.0226959
-0.0255062
-0.0284522
-0.0314794
-0.0345282
-0.0375353
-0.0404357
-0.0431651
-0.0456651
-0.0478744
-0.0497602
-0.0512858
-0.052465
-0.053243
-0.0536694
-0.0537615
-0.0535663
-0.0531394
-0.0525445
-0.0518488
-0.0511241
-0.050437
-0.0498554
-0.0494296
-0.0492092
-0.0492118
-0.0494695
-0.0499431
-0.0506635
-0.0514892
-0.0525253
-0.0533962
-0.0545492
-0.0548823
-0.0562822
-0.0549351
-0.0583325
-0.0533927
-0.0637372
-0.058973
-0.000584874
-0.00215518
-0.00337728
-0.00473048
-0.00588088
-0.00693864
-0.00785812
-0.00867614
-0.0094084
-0.0100877
-0.0107411
-0.0114
-0.0120907
-0.0128353
-0.0136516
-0.0145537
-0.0155491
-0.0166395
-0.01782
-0.0190794
-0.0204001
-0.0217586
-0.0231263
-0.0244701
-0.0257538
-0.0269404
-0.0279913
-0.0288741
-0.0295578
-0.0300184
-0.0302333
-0.0301989
-0.0299083
-0.0293684
-0.0285927
-0.027602
-0.0264227
-0.025086
-0.0236265
-0.0220811
-0.0204876
-0.018884
-0.017308
-0.0157957
-0.0143815
-0.0130974
-0.0119733
-0.011037
-0.010312
-0.00982478
-0.00959208
-0.00963072
-0.00993923
-0.0105464
-0.0114481
-0.0126497
-0.0141461
-0.0159271
-0.0179762
-0.0202703
-0.0227794
-0.0254668
-0.0282871
-0.0311893
-0.0341173
-0.0370115
-0.0398107
-0.0424537
-0.0448857
-0.0470471
-0.0489094
-0.0504301
-0.0516291
-0.0524511
-0.0529398
-0.053111
-0.0530083
-0.0526832
-0.0521954
-0.0516077
-0.0509878
-0.0503982
-0.0499034
-0.0495504
-0.0493876
-0.04943
-0.0497113
-0.0501888
-0.0509015
-0.0516978
-0.0527056
-0.0535162
-0.0546385
-0.0548738
-0.0562522
-0.0547559
-0.0580254
-0.0530276
-0.0622895
-0.0584522
-0.000595941
-0.0021438
-0.00337293
-0.00472845
-0.00589228
-0.00697332
-0.00792243
-0.00877529
-0.00954423
-0.0102596
-0.0109459
-0.0116321
-0.0123423
-0.0130971
-0.0139133
-0.0148041
-0.0157766
-0.0168328
-0.0179684
-0.0191731
-0.0204309
-0.0217201
-0.0230143
-0.0242826
-0.0254916
-0.0266068
-0.0275922
-0.0284183
-0.0290549
-0.0294811
-0.0296753
-0.0296347
-0.0293531
-0.0288371
-0.0280999
-0.0271611
-0.0260458
-0.0247835
-0.0234071
-0.0219512
-0.0204515
-0.0189438
-0.0174636
-0.0160447
-0.0147193
-0.0135177
-0.0124676
-0.0115954
-0.0109226
-0.0104749
-0.0102661
-0.0103155
-0.0106182
-0.0112036
-0.0120674
-0.0132151
-0.0146423
-0.0163397
-0.0182925
-0.0204793
-0.0228723
-0.0254375
-0.0281325
-0.0309097
-0.0337168
-0.0364976
-0.0391945
-0.0417499
-0.0441121
-0.0462236
-0.0480603
-0.0495741
-0.0507886
-0.0516519
-0.0522002
-0.0524484
-0.0524363
-0.0522119
-0.0518304
-0.0513508
-0.0508365
-0.0503457
-0.0499396
-0.0496618
-0.0495595
-0.0496443
-0.049952
-0.0504359
-0.0511435
-0.0519123
-0.0528937
-0.0536453
-0.0547379
-0.0548766
-0.0562308
-0.0545959
-0.057721
-0.0527036
-0.0609228
-0.0578144
-0.000605114
-0.00213316
-0.00336865
-0.00472673
-0.00590443
-0.00700881
-0.00798776
-0.00887558
-0.00968135
-0.010433
-0.0111522
-0.0118659
-0.0125956
-0.0133606
-0.0141767
-0.0150562
-0.016006
-0.017028
-0.0181186
-0.0192688
-0.0204639
-0.021684
-0.0229048
-0.0240979
-0.0252323
-0.0262762
-0.0271961
-0.0279654
-0.0285545
-0.0289463
-0.0291192
-0.029072
-0.0287986
-0.0283058
-0.0276061
-0.0267182
-0.025666
-0.0244772
-0.023183
-0.0218158
-0.0204093
-0.0189971
-0.0176124
-0.0162868
-0.0150505
-0.0139316
-0.0129561
-0.0121484
-0.0115287
-0.0111212
-0.0109373
-0.0109987
-0.0112966
-0.0118614
-0.0126887
-0.0137838
-0.0151431
-0.0167583
-0.018616
-0.0206967
-0.0229747
-0.0254184
-0.0279888
-0.0306415
-0.0333276
-0.0359947
-0.0385887
-0.0410553
-0.0433461
-0.0454058
-0.047214
-0.0487186
-0.049946
-0.0508476
-0.0514525
-0.0517751
-0.0518515
-0.051726
-0.05145
-0.0510781
-0.0506696
-0.0502786
-0.0499629
-0.0497625
-0.0497229
-0.0498528
-0.0501898
-0.0506831
-0.0513884
-0.0521321
-0.0530896
-0.0537839
-0.0548485
-0.0548937
-0.0562226
-0.0544611
-0.0574304
-0.0524241
-0.0596467
-0.0570734
-0.000612607
-0.00212262
-0.00336427
-0.00472516
-0.00591714
-0.00704494
-0.00805394
-0.0089769
-0.0098197
-0.0106077
-0.0113602
-0.0121016
-0.0128508
-0.0136261
-0.0144423
-0.0153105
-0.0162374
-0.0172253
-0.0182712
-0.0193668
-0.0204992
-0.0216502
-0.0227977
-0.0239156
-0.0249754
-0.0259481
-0.0268024
-0.0275145
-0.0280559
-0.0284127
-0.028564
-0.0285093
-0.0282434
-0.027773
-0.02711
-0.0262723
-0.0252823
-0.0241665
-0.0229537
-0.0216749
-0.0203613
-0.0190445
-0.0177554
-0.0165234
-0.0153766
-0.014341
-0.0134408
-0.0126988
-0.0121331
-0.0117667
-0.0116085
-0.0116813
-0.0119773
-0.0125229
-0.013315
-0.0143586
-0.015651
-0.0171849
-0.0189483
-0.0209235
-0.0230868
-0.0254094
-0.0278551
-0.0303829
-0.0329475
-0.0354998
-0.0379896
-0.0403657
-0.0425831
-0.0445886
-0.0463653
-0.0478586
-0.049097
-0.0500325
-0.0506917
-0.0510867
-0.0512501
-0.0512226
-0.0510519
-0.0507881
-0.0504865
-0.0501972
-0.0499742
-0.049854
-0.0498803
-0.0500585
-0.0504279
-0.0509334
-0.0516394
-0.0523603
-0.0532965
-0.0539352
-0.0549738
-0.0549276
-0.056231
-0.0543522
-0.0571629
-0.0521888
-0.0584831
-0.0562862
-0.000618628
-0.0021121
-0.00335968
-0.00472367
-0.00593031
-0.00708164
-0.00812095
-0.00907926
-0.00995933
-0.010784
-0.01157
-0.0123395
-0.0131083
-0.013894
-0.0147102
-0.0155672
-0.0164715
-0.0174253
-0.0184263
-0.0194674
-0.020537
-0.021619
-0.0226931
-0.0237357
-0.0247208
-0.0256219
-0.0264103
-0.0270648
-0.0275579
-0.0278785
-0.0280077
-0.0279449
-0.0276857
-0.0272368
-0.0266096
-0.0258212
-0.0248928
-0.0238492
-0.0227176
-0.0215269
-0.0203063
-0.0190851
-0.017892
-0.0167543
-0.0156979
-0.0147468
-0.0139232
-0.0132482
-0.0127383
-0.0124152
-0.0122859
-0.012374
-0.0126672
-0.0131942
-0.0139518
-0.0149448
-0.016171
-0.0176241
-0.0192934
-0.0211628
-0.0232111
-0.0254116
-0.0277316
-0.0301329
-0.0325739
-0.0350091
-0.0373919
-0.0396745
-0.0418151
-0.0437632
-0.0455046
-0.0469836
-0.0482265
-0.0491944
-0.0499062
-0.0503723
-0.0506222
-0.050693
-0.0506285
-0.0504747
-0.0502828
-0.0500983
-0.0499719
-0.0499361
-0.0500328
-0.0502638
-0.05067
-0.0511911
-0.0519006
-0.0526003
-0.0535161
-0.0540985
-0.0551097
-0.0549703
-0.0562431
-0.0542517
-0.0568954
-0.0519678
-0.0573945
-0.0555112
-0.000623556
-0.00210177
-0.00335555
-0.00472305
-0.00594506
-0.00712013
-0.00818997
-0.00918362
-0.0101009
-0.010962
-0.0117813
-0.0125798
-0.0133669
-0.0141628
-0.0149791
-0.0158251
-0.0167069
-0.0176271
-0.0185838
-0.0195713
-0.0205791
-0.021593
-0.0225947
-0.0235631
-0.0244745
-0.0253048
-0.026028
-0.026625
-0.0270699
-0.0273535
-0.0274601
-0.0273881
-0.027134
-0.0267044
-0.0261107
-0.025369
-0.0244993
-0.023525
-0.0224717
-0.0213662
-0.0202358
-0.0191078
-0.0180085
-0.0169634
-0.015996
-0.0151285
-0.0143812
-0.0137734
-0.0133201
-0.0130422
-0.0129462
-0.0130609
-0.013346
-0.0138563
-0.0145829
-0.0155291
-0.0166935
-0.0180704
-0.0196502
-0.0214188
-0.0233567
-0.0254399
-0.0276381
-0.0299166
-0.0322369
-0.034557
-0.0368338
-0.0390227
-0.0410853
-0.0429732
-0.0446745
-0.0461311
-0.0473678
-0.048373
-0.0491302
-0.0496598
-0.0499889
-0.0501515
-0.0501875
-0.0501391
-0.0500533
-0.0499713
-0.0499404
-0.0499893
-0.0501582
-0.0504448
-0.0508913
-0.051432
-0.0521486
-0.0528299
-0.0537264
-0.0542532
-0.0552349
-0.0550068
-0.0562355
-0.0541554
-0.0565774
-0.0517254
-0.0562468
-0.0542496
0.0489389
0.0556221
0.0563298
0.0587871
0.0584605
0.0578652
0.0554372
0.0518469
0.0464513
0.0392731
0.0298041
0.0178305
0.0025061
-0.0162547
-0.040245
-0.0684319
-0.106249
-0.136158
-0.159991
-0.178872
0.0470324
0.0535378
0.0541419
0.0564735
0.0560229
0.0553054
0.052746
0.0490258
0.043497
0.0361912
0.0266053
0.0145253
-0.00087912
-0.0197424
-0.0438091
-0.0718293
-0.109138
-0.133093
-0.157341
-0.164971
0.0452266
0.0514868
0.0520345
0.0542132
0.0536499
0.0527919
0.0500886
0.0462103
0.0405116
0.0330238
0.0232497
0.0109675
-0.00462009
-0.0236578
-0.0476953
-0.0750405
-0.110169
-0.127106
-0.15171
-0.153489
0.0434818
0.0494712
0.0499732
0.051991
0.0513239
0.0503267
0.0474881
0.0434595
0.0376038
0.0299505
0.0200127
0.00756342
-0.00815523
-0.0272778
-0.051147
-0.0777346
-0.110607
-0.122915
-0.147666
-0.143029
0.0417847
0.0474912
0.0479474
0.0498009
0.0490362
0.0479042
0.0449415
0.0407762
0.0347847
0.0269953
0.016936
0.00438097
-0.0113858
-0.0304727
-0.0540215
-0.0797909
-0.110358
-0.120044
-0.143774
-0.132745
0.0401371
0.0455445
0.0459595
0.0476431
0.0467872
0.0455219
0.0424434
0.0381499
0.0320371
0.0241316
0.0139804
0.00136355
-0.0143893
-0.0333459
-0.0564356
-0.0813018
-0.109419
-0.117829
-0.139339
-0.122872
0.0385424
0.0436284
0.0440121
0.0455184
0.0445787
0.0431802
0.039993
0.0355771
0.0293539
0.0213469
0.0111269
-0.00151665
-0.0172033
-0.03595
-0.0584579
-0.0823564
-0.108036
-0.116168
-0.134374
-0.113494
0.0370011
0.0417393
0.0421059
0.0434263
0.0424116
0.0408795
0.0375914
0.0330588
0.0267367
0.0186434
0.00837854
-0.0042565
-0.0198259
-0.0382882
-0.0600962
-0.0829678
-0.106531
-0.115185
-0.128951
-0.104459
0.0355132
0.0398735
0.0402405
0.0413655
0.0402861
0.0386197
0.0352393
0.0305963
0.024188
0.0160257
0.00574583
-0.00683173
-0.0222038
-0.0402671
-0.0612703
-0.0832637
-0.105679
-0.115539
-0.123686
-0.0953459
0.0340779
0.0380275
0.0384168
0.0393369
0.0382054
0.036406
0.0329445
0.0281997
0.02172
0.0135042
0.00322316
-0.00930649
-0.0245557
-0.0424046
-0.0628409
-0.0839474
-0.104731
-0.114582
-0.118626
-0.0862767
0.0750851
0.0833348
0.0852422
0.0890303
0.0901189
0.0909
0.0899874
0.0879182
0.0841299
0.0785724
0.0706961
0.0602695
0.0460766
0.0283078
0.0031291
-0.0265187
-0.0727045
-0.127333
-0.195665
-0.24816
0.0721747
0.0802435
0.0820542
0.0856871
0.086639
0.0872714
0.0862035
0.0839721
0.0800145
0.0742827
0.0662327
0.0556287
0.0412879
0.023342
-0.00188091
-0.0318907
-0.077689
-0.133178
-0.195441
-0.246129
0.0693415
0.0772405
0.0789567
0.0824415
0.0832486
0.0837213
0.0824754
0.0800501
0.075876
0.0699038
0.0615884
0.0506807
0.036024
0.0176779
-0.00783453
-0.038355
-0.0833331
-0.137052
-0.189039
-0.238001
0.0665711
0.0743015
0.0759199
0.0792595
0.0799215
0.0802357
0.0788121
0.076194
0.071804
0.0655926
0.0570135
0.0458055
0.0308421
0.012119
-0.0136101
-0.0444663
-0.0883516
-0.139895
-0.183081
-0.231349
0.0638567
0.0714182
0.072933
0.0761295
0.0766489
0.0768113
0.0752203
0.0724244
0.0678399
0.0614188
0.0526172
0.0411671
0.0259792
0.00700603
-0.0187483
-0.0496316
-0.0921832
-0.141371
-0.177632
-0.224405
0.0611983
0.0685932
0.069998
0.0730546
0.0734332
0.0734507
0.0717016
0.0687424
0.0639828
0.0573795
0.0483926
0.0367538
0.0214156
0.00230785
-0.0233036
-0.0539319
-0.0949477
-0.14122
-0.171871
-0.216062
0.0585971
0.0658303
0.0671179
0.0700392
0.0702777
0.0701563
0.0682563
0.0651449
0.0602252
0.0534606
0.0443166
0.0325291
0.0170962
-0.00205797
-0.0273984
-0.0575366
-0.0968901
-0.139525
-0.165782
-0.206651
0.056053
0.0631317
0.0642936
0.0670852
0.0671833
0.0669294
0.0648847
0.0616317
0.0565653
0.0496582
0.0403822
0.0284819
0.0130048
-0.00611361
-0.0310612
-0.0604808
-0.0981477
-0.136501
-0.159432
-0.196758
0.0535654
0.060499
0.0615236
0.064193
0.0641493
0.0637703
0.0615872
0.0582041
0.0530052
0.0459759
0.0365947
0.0246185
0.00914388
-0.00987431
-0.0343618
-0.0629232
-0.0989724
-0.132092
-0.151856
-0.18585
0.0511343
0.0579338
0.0588072
0.0613629
0.0611752
0.0606786
0.0583628
0.0548603
0.0495424
0.0424102
0.0329499
0.020939
0.00553375
-0.0132448
-0.0370111
-0.0641818
-0.0984493
-0.126181
-0.144873
-0.171402
0.107158
0.117522
0.12028
0.125824
0.128398
0.130826
0.131744
0.131724
0.130182
0.127115
0.122011
0.114721
0.104041
0.0905558
0.0696974
0.0473794
0.00324052
-0.0317174
-0.141529
-0.198181
0.103754
0.113829
0.116547
0.121871
0.124311
0.126554
0.127286
0.127043
0.125261
0.121923
0.116512
0.108867
0.0977521
0.0837372
0.0621636
0.0388176
-0.00660188
-0.0445226
-0.149429
-0.201802
0.100373
0.110246
0.112877
0.118022
0.12029
0.122365
0.12288
0.122385
0.120313
0.116638
0.110827
0.102703
0.0909922
0.0762328
0.0536946
0.029006
-0.0176244
-0.0573672
-0.152543
-0.196074
0.0970366
0.106716
0.109253
0.114226
0.116323
0.118225
0.118522
0.117778
0.115417
0.111407
0.1052
0.0966048
0.0843152
0.0688321
0.0454098
0.0194632
-0.0279944
-0.0696267
-0.157405
-0.197937
0.0937512
0.103226
0.105672
0.11047
0.112407
0.114133
0.114227
0.113249
0.110623
0.106312
0.0997542
0.0907487
0.0779699
0.0618831
0.0377734
0.0108129
-0.0370945
-0.0807185
-0.163276
-0.202707
0.0905162
0.0997799
0.102138
0.106761
0.108545
0.1101
0.110001
0.108807
0.105939
0.101357
0.0944905
0.0851316
0.0719455
0.0553644
0.0307377
0.00297704
-0.0450763
-0.0904681
-0.168484
-0.206888
0.0873306
0.096385
0.0986541
0.103106
0.104741
0.10613
0.105848
0.10445
0.101359
0.0965287
0.0893869
0.0797181
0.0661886
0.0491968
0.0241877
-0.00420664
-0.0521331
-0.0989289
-0.172593
-0.210167
0.0841945
0.0930432
0.0952235
0.0995062
0.100998
0.102225
0.101768
0.100179
0.0968808
0.091824
0.0844363
0.0744967
0.0606826
0.0433544
0.0180893
-0.0107821
-0.058306
-0.106172
-0.175764
-0.212611
0.0811083
0.0897551
0.0918467
0.0959629
0.0973147
0.098386
0.0977636
0.0959955
0.0925067
0.0872463
0.0796443
0.069475
0.0554382
0.0378491
0.0124552
-0.0167553
-0.0636695
-0.112456
-0.177918
-0.213057
0.0780721
0.0865217
0.0885253
0.0924781
0.0936958
0.0946168
0.0938396
0.0919066
0.0882467
0.0828078
0.0750261
0.0646717
0.0504796
0.0327149
0.00734234
-0.0219747
-0.0678169
-0.11689
-0.178459
-0.214081
0.138992
0.151915
0.155369
0.162822
0.166882
0.171698
0.174897
0.177553
0.179032
0.179426
0.178373
0.175824
0.171271
0.165207
0.156249
0.14891
0.136643
0.14433
0.129965
0.228268
0.134792
0.147946
0.150903
0.158273
0.161907
0.166289
0.168923
0.17094
0.171647
0.171141
0.169027
0.165256
0.159246
0.151563
0.140433
0.130929
0.114278
0.119628
0.0936077
0.196094
0.131338
0.144353
0.147122
0.154347
0.157774
0.161897
0.164262
0.165995
0.166386
0.165537
0.163035
0.158826
0.152224
0.143816
0.131274
0.12002
0.0985522
0.0996921
0.0587274
0.161363
0.128295
0.140978
0.143742
0.150791
0.154093
0.158034
0.160222
0.161762
0.161935
0.160842
0.158045
0.153471
0.146326
0.137187
0.123236
0.110093
0.0841941
0.0805079
0.0282016
0.127215
0.12529
0.137634
0.140406
0.147269
0.15044
0.154194
0.156186
0.157497
0.157402
0.155994
0.152806
0.147749
0.139928
0.129922
0.114499
0.0994912
0.0696215
0.0613792
8.39039e-05
0.0921244
0.122245
0.134279
0.137033
0.143704
0.146736
0.150284
0.152062
0.153121
0.152731
0.150978
0.147371
0.141809
0.13331
0.122472
0.10569
0.0890126
0.0555685
0.0428751
-0.0272259
0.0553894
0.119205
0.130935
0.133664
0.140134
0.143039
0.14637
0.147944
0.148757
0.148089
0.146014
0.142025
0.136012
0.126919
0.115365
0.0974078
0.0792593
0.0426276
0.0254098
-0.0536691
0.0169343
0.1162
0.127617
0.130331