/*--------------------------------*- C++ -*----------------------------------*\
  =========                 |
  \\      /  F ield         | OpenFOAM: The Open Source CFD Toolbox
   \\    /   O peration     | Website:  https://openfoam.org
    \\  /    A nd           | Version:  7
     \\/     M anipulation  |
\*---------------------------------------------------------------------------*/
FoamFile
{
    version     2.0;
    format      ascii;
    class       surfaceScalarField;
    location    "20";
    object      phi;
}
// * * * * * * * * * * * * * * * * * * * * * * * * * * * * * * * * * * * * * //

dimensions      [0 3 -1 0 0 0 0];

internalField   nonuniform List<scalar> 
198
(
0.000902684
-0.00950449
0.00942323
0.000969743
-0.00948353
0.00941647
0.00101767
-0.0094608
0.00941288
0.00103614
-0.00943662
0.00941814
-0.00937226
0.00939908
0.000829649
-0.00957123
0.000879752
-0.00953363
0.000907534
-0.00948858
0.000902676
-0.00943176
0.000237541
-0.00939501
0.00935691
0.000264874
-0.00940234
0.00937501
0.000275594
-0.00941831
0.00940759
0.000270187
-0.00944659
0.009452
-0.00947049
0.00951679
0.000193979
0.000208106
0.000202674
0.000174222
-0.000462523
-0.00937399
0.0093813
-0.000478689
-0.00940372
0.00941988
-0.000508555
-0.00945228
0.00948215
-0.000550255
-0.00951441
0.00955611
-0.000615976
-0.00960692
0.00967264
-0.0096408
0.00969995
-0.000503504
-0.000532212
-0.000576906
-0.000639313
-0.000729441
-0.00123364
-0.00949433
0.0095588
-0.00130658
-0.00956704
0.00963998
-0.00138588
-0.00965379
0.00973309
-0.00145485
-0.00976881
0.00983778
-0.00975793
0.00976185
-0.00120062
-0.00127507
-0.00135995
-0.00145764
-0.00155381
-0.00185481
-0.00961617
0.00972378
-0.00196847
-0.00967943
0.00979309
-0.00208426
-0.00976537
0.00988116
-0.00218759
-0.00985668
0.00996001
-0.00221826
-0.00991447
0.00994514
-0.00969024
0.00952653
-0.00187662
-0.00199726
-0.00212265
-0.00224624
-0.00232292
-0.00249748
-0.00988712
0.0100445
-0.00265549
-0.00995864
0.0101167
-0.00279745
-0.0100374
0.0101794
-0.00287418
-0.0100746
0.0101514
-0.00277057
-0.00992597
0.00982236
-0.00919751
-0.00251325
-0.00267879
-0.00283503
-0.00294965
-0.00293048
-0.00306174
-0.0102548
0.0104529
-0.0032403
-0.0103182
0.0104968
-0.00335461
-0.010336
0.0104504
-0.00330417
-0.0101799
0.0101294
-0.00957454
0.00919612
-0.00308041
-0.00328196
-0.00343865
-0.00346718
-0.00350822
-0.0106985
0.0109142
-0.00364893
-0.0107069
0.0108476
-0.00361841
-0.010546
0.0105155
-0.00327866
-0.00996037
0.00962062
-0.0085819
-0.00354095
-0.00375107
-0.00384668
-0.00367762
-0.00940175
0.00824249
-0.00283391
0.00846687
-0.00607625
0.00866818
-0.00541167
-0.0103048
0.00814166
-0.00291135
0.00829816
-0.00623274
0.00851634
-0.00562985
-0.0113221
0.00802881
-0.00297625
0.00809297
-0.0062969
0.00835244
-0.00588933
-0.0124582
0.00789849
-0.00300977
0.00787472
0.00817551
-0.00909493
0.00244798
0.00275873
-0.0102439
0.0028037
0.00303024
-0.0107548
0.00295352
0.00312306
-0.0109271
0.00298003
0.00311011
-0.0109511
)
;

boundaryField
{
    inlet
    {
        type            calculated;
        value           nonuniform 0();
    }
    outlet
    {
        type            calculated;
        value           nonuniform 0();
    }
    polygon
    {
        type            calculated;
        value           nonuniform 0();
    }
    top
    {
        type            symmetryPlane;
        value           uniform 0;
    }
    bottom
    {
        type            symmetryPlane;
        value           uniform 0;
    }
    outside
    {
        type            calculated;
        value           nonuniform 0();
    }
    procBoundary17to8
    {
        type            processor;
        value           nonuniform List<scalar> 3(-0.00816352 -0.00806422 -0.00796391);
    }
    procBoundary17to9
    {
        type            processor;
        value           nonuniform List<scalar> 
26
(
-0.000821423
-0.000762901
0.00961018
-0.000199434
-0.000165769
0.000455211
0.000486426
0.00116917
0.00944587
-0.00950257
0.00113604
0.0017472
0.00176303
0.00234009
0.00234991
0.00286365
0.00287009
0.00329258
-0.0108867
0.00329534
0.00859931
0.00275494
0.00585186
-0.00880775
0.00521037
0.00304572
)
;
    }
    procBoundary17to10
    {
        type            processor;
        value           nonuniform List<scalar> 5(0.00988823 0.010605 0.0109006 0.010987 0.00294408);
    }
    procBoundary17to16
    {
        type            processor;
        value           nonuniform List<scalar> 2(-0.00786498 -0.00776872);
    }
    procBoundary17to18
    {
        type            processor;
        value           uniform 0.00848869;
    }
    procBoundary17to25
    {
        type            processor;
        value           nonuniform List<scalar> 
27
(
0.00100932
0.000847599
-0.00931718
0.000223887
-0.00954253
0.000102805
-0.00067512
-0.000827712
-0.00145876
-0.0016118
-0.00205455
-0.00225132
-0.00230532
0.00873226
-0.00260145
-0.00292575
-0.00321935
-0.0025231
0.00782634
-0.0030634
-0.00627313
-0.00619011
-0.0137145
0.00774998
-0.00299103
-0.00184175
-0.00223304
)
;
    }
}


// ************************************************************************* //
