/*--------------------------------*- C++ -*----------------------------------*\
  =========                 |
  \\      /  F ield         | OpenFOAM: The Open Source CFD Toolbox
   \\    /   O peration     | Website:  https://openfoam.org
    \\  /    A nd           | Version:  7
     \\/     M anipulation  |
\*---------------------------------------------------------------------------*/
FoamFile
{
    version     2.0;
    format      ascii;
    class       volVectorField;
    location    "20";
    object      U;
}
// * * * * * * * * * * * * * * * * * * * * * * * * * * * * * * * * * * * * * //

dimensions      [0 1 -1 0 0 0 0];

internalField   nonuniform List<vector> 
115
(
(1.18958 -0.328653 -5.82536e-18)
(1.18939 -0.357018 1.58228e-18)
(1.18958 -0.3891 5.3531e-18)
(1.18976 -0.428578 6.43538e-18)
(1.18692 -0.471751 6.19996e-18)
(1.16982 -0.334995 -6.38321e-18)
(1.16696 -0.365016 -1.87018e-18)
(1.16379 -0.399198 6.29354e-18)
(1.15932 -0.440158 6.46243e-18)
(1.14974 -0.485953 -8.45671e-20)
(1.21256 -0.319997 -9.06805e-18)
(1.21483 -0.345638 1.65606e-18)
(1.21912 -0.373598 3.22712e-18)
(1.22494 -0.409803 -3.54783e-18)
(1.23361 -0.445048 -2.15246e-19)
(1.20095 -0.325388 -6.38419e-18)
(1.20173 -0.352737 -3.02473e-18)
(1.20349 -0.38325 4.50571e-18)
(1.20651 -0.421636 2.39262e-18)
(1.20859 -0.461235 1.4008e-18)
(1.23829 -0.311836 -8.6352e-18)
(1.24347 -0.334337 -5.35067e-18)
(1.25185 -0.358275 2.77322e-19)
(1.26207 -0.389302 -3.84911e-18)
(1.27853 -0.418024 -1.80844e-18)
(1.28613 -0.464342 9.09019e-18)
(1.22499 -0.317077 -6.06614e-18)
(1.22873 -0.341374 -1.03195e-18)
(1.23496 -0.367547 3.15651e-18)
(1.24266 -0.401364 -2.23273e-18)
(1.25438 -0.43319 3.44868e-18)
(1.25843 -0.485209 1.88688e-17)
(1.26918 -0.323254 2.66462e-18)
(1.28009 -0.343443 -6.03217e-18)
(1.29331 -0.367827 7.34102e-18)
(1.31071 -0.389196 8.29153e-18)
(1.30936 -0.41409 -2.66443e-19)
(1.2503 -0.308896 -1.05779e-17)
(1.25641 -0.329822 -6.63142e-18)
(1.26572 -0.351869 3.61369e-18)
(1.27654 -0.37929 4.99583e-19)
(1.29211 -0.403816 -8.1986e-18)
(1.29285 -0.437566 -4.73183e-18)
(1.28231 -0.296918 3.01579e-18)
(1.29093 -0.312943 -8.94115e-18)
(1.30278 -0.329322 3.46728e-18)
(1.31552 -0.346303 1.07422e-18)
(1.3218 -0.355898 -4.43639e-18)
(1.28456 -0.35181 -1.09461e-17)
(1.2724 -0.301304 -2.59801e-18)
(1.28017 -0.318793 -2.40489e-18)
(1.29079 -0.336687 7.90476e-19)
(1.3021 -0.356517 -8.51761e-18)
(1.31151 -0.371154 -5.27485e-18)
(1.29028 -0.379912 -6.79891e-18)
(1.29976 -0.290479 -2.57558e-18)
(1.30859 -0.303196 -6.28356e-18)
(1.3181 -0.314565 -6.73882e-18)
(1.32102 -0.321426 -6.52851e-18)
(1.2947 -0.31218 -4.04896e-18)
(1.1819 -0.272236 -1.21395e-17)
(1.29174 -0.29458 1.7264e-18)
(1.30056 -0.308819 -7.93849e-18)
(1.31062 -0.32206 -3.05964e-18)
(1.31663 -0.332678 3.74952e-18)
(1.3038 -0.331456 -7.78012e-18)
(1.22746 -0.30794 -1.18753e-17)
(1.31353 -0.284527 6.53672e-18)
(1.31921 -0.292681 -1.33902e-18)
(1.31691 -0.295413 3.75625e-18)
(1.28819 -0.285563 -8.06385e-18)
(1.19525 -0.250774 -1.35176e-17)
(1.30825 -0.288706 3.21884e-18)
(1.31699 -0.299705 -7.31044e-18)
(1.32212 -0.306778 2.54681e-18)
(1.30943 -0.303918 -8.63054e-18)
(1.24742 -0.279276 -1.32653e-17)
(1.32188 -0.278605 -9.17619e-18)
(1.3163 -0.278718 -1.36621e-17)
(1.28242 -0.265032 -1.73296e-17)
(1.18552 -0.227592 -1.13993e-17)
(0.982896 -0.162901 -1.68297e-17)
(1.32056 -0.282987 -5.21512e-18)
(1.32533 -0.28981 -9.16223e-18)
(1.31576 -0.288143 -7.76284e-18)
(1.26314 -0.26675 -1.29813e-17)
(1.12031 -0.21314 -2.82088e-17)
(1.08424 -0.317844 -2.45382e-17)
(1.00808 -0.0989504 -1.46531e-18)
(0.997205 -0.211887 7.08757e-18)
(1.05417 -0.18829 -4.08604e-17)
(1.06723 -0.347904 -6.88799e-18)
(1.00016 -0.101706 -4.4668e-18)
(0.977221 -0.21883 2.02851e-18)
(1.03599 -0.195603 -3.35799e-17)
(1.0488 -0.381826 2.8891e-19)
(0.993885 -0.10434 -3.37189e-18)
(0.953004 -0.222806 -1.0075e-17)
(1.01671 -0.203928 8.77737e-18)
(1.02816 -0.420312 1.43543e-17)
(0.989165 -0.106269 -6.95861e-18)
(0.923902 -0.223499 -2.14444e-17)
(0.996894 -0.213874 4.42691e-17)
(1.00454 -0.462873 2.13139e-17)
(0.984878 -0.106711 -4.88511e-17)
(1.0706 -0.189575 -6.09735e-18)
(1.12919 -0.220665 -9.38985e-18)
(1.22536 -0.231026 -8.08494e-18)
(1.26036 -0.254279 -1.26825e-17)
(1.30037 -0.250989 2.74643e-17)
(1.31394 -0.267764 6.96312e-18)
(1.32854 -0.256854 1.85323e-18)
(1.32862 -0.269423 -5.72202e-18)
(1.33472 -0.25533 -2.96389e-17)
(1.32795 -0.265088 -1.19747e-17)
)
;

boundaryField
{
    inlet
    {
        type            uniformFixedValue;
        uniformValue    constant (1 0 0);
        value           nonuniform 0();
    }
    outlet
    {
        type            pressureInletOutletVelocity;
        value           nonuniform 0();
    }
    polygon
    {
        type            fixedValue;
        value           nonuniform 0();
    }
    top
    {
        type            symmetryPlane;
    }
    bottom
    {
        type            symmetryPlane;
    }
    outside
    {
        type            zeroGradient;
    }
    procBoundary17to8
    {
        type            processor;
        value           nonuniform List<vector> 3((0.979604 -0.107528 7.5457e-18) (0.964834 -0.106142 -1.02436e-17) (0.948002 -0.103433 -1.09243e-17));
    }
    procBoundary17to9
    {
        type            processor;
        value           nonuniform List<vector> 
26
(
(1.19064 -0.30405 -1.1595e-17)
(1.1731 -0.308856 -1.40284e-17)
(1.1731 -0.308856 -1.40284e-17)
(1.21187 -0.297886 -7.51494e-18)
(1.2014 -0.301763 -1.00209e-17)
(1.23512 -0.292301 -8.96596e-18)
(1.22306 -0.296059 -9.12299e-18)
(1.26192 -0.304046 -4.03182e-19)
(1.26192 -0.304046 -4.03182e-19)
(1.26192 -0.304046 -4.03182e-19)
(1.24626 -0.290447 -4.63787e-18)
(1.27625 -0.282116 -2.56744e-18)
(1.26691 -0.285285 -8.32185e-18)
(1.29294 -0.277964 4.19004e-18)
(1.28505 -0.280794 5.74509e-18)
(1.30694 -0.274615 8.10005e-19)
(1.30067 -0.276979 4.3683e-18)
(1.31807 -0.27232 7.45084e-18)
(1.31807 -0.27232 7.45084e-18)
(1.31346 -0.273587 8.04532e-18)
(1.09994 -0.291148 -1.10477e-17)
(1.01717 -0.0961532 -1.6072e-18)
(1.01396 -0.202937 -3.52386e-17)
(1.07054 -0.181277 -1.81111e-17)
(1.07054 -0.181277 -1.81111e-17)
(1.32315 -0.258097 5.19903e-18)
)
;
    }
    procBoundary17to10
    {
        type            processor;
        value           nonuniform List<vector> 5((1.17968 -0.212451 -4.17016e-18) (1.27829 -0.236157 4.0314e-17) (1.32184 -0.245838 7.05287e-18) (1.33647 -0.247156 -3.8553e-17) (1.33293 -0.250458 -2.66121e-18));
    }
    procBoundary17to16
    {
        type            processor;
        value           nonuniform List<vector> 2((0.929781 -0.0995996 8.58499e-18) (0.91158 -0.094866 2.5282e-17));
    }
    procBoundary17to18
    {
        type            processor;
        value           uniform (0.996828 -0.170504 -2.7028e-18);
    }
    procBoundary17to25
    {
        type            processor;
        value           nonuniform List<vector> 
27
(
(1.17983 -0.534896 1.40593e-17)
(1.13166 -0.546413 1.67502e-17)
(0.974934 -0.510048 1.78888e-17)
(1.23786 -0.505477 6.13024e-18)
(1.23786 -0.505477 6.13024e-18)
(1.20899 -0.522987 1.32258e-17)
(1.27876 -0.47657 9.89743e-18)
(1.25357 -0.504865 9.93873e-18)
(1.2514 -0.394392 7.03385e-18)
(1.25851 -0.430372 8.63044e-18)
(1.13284 -0.292346 3.80377e-17)
(1.18414 -0.337458 2.06312e-17)
(0.904479 -0.175931 1.57878e-17)
(1.0763 -0.220714 9.24517e-18)
(1.01308 -0.228098 4.20145e-17)
(0.975007 -0.179575 1.66978e-17)
(1.0763 -0.220714 9.24517e-18)
(0.651538 -0.086373 1.77316e-17)
(0.879146 -0.16129 -8.51055e-18)
(0.835725 -0.128284 -7.25587e-18)
(0.890316 -0.221114 -2.62325e-17)
(0.977062 -0.225202 2.184e-17)
(0.974934 -0.510048 1.78888e-17)
(0.890316 -0.221114 -2.62325e-17)
(0.979012 -0.104919 -3.33613e-19)
(0.812715 -0.126375 -1.42562e-18)
(0.879146 -0.16129 -8.51055e-18)
)
;
    }
}


// ************************************************************************* //
