/*--------------------------------*- C++ -*----------------------------------*\
  =========                 |
  \\      /  F ield         | OpenFOAM: The Open Source CFD Toolbox
   \\    /   O peration     | Website:  https://openfoam.org
    \\  /    A nd           | Version:  7
     \\/     M anipulation  |
\*---------------------------------------------------------------------------*/
FoamFile
{
    version     2.0;
    format      ascii;
    class       volVectorField;
    location    "60";
    object      U;
}
// * * * * * * * * * * * * * * * * * * * * * * * * * * * * * * * * * * * * * //

dimensions      [0 1 -1 0 0 0 0];

internalField   nonuniform List<vector> 
125
(
(-0.42481 0.00164705 1.40365e-19)
(-0.423881 0.00237666 -7.01673e-20)
(-0.422589 0.00319133 -1.8981e-19)
(-0.420902 0.00406701 -1.18159e-19)
(-0.418799 0.00498128 1.8484e-19)
(-0.41627 0.00591397 1.3774e-19)
(-0.413311 0.0068472 -6.87051e-20)
(-0.409927 0.00776514 1.1429e-19)
(-0.406131 0.00865374 2.20179e-18)
(-0.401938 0.00950046 1.44738e-18)
(-0.397372 0.0102942 1.14648e-18)
(-0.39246 0.0110256 -1.34232e-18)
(-0.387231 0.0116866 7.22649e-19)
(-0.438453 1.35238e-05 -2.50372e-20)
(-0.438426 0.000171153 9.06533e-20)
(-0.438265 0.000460554 9.8279e-20)
(-0.437905 0.00087603 1.22008e-20)
(-0.437275 0.00140446 1.61459e-19)
(-0.436318 0.00202694 -3.85865e-19)
(-0.434987 0.00272264 -1.8829e-19)
(-0.433249 0.00347111 -1.1685e-19)
(-0.431082 0.00425318 5.31137e-19)
(-0.428475 0.00505155 2.90447e-19)
(-0.425423 0.00585088 -2.69241e-19)
(-0.421931 0.00663755 1.3173e-18)
(-0.418011 0.0073995 1.0314e-18)
(-0.41368 0.00812595 2.09115e-18)
(-0.40896 0.00880736 2.38879e-18)
(-0.40388 0.00943547 -1.01588e-18)
(-0.398471 0.0100035 3.07954e-18)
(-0.449 1.10937e-05 -1.98456e-20)
(-0.448971 0.000140804 1.04241e-19)
(-0.448807 0.000378923 4.95157e-21)
(-0.448438 0.000720779 2.50285e-20)
(-0.447794 0.00115573 -1.99141e-19)
(-0.446816 0.0016685 -4.2271e-19)
(-0.445455 0.00224213 -2.28014e-19)
(-0.443678 0.00285981 -7.87347e-20)
(-0.44146 0.00350573 -1.6015e-19)
(-0.438789 0.00416555 4.43931e-19)
(-0.435661 0.00482653 -5.50743e-19)
(-0.432079 0.0054774 9.02708e-19)
(-0.428056 0.00610814 3.83094e-19)
(-0.423608 0.0067098 2.25133e-19)
(-0.418758 0.00727445 -1.36371e-20)
(-0.413536 0.00779519 -1.76257e-18)
(-0.407973 0.0082663 2.44597e-18)
(-0.45752 8.60895e-06 -2.15902e-20)
(-0.457491 0.00010989 9.77935e-20)
(-0.457324 0.000295843 -1.14893e-19)
(-0.45695 0.000562859 3.13771e-20)
(-0.456297 0.000902748 -3.12243e-19)
(-0.455304 0.00130378 -1.0233e-19)
(-0.453922 0.00175282 -3.00905e-19)
(-0.452115 0.00223675 -7.96076e-20)
(-0.449858 0.00274317 -8.89163e-19)
(-0.447138 0.00326083 8.89165e-19)
(-0.44395 0.00377968 -1.21181e-18)
(-0.440297 0.00429085 1.38389e-18)
(-0.436191 0.00478645 -1.64399e-19)
(-0.431649 0.00525944 -1.56847e-18)
(-0.426695 0.00570354 -2.6655e-18)
(-0.421357 0.00611331 -3.41666e-18)
(-0.415669 0.00648419 -1.89555e-18)
(-0.46396 6.13002e-06 -3.18257e-20)
(-0.463931 7.86814e-05 4.34059e-20)
(-0.463763 0.000211904 -1.40542e-19)
(-0.463385 0.000403253 5.31423e-20)
(-0.462726 0.000646945 -2.15095e-19)
(-0.461724 0.00093469 2.06069e-19)
(-0.460327 0.00125714 -5.7954e-19)
(-0.4585 0.00160492 -1.49627e-19)
(-0.456216 0.00196911 -5.88158e-19)
(-0.45346 0.0023416 1.88937e-19)
(-0.450227 0.00271514 -5.01666e-19)
(-0.446521 0.00308333 4.01931e-19)
(-0.442353 0.00344046 -1.49038e-18)
(-0.437741 0.00378146 -9.45419e-19)
(-0.432708 0.0041018 -2.57449e-18)
(-0.427283 0.00439751 -1.74422e-18)
(-0.4215 0.00466528 -7.30552e-19)
(-0.468277 3.66681e-06 -3.18347e-20)
(-0.468249 4.73487e-05 1.06688e-20)
(-0.46808 0.00012755 -6.33839e-20)
(-0.467701 0.000242768 1.29404e-19)
(-0.467039 0.000389567 -2.70752e-19)
(-0.466031 0.000563015 -3.41518e-20)
(-0.464626 0.000757514 -4.61947e-19)
(-0.462785 0.000967416 -2.38947e-19)
(-0.460484 0.00118734 -5.88637e-19)
(-0.457705 0.00141239 -2.47583e-19)
(-0.454443 0.00163816 -1.49512e-19)
(-0.450703 0.00186077 -3.65813e-19)
(-0.446494 0.00207678 -6.55704e-19)
(-0.441834 0.00228311 -7.99354e-19)
(-0.436748 0.002477 3.12851e-19)
(-0.431265 0.00265606 -5.727e-19)
(-0.425418 0.00281827 -2.28555e-20)
(-0.470444 1.28478e-06 -2.58504e-20)
(-0.470416 1.60948e-05 -1.14785e-20)
(-0.470247 4.32015e-05 -2.04283e-20)
(-0.469867 8.21589e-05 -5.54995e-20)
(-0.469204 0.000131876 -9.13272e-20)
(-0.468193 0.000190746 -2.73819e-19)
(-0.466784 0.000256915 -7.14352e-19)
(-0.464938 0.000328497 -4.31149e-19)
(-0.462628 0.000403675 -9.86099e-19)
(-0.459838 0.000480779 -7.47734e-19)
(-0.456563 0.000558304 5.63138e-20)
(-0.452805 0.00063491 -1.39138e-18)
(-0.448576 0.000709396 -4.1456e-19)
(-0.443893 0.000780687 -8.38076e-19)
(-0.43878 0.000847817 -8.50336e-19)
(-0.433267 0.000909934 6.14508e-20)
(-0.427389 0.000966319 2.83682e-19)
(-0.470444 -1.28629e-06 -9.74852e-21)
(-0.470416 -1.61217e-05 -3.97041e-20)
(-0.470247 -4.32735e-05 6.75788e-21)
(-0.469867 -8.22915e-05 4.8085e-20)
(-0.469204 -0.000132079 -5.24784e-21)
(-0.468193 -0.000191022 -1.18479e-19)
(-0.466784 -0.000257262 -5.26055e-19)
(-0.464938 -0.000328903 3.71089e-19)
(-0.462628 -0.000404127 -5.20355e-19)
(-0.459838 -0.000481259 -1.37352e-18)
)
;

boundaryField
{
    inlet
    {
        type            uniformFixedValue;
        uniformValue    constant (1 0 0);
        value           nonuniform 0();
    }
    outlet
    {
        type            pressureInletOutletVelocity;
        value           nonuniform List<vector> 7((-0.438453 0 0) (-0.449 0 0) (-0.45752 0 0) (-0.46396 0 0) (-0.468277 0 0) (-0.470444 0 0) (-0.470444 0 0));
    }
    polygon
    {
        type            fixedValue;
        value           nonuniform 0();
    }
    top
    {
        type            symmetryPlane;
    }
    bottom
    {
        type            symmetryPlane;
    }
    outside
    {
        type            zeroGradient;
    }
    procBoundary39to31
    {
        type            processor;
        value           nonuniform List<vector> 
18
(
(-0.456563 -0.00055879 3.59301e-19)
(-0.452805 -0.000635381 -7.20972e-19)
(-0.448576 -0.000709832 -1.01779e-19)
(-0.443893 -0.000781067 -1.52071e-18)
(-0.43878 -0.000848125 2.19675e-18)
(-0.433267 -0.000910156 1.06005e-18)
(-0.427389 -0.000966447 1.23042e-19)
(-0.468278 -3.66836e-06 -1.19075e-20)
(-0.468249 -4.73758e-05 -9.43669e-20)
(-0.46808 -0.000127623 6.00354e-20)
(-0.467701 -0.000242901 1.88467e-19)
(-0.467039 -0.000389771 3.4391e-20)
(-0.466031 -0.000563293 -1.47964e-19)
(-0.464626 -0.000757862 -6.0606e-19)
(-0.462785 -0.000967824 3.36491e-19)
(-0.460484 -0.0011878 -7.86851e-19)
(-0.456563 -0.00055879 3.59301e-19)
(-0.457705 -0.00141287 -8.58809e-19)
)
;
    }
    procBoundary39to38
    {
        type            processor;
        value           nonuniform List<vector> 7((-0.381719 0.0122715 1.00699e-18) (-0.392766 0.0105061 2.17487e-18) (-0.402105 0.00868334 -2.08992e-18) (-0.409667 0.00681263 -1.81343e-18) (-0.415396 0.00490252 -2.54644e-18) (-0.419246 0.00296205 -5.01256e-18) (-0.421182 0.0010164 -4.85395e-18));
    }
    procBoundary39to47
    {
        type            processor;
        value           nonuniform List<vector> 
18
(
(-0.410478 0.00188127 2.17329e-19)
(-0.409587 0.002715 1.33904e-19)
(-0.408345 0.00364511 -3.08106e-19)
(-0.406721 0.00464398 -1.0307e-19)
(-0.404696 0.00568602 6.74856e-20)
(-0.40226 0.0067483 2.42702e-20)
(-0.39941 0.0078105 7.07619e-20)
(-0.396153 0.00885464 -7.90469e-19)
(-0.392499 0.00986478 1.8184e-18)
(-0.388466 0.0108267 1.2643e-18)
(-0.384076 0.011728 1.2608e-19)
(-0.379355 0.0125579 -2.91646e-18)
(-0.374331 0.0133078 -7.48732e-19)
(-0.425945 1.57705e-05 -1.14526e-20)
(-0.42592 0.00020049 7.02887e-20)
(-0.425766 0.00053985 5.53994e-20)
(-0.425419 0.00102723 -6.3243e-21)
(-0.425419 0.00102723 -6.3243e-21)
)
;
    }
}


// ************************************************************************* //
