/*--------------------------------*- C++ -*----------------------------------*\
  =========                 |
  \\      /  F ield         | OpenFOAM: The Open Source CFD Toolbox
   \\    /   O peration     | Website:  https://openfoam.org
    \\  /    A nd           | Version:  7
     \\/     M anipulation  |
\*---------------------------------------------------------------------------*/
FoamFile
{
    version     2.0;
    format      ascii;
    class       volScalarField;
    location    "106";
    object      p;
}
// * * * * * * * * * * * * * * * * * * * * * * * * * * * * * * * * * * * * * //

dimensions      [0 2 -2 0 0 0 0];

internalField   nonuniform List<scalar> 
8000
(
-0.000633439
-0.00216238
-0.00367871
-0.00532127
-0.00698895
-0.00864753
-0.0102709
-0.0118363
-0.0133276
-0.0147333
-0.0160437
-0.0172577
-0.0183709
-0.0193837
-0.0202973
-0.0211146
-0.0218394
-0.0224765
-0.0230313
-0.0235096
-0.0239179
-0.0242628
-0.0245511
-0.0247899
-0.0249863
-0.0251474
-0.0252803
-0.0253919
-0.0254889
-0.0255775
-0.0256638
-0.0257533
-0.025851
-0.0259614
-0.0260885
-0.0262358
-0.0264063
-0.0266024
-0.0268263
-0.0270795
-0.0273634
-0.0276789
-0.0280266
-0.028407
-0.0288204
-0.0292668
-0.0297461
-0.0302581
-0.0308026
-0.0313792
-0.0319877
-0.0326277
-0.0332988
-0.0340008
-0.0347334
-0.0354964
-0.0362896
-0.0371129
-0.0379662
-0.0388497
-0.0397633
-0.0407073
-0.0416818
-0.042687
-0.0437233
-0.0447907
-0.0458895
-0.0470197
-0.0481814
-0.0493745
-0.0505986
-0.0518532
-0.0531375
-0.0544504
-0.0557906
-0.057156
-0.0585444
-0.0599527
-0.0613772
-0.0628134
-0.0642562
-0.065699
-0.0671344
-0.0685533
-0.0699451
-0.0712972
-0.0725949
-0.073821
-0.0749556
-0.0759739
-0.0768555
-0.07756
-0.0780981
-0.0783458
-0.0786018
-0.0780977
-0.079298
-0.0772251
-0.0847469
-0.0811318
-0.00066529
-0.00218196
-0.00369775
-0.00532341
-0.00697197
-0.00861348
-0.0102221
-0.0117753
-0.0132568
-0.0146549
-0.015961
-0.0171733
-0.0182858
-0.019299
-0.0202141
-0.0210337
-0.0217616
-0.0224024
-0.0229613
-0.0234443
-0.0238576
-0.0242076
-0.0245014
-0.0247457
-0.0249476
-0.0251143
-0.0252526
-0.0253694
-0.0254712
-0.0255644
-0.0256548
-0.025748
-0.0258488
-0.0259618
-0.0260909
-0.0262396
-0.0264109
-0.0266073
-0.0268309
-0.0270833
-0.0273659
-0.0276796
-0.0280252
-0.0284031
-0.0288137
-0.029257
-0.029733
-0.0302415
-0.0307825
-0.0313555
-0.0319603
-0.0325966
-0.0332642
-0.0339626
-0.0346917
-0.0354514
-0.0362413
-0.0370614
-0.0379117
-0.0387921
-0.0397028
-0.0406439
-0.0416156
-0.042618
-0.0436513
-0.0447158
-0.0458116
-0.0469388
-0.0480974
-0.0492872
-0.0505078
-0.0517589
-0.0530395
-0.0543487
-0.0556848
-0.0570462
-0.0584305
-0.0598346
-0.061255
-0.0626872
-0.064126
-0.065565
-0.0669967
-0.0684121
-0.0698004
-0.0711489
-0.0724426
-0.0736635
-0.0747915
-0.0757995
-0.076667
-0.0773459
-0.0778513
-0.0780402
-0.0782349
-0.0776097
-0.078539
-0.0763283
-0.0820766
-0.0795379
-0.000689395
-0.00219662
-0.00371393
-0.00532379
-0.00695542
-0.00858132
-0.0101762
-0.0117183
-0.0131914
-0.0145835
-0.0158857
-0.0170947
-0.0182056
-0.0192188
-0.0201349
-0.0209566
-0.0216873
-0.0223315
-0.0228945
-0.0233819
-0.0237998
-0.0241549
-0.0244538
-0.0247034
-0.0249106
-0.0250825
-0.0252258
-0.0253474
-0.0254538
-0.0255511
-0.0256452
-0.0257415
-0.025845
-0.0259601
-0.0260907
-0.0262404
-0.0264122
-0.0266085
-0.0268315
-0.0270829
-0.0273641
-0.027676
-0.0280196
-0.0283952
-0.0288032
-0.0292438
-0.029717
-0.0302227
-0.0307608
-0.031331
-0.031933
-0.0325667
-0.0332316
-0.0339276
-0.0346544
-0.0354119
-0.0361998
-0.037018
-0.0378665
-0.0387452
-0.0396541
-0.0405935
-0.0415634
-0.042564
-0.0435953
-0.0446576
-0.0457509
-0.0468752
-0.0480306
-0.0492168
-0.0504334
-0.05168
-0.0529557
-0.0542594
-0.0555898
-0.0569451
-0.058323
-0.0597204
-0.0611338
-0.062559
-0.0639906
-0.0654225
-0.066847
-0.0682552
-0.0696363
-0.0709775
-0.0722638
-0.0734768
-0.0745962
-0.0755936
-0.0764488
-0.0771079
-0.0775903
-0.0777285
-0.0778599
-0.0771227
-0.0777792
-0.0754842
-0.0797319
-0.0778252
-0.0007071
-0.00220958
-0.00372783
-0.00532421
-0.00694084
-0.00855247
-0.0101347
-0.0116663
-0.0131313
-0.014518
-0.0158156
-0.0170218
-0.0181317
-0.0191449
-0.0200621
-0.0208856
-0.0216189
-0.0222664
-0.022833
-0.0233245
-0.023747
-0.0241067
-0.0244104
-0.0246649
-0.024877
-0.0250537
-0.0252017
-0.0253277
-0.0254382
-0.0255393
-0.0256368
-0.025736
-0.0258419
-0.0259589
-0.0260909
-0.0262415
-0.0264137
-0.0266099
-0.0268323
-0.0270827
-0.0273625
-0.0276727
-0.0280142
-0.0283875
-0.028793
-0.0292309
-0.0297013
-0.0302041
-0.0307391
-0.0313063
-0.0319053
-0.0325359
-0.0331979
-0.033891
-0.0346149
-0.0353697
-0.0361549
-0.0369704
-0.0378163
-0.0386924
-0.0395989
-0.0405357
-0.041503
-0.0425009
-0.0435295
-0.044589
-0.0456793
-0.0468005
-0.0479526
-0.0491353
-0.0503484
-0.0515912
-0.0528628
-0.0541623
-0.055488
-0.0568385
-0.0582114
-0.0596034
-0.0610113
-0.0624306
-0.0638563
-0.065282
-0.0667002
-0.0681019
-0.0694764
-0.0708105
-0.0720892
-0.0732935
-0.074403
-0.0753874
-0.0762271
-0.076862
-0.0773162
-0.0774013
-0.0774599
-0.0766162
-0.0769958
-0.0746621
-0.0776941
-0.0760233
-0.000719925
-0.00222016
-0.00373888
-0.00532377
-0.00692724
-0.00852605
-0.0100968
-0.0116188
-0.013076
-0.0144547
-0.0157514
-0.0169552
-0.018064
-0.0190773
-0.0199954
-0.0208208
-0.0215566
-0.022207
-0.0227772
-0.0232725
-0.023699
-0.0240631
-0.0243713
-0.0246303
-0.0248469
-0.025028
-0.0251803
-0.0253104
-0.0254247
-0.0255292
-0.0256297
-0.0257315
-0.0258395
-0.0259581
-0.0260913
-0.0262425
-0.0264148
-0.0266107
-0.0268324
-0.0270816
-0.0273598
-0.0276681
-0.0280074
-0.0283782
-0.028781
-0.0292161
-0.0296835
-0.0301832
-0.0307151
-0.0312791
-0.031875
-0.0325026
-0.0331616
-0.0338518
-0.034573
-0.0353251
-0.0361078
-0.036921
-0.0377646
-0.0386386
-0.039543
-0.0404778
-0.0414431
-0.042439
-0.0434655
-0.0445229
-0.0456109
-0.0467297
-0.047879
-0.0490586
-0.050268
-0.0515067
-0.0527738
-0.0540684
-0.0553887
-0.0567335
-0.0581002
-0.0594859
-0.0608873
-0.0623003
-0.0637197
-0.0651392
-0.0665513
-0.067947
-0.0693155
-0.0706435
-0.071916
-0.0731132
-0.0742146
-0.0751883
-0.0760146
-0.0766277
-0.0770543
-0.0770901
-0.0770787
-0.0761427
-0.0762598
-0.0738931
-0.0759455
-0.0742749
-0.000729033
-0.00222823
-0.00374701
-0.00532222
-0.0069144
-0.00850205
-0.0100627
-0.0115762
-0.0130268
-0.0144021
-0.0156941
-0.0168955
-0.0180034
-0.0190166
-0.0199357
-0.0207627
-0.0215007
-0.022154
-0.0227273
-0.0232262
-0.0236565
-0.0240245
-0.0243368
-0.0245999
-0.0248206
-0.0250057
-0.0251619
-0.0252956
-0.0254132
-0.0255207
-0.0256239
-0.0257278
-0.0258376
-0.0259575
-0.0260915
-0.026243
-0.0264152
-0.0266105
-0.0268312
-0.027079
-0.0273555
-0.0276618
-0.0279987
-0.028367
-0.0287671
-0.0291992
-0.0296635
-0.0301601
-0.0306889
-0.0312498
-0.0318425
-0.0324669
-0.0331228
-0.03381
-0.0345283
-0.0352776
-0.0360575
-0.036868
-0.0377089
-0.0385801
-0.0394818
-0.0404138
-0.0413761
-0.042369
-0.0433923
-0.0444461
-0.0455305
-0.0466453
-0.0477905
-0.0489659
-0.0501712
-0.0514058
-0.0526687
-0.0539585
-0.0552744
-0.056615
-0.0579779
-0.0593595
-0.0607565
-0.0621649
-0.0635794
-0.064994
-0.0664012
-0.0677919
-0.0691556
-0.0704789
-0.0717465
-0.0729385
-0.0740343
-0.0750003
-0.0758173
-0.076414
-0.0768197
-0.0768165
-0.0767458
-0.0757375
-0.0756218
-0.0732236
-0.0744936
-0.072626
-0.00073526
-0.0022339
-0.0037523
-0.00531951
-0.00690225
-0.00848045
-0.0100325
-0.0115389
-0.012984
-0.0143546
-0.0156437
-0.0168432
-0.0179502
-0.0189635
-0.0198835
-0.0207119
-0.021452
-0.0221078
-0.022684
-0.023186
-0.0236198
-0.0239914
-0.0243073
-0.0245741
-0.0247985
-0.0249871
-0.0251467
-0.0252835
-0.025404
-0.0255141
-0.0256194
-0.0257252
-0.0258363
-0.0259571
-0.0260915
-0.0262431
-0.0264148
-0.0266093
-0.0268288
-0.027075
-0.0273496
-0.0276536
-0.0279881
-0.0283537
-0.0287509
-0.0291801
-0.0296414
-0.0301349
-0.0306605
-0.0312183
-0.031808
-0.0324294
-0.0330824
-0.0337668
-0.0344824
-0.0352292
-0.0360068
-0.036815
-0.0376538
-0.0385231
-0.0394228
-0.040353
-0.0413137
-0.042305
-0.0433268
-0.0443792
-0.0454623
-0.0465759
-0.0477199
-0.0488937
-0.0500968
-0.0513283
-0.0525878
-0.0538749
-0.0551856
-0.0565204
-0.0578763
-0.0592498
-0.0606391
-0.0620402
-0.0634478
-0.064856
-0.0662572
-0.0676425
-0.0690012
-0.0703201
-0.0715839
-0.0727724
-0.0738651
-0.0748271
-0.0756399
-0.0762276
-0.0766222
-0.0765939
-0.07648
-0.0754215
-0.0751161
-0.0726859
-0.0733458
-0.0711282
-0.0007392
-0.00223728
-0.00375486
-0.00531562
-0.00689073
-0.00846118
-0.010006
-0.011506
-0.0129454
-0.0143134
-0.0156005
-0.0167986
-0.0179051
-0.0189186
-0.0198393
-0.0206692
-0.0214111
-0.022069
-0.0226478
-0.0231526
-0.0235894
-0.0239641
-0.0242832
-0.0245532
-0.0247808
-0.0249725
-0.0251349
-0.0252744
-0.0253973
-0.0255094
-0.0256165
-0.0257236
-0.0258356
-0.0259569
-0.0260915
-0.0262428
-0.0264138
-0.0266072
-0.0268252
-0.0270697
-0.0273422
-0.0276438
-0.0279757
-0.0283384
-0.0287325
-0.0291584
-0.0296163
-0.0301063
-0.0306284
-0.0311826
-0.0317687
-0.0323866
-0.0330361
-0.0337171
-0.0344295
-0.0351731
-0.0359474
-0.0367523
-0.0375879
-0.038454
-0.0393504
-0.0402772
-0.0412343
-0.0422216
-0.0432392
-0.0442868
-0.0453646
-0.0464723
-0.0476099
-0.0487773
-0.0499745
-0.0512007
-0.052454
-0.0537319
-0.0550381
-0.0563691
-0.0577225
-0.0590958
-0.0604845
-0.0618844
-0.0632905
-0.064697
-0.0660968
-0.0674809
-0.068839
-0.0701578
-0.0714223
-0.072612
-0.0737071
-0.0746715
-0.0754877
-0.076076
-0.0764717
-0.076434
-0.0762997
-0.0752157
-0.0747758
-0.0723156
-0.0725177
-0.0698629
-0.000741363
-0.00223866
-0.00375503
-0.00531091
-0.0068804
-0.0084453
-0.00998527
-0.0114817
-0.0129196
-0.0142827
-0.0155669
-0.0167635
-0.0178692
-0.0188825
-0.0198037
-0.0206346
-0.0213779
-0.0220377
-0.0226186
-0.0231259
-0.0235651
-0.0239426
-0.0242644
-0.0245371
-0.0247674
-0.0249616
-0.0251264
-0.0252681
-0.0253929
-0.0255066
-0.0256149
-0.0257228
-0.0258354
-0.0259569
-0.0260912
-0.0262419
-0.0264119
-0.0266041
-0.0268205
-0.0270632
-0.0273336
-0.0276331
-0.0279626
-0.0283229
-0.0287145
-0.0291379
-0.0295933
-0.0300807
-0.0306003
-0.031152
-0.0317356
-0.032351
-0.0329979
-0.0336763
-0.034386
-0.0351275
-0.0359002
-0.0367037
-0.0375377
-0.0384023
-0.0392975
-0.0402232
-0.0411795
-0.0421662
-0.0431834
-0.0442311
-0.0453091
-0.0464173
-0.0475556
-0.0487235
-0.0499207
-0.0511469
-0.0524024
-0.0536874
-0.0549912
-0.0563201
-0.0576691
-0.0590306
-0.0604087
-0.0617992
-0.0631968
-0.0645957
-0.0659887
-0.067367
-0.0687203
-0.0700355
-0.0712977
-0.0724867
-0.0735829
-0.0745498
-0.0753714
-0.0759649
-0.0763688
-0.0763387
-0.0762227
-0.0751417
-0.0746448
-0.072157
-0.0720698
-0.0689168
-0.000741539
-0.0022368
-0.00375095
-0.00530263
-0.00686739
-0.00842739
-0.00996248
-0.0114538
-0.0128858
-0.0142512
-0.0155349
-0.0167311
-0.017837
-0.0188511
-0.0197735
-0.0206058
-0.0213509
-0.0220127
-0.0225958
-0.0231053
-0.023547
-0.0239268
-0.024251
-0.0245261
-0.0247585
-0.0249547
-0.0251213
-0.0252645
-0.0253905
-0.0255052
-0.0256142
-0.0257224
-0.0258348
-0.0259557
-0.0260891
-0.0262385
-0.0264068
-0.0265967
-0.0268106
-0.0270503
-0.0273174
-0.0276132
-0.0279386
-0.0282947
-0.0286818
-0.0291005
-0.029551
-0.0300336
-0.0305483
-0.0310952
-0.0316741
-0.0322851
-0.0329283
-0.033603
-0.0343098
-0.0350474
-0.035815
-0.0366141
-0.0374441
-0.0383048
-0.0391959
-0.0401173
-0.041069
-0.0420509
-0.0430628
-0.0441046
-0.0451762
-0.0462773
-0.0474079
-0.0485675
-0.0497558
-0.0509721
-0.0522147
-0.0534807
-0.0547763
-0.0560935
-0.0574339
-0.0587993
-0.0601793
-0.0615706
-0.062969
-0.0643687
-0.0657632
-0.0671438
-0.0685008
-0.0698212
-0.0710909
-0.0722897
-0.0733991
-0.0743823
-0.0752255
-0.0758424
-0.0762787
-0.0762656
-0.0761695
-0.0750952
-0.0745884
-0.0720442
-0.0717699
-0.0680578
0.0737425
0.0794469
0.0815259
0.0838916
0.0848526
0.0849625
0.0838753
0.0815497
0.077744
0.0722441
0.0646218
0.0545158
0.0410973
0.0237559
0.000565413
-0.0298373
-0.0733535
-0.130593
-0.216048
-0.318404
0.0680248
0.0734991
0.0754319
0.0775587
0.0783018
0.0781802
0.0768626
0.0743009
0.0702614
0.0645279
0.0566978
0.0463385
0.0327223
0.0150443
-0.00868726
-0.0403426
-0.0861217
-0.145168
-0.210887
-0.259254
0.0625499
0.0678445
0.0696238
0.0715154
0.0719931
0.0715724
0.0699086
0.0669472
0.0624412
0.0561545
0.0476722
0.036512
0.0218812
0.0028181
-0.0227231
-0.0562366
-0.102081
-0.156303
-0.200174
-0.251275
0.0572657
0.06237
0.0639876
0.0656501
0.0658622
0.0651349
0.0631103
0.0597295
0.0547333
0.0478684
0.0387098
0.0267439
0.0111405
-0.00908618
-0.0358314
-0.0700714
-0.113519
-0.161484
-0.191122
-0.233488
0.0521425
0.0570329
0.0584788
0.0599174
0.0598806
0.0588701
0.0565212
0.0527738
0.0473641
0.0400325
0.0303577
0.0178169
0.00159794
-0.0191957
-0.0461599
-0.0799186
-0.119434
-0.158658
-0.182235
-0.212382
0.0471809
0.0518408
0.0531078
0.0543266
0.0540551
0.0527847
0.0501483
0.0460861
0.0403346
0.0326342
0.0225743
0.00963727
-0.00694761
-0.0279134
-0.0543857
-0.0867357
-0.121862
-0.150518
-0.172972
-0.188053
0.0423909
0.0468076
0.0478932
0.0488959
0.0484003
0.0468871
0.0439892
0.0396483
0.0336046
0.0256058
0.015264
0.00209621
-0.0145952
-0.0353528
-0.0607364
-0.0908666
-0.122013
-0.1408
-0.16307
-0.166454
0.0377798
0.0419383
0.0428439
0.0436344
0.0429244
0.0411828
0.0380447
0.0334545
0.0271594
0.0189171
0.0083635
-0.00494618
-0.0216325
-0.0420416
-0.0660482
-0.0932059
-0.1201
-0.132206
-0.152272
-0.147903
0.0333541
0.0372253
0.0379618
0.0385413
0.0376303
0.0356748
0.0323191
0.0275095
0.0210052
0.0125843
0.00192887
-0.0113133
-0.0275954
-0.0470295
-0.0689428
-0.092524
-0.115512
-0.125375
-0.14085
-0.132567
0.0291226
0.0326579
0.0332513
0.0336129
0.0325148
0.0303541
0.0267975
0.0217895
0.015107
0.00654688
-0.00417747
-0.0173798
-0.0334428
-0.0523675
-0.0729903
-0.0938877
-0.113584
-0.123674
-0.136173
-0.118686
0.139946
0.148867
0.153209
0.158541
0.162798
0.166646
0.16981
0.172239
0.173761
0.174223
0.173364
0.170996
0.166618
0.16007
0.150124
0.136986
0.118086
0.0970836
0.069554
0.0566207
0.131885
0.140689
0.144364
0.149218
0.152705
0.155659
0.157733
0.158875
0.158878
0.157552
0.154574
0.149728
0.142466
0.132653
0.118908
0.101733
0.0781465
0.053783
0.0235812
0.0273725
0.124501
0.13303
0.136338
0.140839
0.143867
0.146324
0.147819
0.148328
0.147636
0.145572
0.141808
0.136142
0.127909
0.117026
0.101854
0.0832804
0.05741
0.031858
-0.00241497
0.00534836
0.117777
0.125936
0.129077
0.133303
0.136025
0.138161
0.139277
0.139369
0.138204
0.135608
0.13122
0.124821
0.11561
0.103545
0.0866562
0.066249
0.0373228
0.00973522
-0.0291129
-0.0199905
0.111285
0.119067
0.122066
0.126022
0.12845
0.13026
0.13098
0.130615
0.128903
0.125656
0.120458
0.113084
0.102612
0.089056
0.0701021
0.0475015
0.0151483
-0.0147252
-0.0568915
-0.045847
0.104817
0.112236
0.115064
0.118735
0.120853
0.122309
0.122606
0.121751
0.11946
0.115533
0.109515
0.101189
0.0895349
0.0746315
0.0538418
0.0293588
-0.0059521
-0.0377815
-0.0827442
-0.0707763
0.0983748
0.105443
0.10809
0.111472
0.113289
0.114398
0.114296
0.112991
0.110187
0.105682
0.0989927
0.0899189
0.0773614
0.0614222
0.0391827
0.0130289
-0.0250688
-0.0598713
-0.108083
-0.0957172
0.0920204
0.098744
0.101221
0.104327
0.105872
0.106669
0.106223
0.104542
0.101326
0.0963719
0.0891768
0.0795519
0.0663371
0.049585
0.0262786
-0.00123995
-0.0411489
-0.07828
-0.12967
-0.120549
0.0857935
0.0921763
0.0945007
0.0973474
0.0986557
0.0991768
0.0984438
0.0964558
0.0929192
0.087627
0.0800705
0.0700631
0.0564445
0.0390799
0.0150968
-0.0141077
-0.0561276
-0.0995292
-0.15524
-0.155981
0.0796986
0.085742
0.0879386
0.0905415
0.0916537
0.0919393
0.0909813
0.0887612
0.0850031
0.0794915
0.071726
0.0615063
0.0476511
0.0298415
0.00583375
-0.0238043
-0.0645579
-0.107399
-0.16197
-0.149562
0.388678
0.387905
0.389211
0.388176
0.390218
0.388933
0.39227
0.390703
0.396301
0.394527
0.40426
0.402552
0.420262
0.419309
0.453662
0.455075
0.528152
0.537718
0.702362
0.763657
0.388676
0.387906
0.389208
0.388185
0.390216
0.388955
0.392276
0.390758
0.396335
0.39466
0.404369
0.402871
0.420562
0.420083
0.454435
0.456995
0.530167
0.542117
0.707942
0.756429
0.388673
0.387903
0.389203
0.388185
0.390209
0.388962
0.39227
0.39078
0.396335
0.394718
0.404392
0.403017
0.42064
0.420437
0.454634
0.457817
0.530565
0.543243
0.708232
0.743969
0.388669
0.387899
0.389194
0.388188
0.390197
0.388969
0.392256
0.390802
0.396323
0.394778
0.404395
0.403171
0.420694
0.420813
0.454788
0.458649
0.530758
0.543795
0.707317
0.725036
0.388664
0.387892
0.389183
0.388186
0.39018
0.388971
0.392232
0.390813
0.396292
0.394815
0.404359
0.40327
0.420654
0.421054
0.454698
0.459087
0.530183
0.542876
0.703665
0.699909
0.388659
0.387883
0.38917
0.388184
0.390159
0.388969
0.3922
0.390816
0.396243
0.394834
0.404287
0.40333
0.420537
0.421197
0.454422
0.459231
0.528995
0.540761
0.697569
0.668619
0.388652
0.387872
0.389154
0.388179
0.390133
0.388963
0.392159
0.39081
0.396177
0.394833
0.404178
0.403346
0.420341
0.42123
0.453942
0.459048
0.527142
0.53744
0.688828
0.630933
0.388645
0.387858
0.389136
0.388173
0.390103
0.388953
0.392109
0.390794
0.396092
0.394811
0.404032
0.403315
0.420061
0.421148
0.453256
0.458532
0.524624
0.532975
0.677174
0.586432
0.388638
0.38784
0.389116
0.388163
0.39007
0.388937
0.392054
0.390767
0.395996
0.394767
0.403857
0.403233
0.419708
0.420941
0.452365
0.457656
0.521439
0.527376
0.662502
0.534719
0.388629
0.387823
0.389089
0.388151
0.390025
0.388918
0.391977
0.39074
0.395868
0.394722
0.403641
0.403153
0.419303
0.420734
0.451397
0.456739
0.517919
0.521388
0.645617
0.474652
0.388629
0.387823
0.389089
0.388151
0.390025
0.388918
0.391978
0.39074
0.395869
0.394722
0.403642
0.403153
0.419304
0.420735
0.451398
0.45674
0.517921
0.52139
0.645619
0.474659
0.388638
0.38784
0.389117
0.388163
0.390071
0.388937
0.392054
0.390768
0.395997
0.394767
0.403857
0.403234
0.419709
0.420942
0.452366
0.457658
0.52144
0.527378
0.662505
0.534726
0.388645
0.387858
0.389136
0.388173
0.390103
0.388953
0.392109
0.390795
0.396093
0.394812
0.404032
0.403316
0.420062
0.421149
0.453257
0.458534
0.524625
0.532977
0.677176
0.586438
0.388652
0.387872
0.389154
0.388179
0.390133
0.388963
0.392159
0.39081
0.396177
0.394833
0.404179
0.403346
0.420342
0.421231
0.453942
0.459049
0.527143
0.537442
0.68883
0.630938
0.388659
0.387883
0.38917
0.388184
0.390159
0.388969
0.3922
0.390816
0.396243
0.394834
0.404287
0.403331
0.420538
0.421198
0.454422
0.459232
0.528996
0.540762
0.69757
0.668623
0.388664
0.387892
0.389183
0.388186
0.39018
0.388971
0.392233
0.390813
0.396292
0.394815
0.404359
0.403271
0.420654
0.421054
0.454699
0.459088
0.530184
0.542877
0.703666
0.699913
0.388669
0.387899
0.389194
0.388188
0.390197
0.388969
0.392256
0.390802
0.396323
0.394778
0.404395
0.403171
0.420694
0.420813
0.454789
0.458649
0.530759
0.543796
0.707318
0.725039
0.388673
0.387903
0.389203
0.388185
0.390209
0.388962
0.39227
0.39078
0.396336
0.394718
0.404392
0.403017
0.420641
0.420437
0.454634
0.457817
0.530566
0.543244
0.708233
0.743971
0.388676
0.387906
0.389208
0.388185
0.390216
0.388955
0.392276
0.390758
0.396335
0.39466
0.40437
0.402871
0.420563
0.420083
0.454435
0.456996
0.530167
0.542118
0.707942
0.75643
0.388678
0.387905
0.389211
0.388176
0.390218
0.388933
0.39227
0.390703
0.396301
0.394527
0.40426
0.402552
0.420262
0.419309
0.453662
0.455075
0.528152
0.537718
0.702362
0.763658
0.0797122
0.0857556
0.0879522
0.0905551
0.0916672
0.0919527
0.0909946
0.0887744
0.0850161
0.0795043
0.0717386
0.0615186
0.0476631
0.0298532
0.00584512
-0.0237932
-0.064547
-0.107388
-0.161959
-0.149551
0.0858068
0.0921896
0.094514
0.0973607
0.0986689
0.0991899
0.0984568
0.0964687
0.0929319
0.0876395
0.0800827
0.0700751
0.0564562
0.0390913
0.015108
-0.0140966
-0.0561166
-0.0995181
-0.155228
-0.15597
0.0920335
0.0987571
0.101234
0.10434
0.105885
0.106682
0.106236
0.104554
0.101338
0.0963841
0.0891887
0.0795635
0.0663486
0.0495962
0.0262896
-0.00122896
-0.0411379
-0.0782687
-0.129658
-0.120537
0.0983877
0.105455
0.108103
0.111485
0.113301
0.114411
0.114308
0.113003
0.110199
0.105694
0.0990043
0.0899303
0.0773726
0.0614332
0.0391936
0.0130398
-0.0250579
-0.0598599
-0.108071
-0.0957051
0.10483
0.112248
0.115077
0.118748
0.120866
0.122321
0.122618
0.121763
0.119471
0.115545
0.109527
0.1012
0.0895458
0.0746423
0.0538525
0.0293696
-0.00594114
-0.0377699
-0.0827324
-0.0707638
0.111298
0.11908
0.122078
0.126034
0.128462
0.130272
0.130992
0.130627
0.128915
0.125667
0.120469
0.113095
0.102623
0.0890666
0.0701127
0.0475122
0.0151592
-0.0147136
-0.0568794
-0.0458343
0.117789
0.125948
0.129089
0.133315
0.136037
0.138173
0.139288
0.13938
0.138215
0.135619
0.131231
0.124832
0.115621
0.103555
0.0866666
0.0662596
0.0373337
0.00974684
-0.0291007
-0.0199775
0.124513
0.133042
0.13635
0.140851
0.143878
0.146335
0.14783
0.148339
0.147647
0.145582
0.141818
0.136152
0.127919
0.117036
0.101864
0.083291
0.0574209
0.0318697
-0.00240269
0.00536165
0.131897
0.140701
0.144376
0.14923
0.152716
0.15567
0.157743
0.158886
0.158888
0.157562
0.154584
0.149738
0.142475
0.132663
0.118918
0.101744
0.0781575
0.0537949
0.0235937
0.0273863
0.139958
0.148878
0.153221
0.158552
0.162809
0.166657
0.16982
0.172249
0.173772
0.174233
0.173374
0.171005
0.166628
0.160079
0.150133
0.136996
0.118097
0.0970951
0.0695663
0.0566349
0.0291388
0.0326742
0.0332678
0.0336296
0.0325316
0.030371
0.0268146
0.0218066
0.0151241
0.00656383
-0.00416084
-0.0173638
-0.0334276
-0.0523536
-0.072978
-0.0938774
-0.113575
-0.123667
-0.136167
-0.118678
0.03337
0.0372414
0.037978
0.0385576
0.0376468
0.0356913
0.0323358
0.0275261
0.0210218
0.0126007
0.00194496
-0.0112977
-0.0275806
-0.0470157
-0.0689305
-0.0925135
-0.115503
-0.125367
-0.140843
-0.13256
0.0377954
0.0419541
0.0428597
0.0436504
0.0429405
0.0411989
0.0380609
0.0334707
0.0271755
0.018933
0.00837908
-0.00493107
-0.0216181
-0.0420281
-0.066036
-0.0931952
-0.120091
-0.132198
-0.152265
-0.147896
0.0424063
0.0468231
0.0479087
0.0489116
0.0484161
0.0469029
0.044005
0.039664
0.0336203
0.0256212
0.0152791
0.00211088
-0.0145811
-0.0353396
-0.0607243
-0.0908556
-0.122003
-0.140792
-0.163062
-0.166446
0.047196
0.051856
0.0531231
0.0543419
0.0540705
0.0528001
0.0501637
0.0461014
0.0403498
0.0326492
0.022589
0.00965155
-0.00693389
-0.0279004
-0.0543736
-0.0867246
-0.121852
-0.150509
-0.172964
-0.188045
0.0521574
0.0570479
0.0584938
0.0599325
0.0598957
0.0588851
0.0565362
0.0527887
0.0473789
0.0400471
0.030372
0.0178309
0.00161134
-0.0191829
-0.0461479
-0.0799075
-0.119424
-0.158649
-0.182227
-0.212374
0.0572803
0.0623847
0.0640024
0.0656648
0.0658769
0.0651496
0.063125
0.059744
0.0547477
0.0478826
0.0387237
0.0267575
0.0111536
-0.00907362
-0.0358195
-0.0700602
-0.113509
-0.161474
-0.191112
-0.233479
0.0625643
0.0678589
0.0696383
0.0715298
0.0720075
0.0715868
0.0699229
0.0669614
0.0624553
0.0561683
0.0476857
0.0365252
0.021894
0.00283045
-0.0227113
-0.0562254
-0.102071
-0.156292
-0.200164
-0.251265
0.0680389
0.0735132
0.0754461
0.0775728
0.0783159
0.0781942
0.0768766
0.0743147
0.0702751
0.0645414
0.056711
0.0463514
0.0327349
0.0150565
-0.00867556
-0.0403314
-0.0861108
-0.145157
-0.210876
-0.259244
0.0737564
0.0794608
0.0815398
0.0839055
0.0848664
0.0849762
0.083889
0.0815632
0.0777574
0.0722572
0.0646347
0.0545284
0.0411096
0.0237679
0.000576963
-0.0298261
-0.0733426
-0.130582
-0.216037
-0.318394
-0.00074145
-0.00223655
-0.0037505
-0.00530194
-0.00686644
-0.0084262
-0.00996112
-0.0114526
-0.0128853
-0.0142459
-0.0155302
-0.0167269
-0.017833
-0.0188472
-0.0197698
-0.0206024
-0.021348
-0.0220103
-0.0225939
-0.0231041
-0.0235465
-0.0239271
-0.024252
-0.0245279
-0.024761
-0.024958
-0.0251252
-0.025269
-0.0253955
-0.0255105
-0.0256196
-0.0257281
-0.0258406
-0.0259615
-0.0260947
-0.0262437
-0.0264116
-0.0266011
-0.0268144
-0.0270535
-0.0273199
-0.0276151
-0.02794
-0.0282954
-0.028682
-0.0291001
-0.0295501
-0.0300322
-0.0305463
-0.0310925
-0.0316706
-0.0322805
-0.0329215
-0.033594
-0.0342968
-0.0350345
-0.035807
-0.0366074
-0.0374388
-0.0383008
-0.0391932
-0.040116
-0.0410689
-0.0420521
-0.0430654
-0.0441085
-0.0451814
-0.0462838
-0.0474154
-0.0485755
-0.0497641
-0.05098
-0.0522239
-0.0535025
-0.0548036
-0.056126
-0.0574679
-0.0588274
-0.0602028
-0.0615903
-0.0629851
-0.0643818
-0.0657733
-0.0671515
-0.0685061
-0.0698247
-0.0710928
-0.0722904
-0.0733989
-0.0743814
-0.0752244
-0.075841
-0.0762771
-0.0762641
-0.0761682
-0.0750942
-0.0745875
-0.0720432
-0.0717686
-0.0680534
-0.000741057
-0.00223778
-0.00375349
-0.00530858
-0.00687716
-0.00844101
-0.00997979
-0.0114747
-0.0129107
-0.0142768
-0.0155597
-0.0167553
-0.0178606
-0.0188739
-0.0197954
-0.0206269
-0.0213712
-0.0220323
-0.0226147
-0.0231237
-0.023565
-0.0239446
-0.0242686
-0.0245436
-0.0247761
-0.0249724
-0.0251392
-0.0252826
-0.0254089
-0.0255237
-0.0256328
-0.0257412
-0.0258538
-0.0259749
-0.0261084
-0.0262578
-0.0264263
-0.0266164
-0.0268306
-0.0270707
-0.0273383
-0.0276348
-0.0279612
-0.0283183
-0.0287068
-0.0291271
-0.0295796
-0.0300645
-0.0305819
-0.0311318
-0.0317142
-0.0323292
-0.0329768
-0.033657
-0.0343703
-0.0351113
-0.0358803
-0.0366872
-0.0375226
-0.0383892
-0.0392869
-0.0402155
-0.0411749
-0.0421649
-0.0431853
-0.0442358
-0.0453164
-0.0464269
-0.0475676
-0.0487379
-0.0499369
-0.0511648
-0.0524176
-0.0536951
-0.0549936
-0.0563155
-0.0576597
-0.059024
-0.0604036
-0.0617944
-0.0631919
-0.0645901
-0.0659823
-0.0673597
-0.0687122
-0.0700266
-0.0712884
-0.0724772
-0.0735734
-0.0745407
-0.0753628
-0.0759571
-0.0763619
-0.0763329
-0.0762177
-0.0751377
-0.0746415
-0.072154
-0.0720666
-0.0689111
-0.00073871
-0.00223587
-0.00375236
-0.00531184
-0.00688547
-0.00845429
-0.00999743
-0.0114958
-0.0129336
-0.0142988
-0.0155853
-0.0167831
-0.0178893
-0.0189029
-0.0198243
-0.0206554
-0.021399
-0.0220592
-0.0226407
-0.0231486
-0.0235888
-0.0239672
-0.0242901
-0.024564
-0.0247953
-0.0249907
-0.0251564
-0.0252989
-0.0254243
-0.0255384
-0.0256468
-0.0257547
-0.0258668
-0.0259875
-0.0261207
-0.0262699
-0.0264383
-0.0266285
-0.0268428
-0.0270831
-0.027351
-0.0276479
-0.0279748
-0.0283325
-0.0287218
-0.0291429
-0.0295964
-0.0300823
-0.0306007
-0.0311517
-0.0317353
-0.0323512
-0.0329992
-0.0336792
-0.0343905
-0.0351346
-0.0359121
-0.0367167
-0.037559
-0.0384309
-0.0393336
-0.0402665
-0.0412297
-0.0422235
-0.0432477
-0.044302
-0.0453863
-0.0464999
-0.047642
-0.0488118
-0.050011
-0.0512365
-0.0524947
-0.0537758
-0.0550838
-0.0564138
-0.0577634
-0.059131
-0.0605134
-0.061907
-0.0633069
-0.0647073
-0.0661014
-0.0674803
-0.0688338
-0.0701489
-0.0714105
-0.0725984
-0.0736923
-0.0746565
-0.0754733
-0.0760627
-0.0764599
-0.0764241
-0.0762914
-0.0752092
-0.0747704
-0.0723109
-0.0725129
-0.0698556
-0.000734583
-0.00223195
-0.00374883
-0.00531425
-0.00689492
-0.0084708
-0.0100204
-0.0115243
-0.012967
-0.014337
-0.0156234
-0.0168218
-0.0179282
-0.0189416
-0.0198625
-0.0206926
-0.0214351
-0.022094
-0.022674
-0.0231804
-0.023619
-0.0239958
-0.0243171
-0.0245893
-0.0248191
-0.0250128
-0.0251771
-0.0253181
-0.0254421
-0.025555
-0.0256622
-0.025769
-0.0258801
-0.026
-0.0261325
-0.0262812
-0.0264492
-0.0266391
-0.0268533
-0.0270936
-0.0273617
-0.027659
-0.0279864
-0.0283449
-0.0287351
-0.0291574
-0.0296123
-0.0300998
-0.0306202
-0.0311735
-0.0317597
-0.0323787
-0.0330304
-0.033715
-0.0344321
-0.0351808
-0.0359612
-0.0367746
-0.0376164
-0.0384923
-0.039398
-0.0403361
-0.0413053
-0.0423049
-0.0433347
-0.0443943
-0.0454836
-0.0466025
-0.0477528
-0.0489334
-0.050139
-0.0513749
-0.0526369
-0.0539195
-0.0552268
-0.0565571
-0.0579084
-0.0592783
-0.0606629
-0.0620584
-0.06346
-0.0648619
-0.066257
-0.0676366
-0.0689903
-0.070305
-0.0715656
-0.0727519
-0.0738436
-0.0748057
-0.0756195
-0.076209
-0.0766058
-0.0765802
-0.0764686
-0.0754128
-0.0751089
-0.0726798
-0.0733398
-0.0711197
-0.000728184
-0.00222575
-0.00374259
-0.00531551
-0.00690502
-0.00848969
-0.0100472
-0.0115576
-0.0130049
-0.0143761
-0.0156674
-0.0168678
-0.017975
-0.0189884
-0.0199087
-0.0207378
-0.021479
-0.0221363
-0.0227145
-0.023219
-0.0236556
-0.0240303
-0.0243495
-0.0246197
-0.0248473
-0.025039
-0.0252012
-0.0253403
-0.0254625
-0.0255735
-0.0256791
-0.0257843
-0.0258941
-0.0260127
-0.0261442
-0.026292
-0.0264593
-0.0266487
-0.0268625
-0.0271026
-0.0273708
-0.0276682
-0.0279961
-0.0283552
-0.0287461
-0.0291695
-0.0296256
-0.0301146
-0.0306366
-0.0311918
-0.03178
-0.0324013
-0.0330554
-0.0337422
-0.0344614
-0.0352128
-0.0359967
-0.036812
-0.0376582
-0.0385381
-0.0394525
-0.0403938
-0.0413655
-0.0423688
-0.0434034
-0.0444688
-0.0455648
-0.0466904
-0.0478418
-0.0490175
-0.0502315
-0.0514728
-0.0527349
-0.0540242
-0.0553388
-0.0566752
-0.0580315
-0.0594055
-0.0607941
-0.0621934
-0.0635985
-0.0650038
-0.0664022
-0.0677849
-0.0691416
-0.0704592
-0.0717226
-0.0729118
-0.0740065
-0.0749727
-0.0757911
-0.0763902
-0.0767988
-0.0767992
-0.0767316
-0.0757266
-0.075613
-0.0732162
-0.0744865
-0.0726166
-0.00071892
-0.0022172
-0.00373356
-0.00531565
-0.00691585
-0.00851102
-0.0100779
-0.0115961
-0.0130498
-0.0144284
-0.0157192
-0.0169213
-0.0180293
-0.0190427
-0.0199624
-0.0207903
-0.02153
-0.0221854
-0.0227616
-0.0232638
-0.023698
-0.0240703
-0.024387
-0.0246546
-0.0248797
-0.0250689
-0.0252286
-0.0253653
-0.0254851
-0.0255939
-0.0256974
-0.0258007
-0.0259087
-0.0260257
-0.0261557
-0.0263024
-0.0264686
-0.0266572
-0.0268703
-0.0271101
-0.0273781
-0.0276756
-0.0280036
-0.0283632
-0.0287549
-0.0291791
-0.0296364
-0.0301268
-0.0306505
-0.0312076
-0.0317981
-0.0324218
-0.0330787
-0.0337687
-0.0344916
-0.0352471
-0.0360351
-0.0368558
-0.0377094
-0.0385903
-0.0395009
-0.040452
-0.0414334
-0.042444
-0.0434834
-0.0445513
-0.0456475
-0.0467724
-0.0479341
-0.0491315
-0.0503464
-0.0515851
-0.0528528
-0.0541454
-0.0554622
-0.0568013
-0.0581607
-0.059538
-0.0609298
-0.0623323
-0.0637407
-0.0651493
-0.0665509
-0.0679371
-0.0692972
-0.0706186
-0.0718861
-0.0730802
-0.0741804
-0.0751546
-0.0759827
-0.0765989
-0.0770293
-0.0770694
-0.0770619
-0.07613
-0.0762496
-0.0738847
-0.0759376
-0.074265
-0.000705959
-0.00220617
-0.00372167
-0.00531474
-0.0069275
-0.0085348
-0.0101125
-0.0116395
-0.0131
-0.0144822
-0.0157772
-0.0169817
-0.0180906
-0.019104
-0.0200229
-0.0208496
-0.0215875
-0.0222408
-0.0228146
-0.0233143
-0.0237458
-0.0241153
-0.0244291
-0.0246938
-0.024916
-0.0251022
-0.025259
-0.0253928
-0.0255099
-0.025616
-0.025717
-0.0258179