/*--------------------------------*- C++ -*----------------------------------*\
  =========                 |
  \\      /  F ield         | OpenFOAM: The Open Source CFD Toolbox
   \\    /   O peration     | Website:  https://openfoam.org
    \\  /    A nd           | Version:  7
     \\/     M anipulation  |
\*---------------------------------------------------------------------------*/
FoamFile
{
    version     2.0;
    format      ascii;
    class       volVectorField;
    location    "106";
    object      U;
}
// * * * * * * * * * * * * * * * * * * * * * * * * * * * * * * * * * * * * * //

dimensions      [0 1 -1 0 0 0 0];

internalField   nonuniform List<vector> 
8000
(
(-0.243692 -0.000354073 -6.70243e-20)
(-0.24446 -0.000885826 2.68204e-19)
(-0.245442 -0.0015525 -2.70659e-19)
(-0.246819 -0.00200808 7.33134e-19)
(-0.248294 -0.00220741 -5.84442e-19)
(-0.249756 -0.00217622 -7.0713e-19)
(-0.251129 -0.00194807 1.146e-18)
(-0.252354 -0.0015627 3.68499e-19)
(-0.253396 -0.0010586 1.88081e-19)
(-0.254231 -0.000468485 3.2915e-19)
(-0.254846 0.000179426 -1.04104e-18)
(-0.255236 0.000856025 -8.5882e-19)
(-0.255397 0.0015486 -5.88147e-18)
(-0.25533 0.00224191 -1.58686e-18)
(-0.255039 0.00292347 1.04803e-18)
(-0.254532 0.00358336 1.06917e-18)
(-0.253817 0.00421373 4.10261e-18)
(-0.252903 0.00480834 -9.12766e-19)
(-0.251803 0.00536216 1.36508e-18)
(-0.250527 0.00587112 2.50854e-19)
(-0.249089 0.00633189 1.82925e-18)
(-0.247503 0.00674173 2.80783e-18)
(-0.245782 0.0070984 9.10439e-19)
(-0.243942 0.00740012 -5.81579e-19)
(-0.241999 0.00764564 9.46349e-20)
(-0.239967 0.00783422 1.18346e-18)
(-0.237864 0.0079658 -3.13255e-19)
(-0.235705 0.00804099 2.16947e-18)
(-0.233507 0.00806111 1.45562e-19)
(-0.231284 0.00802827 -1.16753e-20)
(-0.229053 0.00794523 1.04362e-18)
(-0.226826 0.00781543 4.10561e-20)
(-0.224617 0.00764283 4.21431e-18)
(-0.222438 0.00743183 -7.79512e-19)
(-0.2203 0.00718717 -3.15696e-18)
(-0.218211 0.00691377 -1.00182e-19)
(-0.216179 0.00661663 2.33807e-19)
(-0.21421 0.00630074 4.58889e-18)
(-0.212309 0.00597099 1.88138e-18)
(-0.21048 0.00563206 5.11856e-18)
(-0.208723 0.00528841 1.35381e-18)
(-0.207041 0.00494417 8.21158e-19)
(-0.205432 0.00460314 5.18285e-18)
(-0.203895 0.00426877 -5.80495e-19)
(-0.202427 0.0039441 1.58202e-19)
(-0.201025 0.00363177 5.87533e-19)
(-0.199684 0.00333401 -4.41986e-18)
(-0.1984 0.00305268 -5.6285e-19)
(-0.197167 0.0027892 4.76794e-19)
(-0.195978 0.00254466 7.89854e-19)
(-0.194828 0.00231977 7.80845e-19)
(-0.19371 0.00211491 -1.03135e-18)
(-0.192617 0.00193017 -1.37639e-18)
(-0.191542 0.0017654 -2.26438e-18)
(-0.190478 0.00162018 -1.50562e-18)
(-0.189417 0.00149397 -3.17336e-20)
(-0.188354 0.00138605 -1.54247e-18)
(-0.18728 0.00129578 2.14946e-19)
(-0.186189 0.00122243 -9.36786e-19)
(-0.185074 0.00116538 5.83417e-19)
(-0.183927 0.00112405 5.89628e-18)
(-0.182742 0.00109802 1.37313e-18)
(-0.181512 0.00108704 6.82455e-18)
(-0.180231 0.00109108 3.04556e-19)
(-0.17889 0.00111039 5.39261e-19)
(-0.177485 0.00114551 3.96926e-18)
(-0.176006 0.00119736 2.13288e-18)
(-0.174447 0.0012672 8.71715e-18)
(-0.1728 0.00135669 2.29842e-18)
(-0.171057 0.00146789 6.19091e-19)
(-0.169211 0.00160335 8.2678e-18)
(-0.167251 0.001766 4.51528e-18)
(-0.165169 0.00195934 1.1471e-17)
(-0.162955 0.00218743 1.89379e-18)
(-0.160598 0.00245503 2.60939e-18)
(-0.158087 0.00276754 -2.94722e-18)
(-0.155409 0.00313095 -2.80401e-18)
(-0.152551 0.00355226 5.41025e-18)
(-0.1495 0.00403932 9.04255e-18)
(-0.14624 0.00460141 9.5631e-19)
(-0.142754 0.00524942 7.79269e-18)
(-0.139025 0.00599635 2.93042e-18)
(-0.135035 0.00685792 1.00033e-17)
(-0.130764 0.00785347 -4.98394e-18)
(-0.126192 0.00900693 7.44943e-18)
(-0.121298 0.0103486 8.29148e-18)
(-0.116063 0.0119162 1.07893e-17)
(-0.110472 0.0137625 -3.42057e-18)
(-0.10451 0.0159477 7.42072e-18)
(-0.0981871 0.0185617 -7.51179e-18)
(-0.0915073 0.0217085 -2.01344e-18)
(-0.0845756 0.0255561 -1.98665e-18)
(-0.0773923 0.0302609 -8.25832e-19)
(-0.0705051 0.0361381 -1.46323e-19)
(-0.0633864 0.0433983 1.78738e-19)
(-0.0590014 0.0520274 3.40737e-18)
(-0.0525936 0.0632716 2.4134e-19)
(-0.0559535 0.0710108 -1.66547e-17)
(-0.046998 0.0838428 -4.38453e-18)
(-0.0369866 0.0507829 -2.44832e-17)
(-0.257811 -0.000247649 -8.85319e-20)
(-0.258362 -0.00066613 3.33312e-20)
(-0.259143 -0.00121927 -1.8772e-19)
(-0.26028 -0.00161127 3.09539e-19)
(-0.261531 -0.00179222 -5.88561e-19)
(-0.26279 -0.001774 -1.33712e-18)
(-0.263977 -0.00158053 -3.09138e-19)
(-0.265031 -0.00124465 2.21497e-19)
(-0.265911 -0.000799888 3.36913e-20)
(-0.266589 -0.000275047 1.27252e-19)
(-0.26705 0.00030135 -3.65965e-19)
(-0.267286 0.000908004 -1.53281e-18)
(-0.26729 0.00153008 -5.28974e-18)
(-0.267063 0.00215361 -1.76431e-18)
(-0.26661 0.00276711 2.28186e-18)
(-0.265937 0.0033614 1.78546e-18)
(-0.265052 0.00392918 1.94742e-18)
(-0.263967 0.00446464 -4.75127e-19)
(-0.262692 0.00496309 3.00054e-18)
(-0.26124 0.00542075 7.54274e-20)
(-0.259626 0.00583455 3.75147e-19)
(-0.257862 0.00620198 6.11954e-18)
(-0.255964 0.00652099 4.15915e-18)
(-0.253949 0.00678998 -1.57355e-18)
(-0.251831 0.00700781 -1.30134e-19)
(-0.249628 0.00717386 1.73094e-18)
(-0.247357 0.00728807 -1.53983e-18)
(-0.245034 0.00735102 3.80036e-18)
(-0.242677 0.00736392 -1.1376e-18)
(-0.2403 0.00732869 -8.6256e-19)
(-0.23792 0.00724785 1.4292e-18)
(-0.235552 0.00712451 -8.67371e-19)
(-0.23321 0.00696226 1.47557e-18)
(-0.230905 0.0067651 -3.4283e-18)
(-0.228649 0.00653732 -4.31193e-19)
(-0.226451 0.00628338 -2.09711e-19)
(-0.224321 0.00600782 -3.65931e-19)
(-0.222264 0.00571516 2.02642e-18)
(-0.220287 0.00540984 2.32651e-18)
(-0.218392 0.0050961 2.57082e-18)
(-0.216583 0.00477797 8.96232e-19)
(-0.214861 0.00445921 5.52779e-19)
(-0.213225 0.00414327 2.51024e-18)
(-0.211674 0.00383324 -3.19888e-18)
(-0.210206 0.0035319 -5.12595e-19)
(-0.208819 0.00324161 2.02772e-19)
(-0.207508 0.00296442 -2.11294e-18)
(-0.206267 0.00270196 -4.32514e-19)
(-0.205093 0.00245553 2.39591e-19)
(-0.20398 0.00222608 7.2316e-19)
(-0.20292 0.00201424 5.90581e-19)
(-0.201908 0.00182033 1.53021e-18)
(-0.200937 0.00164442 -1.72619e-18)
(-0.2 0.0014863 -4.30827e-19)
(-0.19909 0.00134559 -2.68458e-18)
(-0.1982 0.00122172 -3.76812e-19)
(-0.197323 0.00111398 -4.65262e-18)
(-0.196452 0.00102177 -2.50128e-19)
(-0.195579 0.00094437 -2.76418e-18)
(-0.194699 0.000881176 4.51524e-19)
(-0.193803 0.000831638 1.69424e-18)
(-0.192886 0.000795312 4.29389e-19)
(-0.19194 0.000771945 2.85508e-18)
(-0.190959 0.000761476 -2.31334e-18)
(-0.189936 0.000764097 -3.73383e-19)
(-0.188864 0.000780292 7.18328e-18)
(-0.187735 0.000810876 2.04022e-18)
(-0.186543 0.000856994 3.96212e-18)
(-0.18528 0.000920188 1.51675e-18)
(-0.183938 0.00100233 6.44341e-19)
(-0.182509 0.00110579 3.52093e-18)
(-0.180984 0.00123325 8.06879e-18)
(-0.179354 0.00138793 9.46942e-18)
(-0.177608 0.00157358 1.74801e-18)
(-0.175735 0.00179464 5.61527e-18)
(-0.173725 0.00205616 -7.14723e-18)
(-0.171564 0.0023637 -5.83025e-18)
(-0.169237 0.00272375 1.23768e-17)
(-0.166731 0.00314364 2.08216e-18)
(-0.164028 0.00363199 -4.6279e-20)
(-0.161109 0.00419898 -4.43373e-19)
(-0.157955 0.00485681 4.43559e-18)
(-0.154543 0.00562028 3.59761e-18)
(-0.150848 0.0065077 -1.3582e-17)
(-0.146845 0.00754184 -2.34803e-18)
(-0.142504 0.00875186 -3.88518e-18)
(-0.137793 0.0101742 2.52742e-18)
(-0.132683 0.0118602 -1.02594e-17)
(-0.127135 0.0138701 -3.3396e-18)
(-0.121134 0.0162939 -1.81047e-17)
(-0.114634 0.0192391 -2.87685e-18)
(-0.107694 0.0228776 -3.98444e-18)
(-0.100203 0.0273935 -1.13583e-18)
(-0.0926343 0.0330823 -2.19504e-19)
(-0.084219 0.0403225 1.00309e-19)
(-0.0776296 0.0488831 7.65487e-18)
(-0.068041 0.0606381 4.23373e-19)
(-0.0651715 0.0683267 -1.33224e-17)
(-0.0500556 0.080341 -4.04061e-18)
(-0.0252732 0.0465585 -1.1071e-17)
(-0.27045 -0.000172532 -1.10283e-20)
(-0.270843 -0.000497161 -1.68198e-19)
(-0.271458 -0.000950025 -2.10155e-19)
(-0.272391 -0.00127975 1.28191e-19)
(-0.273444 -0.00143904 -1.10361e-18)
(-0.27452 -0.00142902 -5.12817e-19)
(-0.275538 -0.00126607 1.04934e-18)
(-0.276434 -0.000976711 3.03179e-19)
(-0.277165 -0.000589654 -1.40218e-19)
(-0.2777 -0.00012944 -6.425e-20)
(-0.278021 0.000376539 -1.21713e-19)
(-0.278116 0.000913424 1.01594e-18)
(-0.277978 0.00146473 -3.13649e-18)
(-0.277607 0.00201799 -1.7502e-18)
(-0.277008 0.00256281 1.96477e-19)
(-0.276185 0.00309082 3.37477e-18)
(-0.275149 0.00359533 7.2121e-19)
(-0.273909 0.00407102 -4.6367e-19)
(-0.272477 0.0045136 7.12633e-19)
(-0.270866 0.00491962 -6.0062e-19)
(-0.269092 0.00528628 -5.40821e-19)
(-0.267168 0.00561131 7.17739e-18)
(-0.26511 0.00589287 2.40607e-18)
(-0.262935 0.00612954 1.94897e-18)
(-0.26066 0.0063203 3.66714e-20)
(-0.258301 0.00646463 3.10549e-18)
(-0.255877 0.0065625 -4.09004e-18)
(-0.253404 0.00661443 1.67411e-18)
(-0.2509 0.00662155 -4.0842e-18)
(-0.248383 0.00658555 -1.93214e-18)
(-0.245867 0.00650871 2.74586e-18)
(-0.243368 0.00639382 -2.58541e-18)
(-0.240902 0.00624408 -6.39715e-20)
(-0.238479 0.00606308 -1.76383e-18)
(-0.236114 0.00585464 2.67555e-18)
(-0.233814 0.00562277 -3.18004e-19)
(-0.231591 0.00537151 -1.03217e-18)
(-0.22945 0.00510492 1.08695e-18)
(-0.227399 0.00482696 3.77943e-18)
(-0.22544 0.00454144 1.53761e-18)
(-0.223577 0.00425194 5.16268e-19)
(-0.221812 0.00396185 5.20907e-19)
(-0.220146 0.00367422 1.36969e-18)
(-0.218576 0.00339185 -9.02513e-19)
(-0.217102 0.00311719 -8.17298e-19)
(-0.215721 0.00285237 -1.15599e-19)
(-0.214428 0.00259918 -1.23143e-18)
(-0.21322 0.0023591 -2.29015e-19)
(-0.212092 0.00213326 1.72253e-19)
(-0.211037 0.00192249 1.10661e-18)
(-0.21005 0.00172733 4.88351e-19)
(-0.209125 0.00154805 4.50072e-18)
(-0.208255 0.00138467 -3.51162e-18)
(-0.207433 0.00123697 1.38414e-18)
(-0.206652 0.00110454 -5.67064e-18)
(-0.205906 0.000986853 -4.59584e-19)
(-0.205186 0.000883177 -1.17627e-18)
(-0.204487 0.000792956 1.59562e-19)
(-0.203801 0.000715482 3.40516e-18)
(-0.203121 0.00065019 9.39945e-19)
(-0.20244 0.000596545 -1.55953e-18)
(-0.201752 0.000554104 -5.3078e-19)
(-0.20105 0.000522609 1.31334e-18)
(-0.200327 0.000501971 -7.06786e-18)
(-0.199577 0.000492336 -6.72571e-19)
(-0.198791 0.000494121 3.06811e-18)
(-0.197965 0.000508053 1.91587e-18)
(-0.197089 0.000535167 2.05373e-18)
(-0.196157 0.000576866 8.75246e-19)
(-0.19516 0.000634853 4.92814e-19)
(-0.194092 0.000711297 1.84654e-18)
(-0.192942 0.000808669 2.27258e-18)
(-0.191701 0.000929924 -1.81584e-18)
(-0.19036 0.00107851 9.08035e-19)
(-0.188906 0.00125859 1.22552e-17)
(-0.187327 0.0014748 -1.84101e-18)
(-0.185612 0.00173227 4.32003e-18)
(-0.183743 0.00203698 1.27791e-17)
(-0.181707 0.00239564 -5.68427e-18)
(-0.179483 0.00281618 -1.30249e-18)
(-0.177052 0.00330792 -8.87814e-18)
(-0.174392 0.00388207 8.87886e-18)
(-0.171475 0.00455224 -1.15461e-18)
(-0.168274 0.00533536 -1.35834e-17)
(-0.164755 0.00625254 -1.09107e-17)
(-0.160882 0.007331 -1.80213e-17)
(-0.156612 0.00860491 -1.93986e-18)
(-0.1519 0.0101224 -4.82773e-18)
(-0.146687 0.0119415 -1.31289e-17)
(-0.14093 0.0141479 -1.92025e-17)
(-0.13454 0.0168477 -2.91645e-18)
(-0.127527 0.020206 -7.91386e-18)
(-0.119671 0.0244209 -1.80404e-18)
(-0.111361 0.0297636 -3.5354e-19)
(-0.101607 0.0367277 -3.03673e-20)
(-0.0927646 0.0449286 1.55953e-17)
(-0.0800248 0.0565402 1.78991e-18)
(-0.0713443 0.0639742 -2.01507e-17)
(-0.0512297 0.0743547 -3.8427e-18)
(-0.0196584 0.0431169 -8.51876e-18)
(-0.281575 -0.000119412 4.97848e-20)
(-0.281853 -0.00036981 -4.98163e-19)
(-0.282337 -0.000733614 -3.48592e-19)
(-0.2831 -0.00100537 2.44506e-21)
(-0.283983 -0.00114108 -6.69362e-19)
(-0.284897 -0.00113549 2.75724e-19)
(-0.285764 -0.000999222 6.71514e-19)
(-0.286519 -0.000753121 3.05298e-19)
(-0.287116 -0.000421014 -4.9107e-19)
(-0.287523 -2.18364e-05 -2.62807e-19)
(-0.287718 0.000413448 8.92076e-20)
(-0.287688 0.00087924 -3.81308e-19)
(-0.287424 0.00135878 -3.51421e-18)
(-0.286926 0.00184078 -2.06381e-18)
(-0.286197 0.00231592 -1.08849e-18)
(-0.285242 0.00277667 1.54768e-18)
(-0.284071 0.00321702 -6.97576e-19)
(-0.282694 0.00363216 -9.92683e-19)
(-0.281123 0.00401822 -1.18165e-18)
(-0.279372 0.00437212 -1.98041e-18)
(-0.277456 0.00469134 -1.34873e-18)
(-0.275389 0.00497384 7.04635e-18)
(-0.273189 0.005218 7.45172e-19)
(-0.270872 0.00542256 -2.68144e-19)
(-0.268456 0.00558664 5.99186e-22)
(-0.265959 0.0057098 -1.30148e-19)
(-0.263398 0.00579201 -3.35333e-18)
(-0.260791 0.00583377 1.41442e-18)
(-0.258156 0.00583606 -3.3782e-18)
(-0.255512 0.00580041 -3.20002e-18)
(-0.252873 0.00572882 -3.56608e-19)
(-0.250257 0.00562375 1.10294e-19)
(-0.247677 0.00548806 -1.14836e-18)
(-0.245148 0.0053249 -1.19813e-18)
(-0.242682 0.00513766 1.03473e-18)
(-0.24029 0.00492986 -1.26893e-18)
(-0.23798 0.00470511 -2.15187e-18)
(-0.235762 0.00446696 1.25564e-18)
(-0.23364 0.00421892 5.39868e-19)
(-0.23162 0.00396436 7.15532e-19)
(-0.229706 0.00370644 2.05611e-19)
(-0.227899 0.00344813 8.29442e-19)
(-0.2262 0.00319214 1.14468e-18)
(-0.224608 0.00294091 4.64855e-19)
(-0.223123 0.0026966 -1.54921e-18)
(-0.221741 0.00246106 -3.04409e-19)
(-0.22046 0.00223587 -1.27305e-18)
(-0.219274 0.00202227 1.86545e-19)
(-0.21818 0.00182126 4.01222e-19)
(-0.217171 0.00163352 2.12335e-18)
(-0.216242 0.00145948 6.78032e-19)
(-0.215387 0.00129934 1.55525e-18)
(-0.214599 0.00115305 2.27954e-19)
(-0.213871 0.00102039 4.674e-18)
(-0.213197 0.000900913 -3.77171e-18)
(-0.21257 0.000794069 2.81989e-19)
(-0.211982 0.000699115 1.95065e-18)
(-0.211427 0.000615533 6.07275e-19)
(-0.210897 0.000542613 1.79882e-18)
(-0.210386 0.000479819 9.9356e-19)
(-0.209887 0.00042663 -6.15508e-18)
(-0.209393 0.00038259 -1.01159e-18)
(-0.208898 0.000347436 4.23143e-19)
(-0.208394 0.000321042 -5.55558e-18)
(-0.207874 0.000303502 -1.20366e-19)
(-0.207333 0.000295162 1.52725e-18)
(-0.206763 0.00029666 2.22637e-18)
(-0.206156 0.00030892 1.46753e-18)
(-0.205506 0.000333223 7.14226e-19)
(-0.204804 0.000371129 4.77696e-19)
(-0.204043 0.000424646 1.14794e-18)
(-0.203212 0.000496019 -2.04993e-18)
(-0.202304 0.00058788 1.78617e-20)
(-0.201307 0.000703292 8.61166e-19)
(-0.200209 0.000846161 1.23912e-17)
(-0.198999 0.00102075 -6.37577e-19)
(-0.197663 0.00123165 1.70221e-18)
(-0.196185 0.00148423 5.07176e-18)
(-0.194548 0.00178446 -3.3093e-18)
(-0.192732 0.00213944 -2.01771e-18)
(-0.190716 0.00255754 -5.87449e-18)
(-0.188474 0.00304881 3.02419e-18)
(-0.185978 0.00362548 -8.24892e-18)
(-0.183195 0.00430278 -4.32059e-18)
(-0.180085 0.00509977 -5.34249e-18)
(-0.176606 0.00604119 -2.31013e-17)
(-0.172704 0.00715818 -4.75081e-18)
(-0.168323 0.00849467 -3.05262e-18)
(-0.163383 0.0101046 -1.01063e-17)
(-0.157817 0.0120673 -1.07074e-17)
(-0.151492 0.0144837 -1.56826e-18)
(-0.144378 0.0175063 -1.70731e-17)
(-0.136154 0.0213374 -2.19403e-18)
(-0.127123 0.0262087 -4.26794e-20)
(-0.116102 0.0326798 1.5408e-19)
(-0.105127 0.040262 1.35432e-17)
(-0.0894861 0.0512327 1.61786e-18)
(-0.075685 0.0582306 -1.93426e-17)
(-0.051473 0.0669256 -3.64644e-18)
(-0.0168361 0.0396038 -1.35072e-17)
(-0.291158 -8.20347e-05 1.2754e-19)
(-0.291355 -0.000272713 -6.10775e-19)
(-0.291737 -0.000559022 -5.69526e-19)
(-0.292362 -0.00077759 -7.14153e-20)
(-0.293102 -0.000889332 -6.49286e-19)
(-0.293878 -0.000885787 1.47618e-18)
(-0.294614 -0.000773351 6.21453e-19)
(-0.295245 -0.000568008 3.49504e-19)
(-0.295725 -0.000289098 -1.3333e-18)
(-0.29602 4.71948e-05 -5.36834e-19)
(-0.296107 0.000415255 3.6493e-19)
(-0.295967 0.000810442 -2.32057e-18)
(-0.295594 0.001218 -1.66156e-18)
(-0.294985 0.00162822 -2.84205e-18)
(-0.294143 0.00203297 -2.54703e-18)
(-0.293075 0.00242568 1.11269e-18)
(-0.291787 0.00280107 -3.19845e-18)
(-0.290291 0.0031549 -2.1047e-18)
(-0.2886 0.00348379 -3.6859e-18)
(-0.286727 0.00378501 -4.33079e-18)
(-0.284688 0.00405636 -2.09544e-18)
(-0.282498 0.00429605 1.21175e-17)
(-0.280175 0.00450268 -1.9842e-18)
(-0.277735 0.00467516 -2.92108e-18)
(-0.275196 0.00481275 -1.27924e-19)
(-0.272577 0.00491505 -3.51068e-18)
(-0.269897 0.00498208 -4.97947e-18)
(-0.267173 0.00501428 2.87402e-18)
(-0.264424 0.00501251 -5.54684e-18)
(-0.261667 0.00497811 -5.95093e-18)
(-0.258921 0.00491283 -3.05999e-18)
(-0.2562 0.00481881 2.8331e-18)
(-0.253522 0.00469855 -2.97737e-18)
(-0.250898 0.00455478 -1.04619e-18)
(-0.248343 0.00439045 3.36529e-19)
(-0.245867 0.00420863 -3.5575e-18)
(-0.24348 0.00401244 -4.52826e-18)
(-0.241191 0.00380498 2.85112e-18)
(-0.239006 0.00358928 -2.58731e-18)
(-0.23693 0.00336825 1.62492e-19)
(-0.234967 0.00314462 -1.4281e-19)
(-0.23312 0.00292096 1.5508e-18)
(-0.231389 0.00269958 1.54153e-18)
(-0.229775 0.00248259 1.86157e-18)
(-0.228276 0.00227181 -3.58029e-18)
(-0.226889 0.00206883 -4.19924e-19)
(-0.225613 0.00187496 -1.99658e-18)
(-0.224442 0.00169125 1.06392e-18)
(-0.223372 0.0015185 6.42885e-19)
(-0.222398 0.00135726 4.56513e-18)
(-0.221515 0.00120783 9.39409e-19)
(-0.220715 0.00107033 -9.62091e-19)
(-0.219993 0.000944643 4.03085e-18)
(-0.219341 0.000830513 1.11298e-17)
(-0.218754 0.000727473 -5.42463e-18)
(-0.218224 0.000634961 1.79544e-18)
(-0.217744 0.000552212 6.52952e-18)
(-0.217308 0.000478753 1.48853e-18)
(-0.216908 0.000413874 1.28247e-18)
(-0.216537 0.000357081 1.56706e-18)
(-0.216188 0.000307889 -1.52208e-17)
(-0.215856 0.000265851 -1.16916e-18)
(-0.215532 0.000230722 8.54691e-20)
(-0.21521 0.000202365 -8.1431e-18)
(-0.214884 0.00018084 1.13083e-18)
(-0.214547 0.000166431 1.73317e-18)
(-0.21419 0.000159683 3.9536e-18)
(-0.213809 0.000161387 1.57397e-18)
(-0.213394 0.000172657 6.91048e-19)
(-0.212939 0.000194824 6.74882e-19)
(-0.212434 0.000229642 9.67904e-19)
(-0.211871 0.000279087 6.01741e-18)
(-0.21124 0.000345553 2.34827e-18)
(-0.210531 0.000431832 1.62015e-18)
(-0.209732 0.000541384 6.18708e-18)
(-0.20883 0.000677931 -2.60024e-18)
(-0.207812 0.000845547 3.91161e-19)
(-0.20666 0.00104907 8.82792e-19)
(-0.205358 0.0012938 -4.70703e-18)
(-0.203884 0.00158592 -3.26524e-18)
(-0.202215 0.0019327 -6.34417e-18)
(-0.200324 0.00234284 7.25058e-19)
(-0.198179 0.00282692 -2.71915e-18)
(-0.195744 0.00339817 3.3565e-18)
(-0.192977 0.00407316 -2.48913e-18)
(-0.189826 0.00487351 -2.42301e-17)
(-0.18623 0.00582652 -6.24304e-18)
(-0.182122 0.00697077 -2.44932e-18)
(-0.177404 0.00835435 -1.4292e-17)
(-0.17199 0.0100479 -8.40507e-18)
(-0.165708 0.0121433 1.99069e-18)
(-0.158491 0.0147754 -1.64984e-17)
(-0.149931 0.0181413 -1.74511e-18)
(-0.140248 0.0224255 7.06084e-19)
(-0.128103 0.0282081 1.99941e-17)
(-0.11522 0.0349447 2.04095e-17)
(-0.0970343 0.0448718 2.54331e-18)
(-0.0788825 0.0512692 -1.1904e-17)
(-0.0512528 0.0584902 -3.06566e-18)
(-0.0152699 0.0356225 -8.67315e-18)
(-0.299175 -5.57016e-05 9.16635e-20)
(-0.299317 -0.000197921 -6.36661e-19)
(-0.299621 -0.000417262 -6.97722e-20)
(-0.300138 -0.00058764 -9.10046e-20)
(-0.300763 -0.000676147 8.85755e-19)
(-0.301425 -0.00067336 1.64172e-18)
(-0.30205 -0.000582755 7.47803e-19)
(-0.302578 -0.000416269 3.88984e-19)
(-0.302959 -0.000189153 2.84076e-19)
(-0.303158 8.37961e-05 -8.16099e-19)
(-0.303152 0.000387081 8.00986e-19)
(-0.30292 0.000711934 -1.59084e-18)
(-0.302455 0.00104737 -6.98711e-19)
(-0.301753 0.00138542 -3.96827e-19)
(-0.300817 0.00171926 1.96157e-19)
(-0.299652 0.00204331 1.85387e-18)
(-0.298267 0.00235309 -2.50293e-18)
(-0.296672 0.00264499 1.81971e-18)
(-0.29488 0.00291613 -2.50025e-18)
(-0.292905 0.00316418 -2.67857e-18)
(-0.290762 0.00338726 -2.67809e-18)
(-0.288469 0.00358387 1.31694e-17)
(-0.286041 0.00375281 -2.71736e-18)
(-0.283497 0.00389317 -3.66928e-19)
(-0.280855 0.00400433 2.94328e-19)
(-0.278133 0.004086 -2.90204e-18)
(-0.275352 0.00413818 -2.28195e-18)
(-0.272528 0.00416128 4.98243e-19)
(-0.269682 0.00415604 -5.67745e-18)
(-0.266831 0.00412362 -4.55233e-18)
(-0.263993 0.0040655 5.86507e-19)
(-0.261184 0.00398354 1.30142e-18)
(-0.25842 0.00387983 -6.50315e-19)
(-0.255715 0.00375673 -1.01116e-18)
(-0.253083 0.00361674 8.70521e-20)
(-0.250535 0.00346245 -1.4715e-18)
(-0.248082 0.00329653 -2.11173e-18)
(-0.245731 0.00312159 1.53255e-19)
(-0.24349 0.00294019 -9.35293e-19)
(-0.241364 0.00275478 2.95003e-19)
(-0.239359 0.00256766 -3.03227e-19)
(-0.237475 0.00238096 3.58927e-18)
(-0.235715 0.00219662 2.55407e-18)
(-0.234078 0.00201637 4.10769e-18)
(-0.232564 0.00184173 -8.63393e-19)
(-0.231171 0.00167397 -1.31494e-19)
(-0.229896 0.00151416 -3.99885e-18)
(-0.228734 0.00136313 2.98779e-18)
(-0.227682 0.00122147 1.28444e-18)
(-0.226734 0.00108958 1.80701e-18)
(-0.225884 0.000967655 9.75284e-19)
(-0.225127 0.0008557 -4.06781e-18)
(-0.224456 0.000753552 2.57407e-18)
(-0.223865 0.000660906 6.16379e-18)
(-0.223347 0.00057728 -3.7195e-18)
(-0.222895 0.000502074 5.83672e-18)
(-0.222502 0.00043446 5.40278e-18)
(-0.222161 0.00037403 1.86429e-18)
(-0.221865 0.000320083 1.43947e-18)
(-0.221607 0.00027216 2.57299e-18)
(-0.221381 0.000229797 -1.38241e-17)
(-0.221179 0.00019254 1.11687e-18)
(-0.220995 0.000160159 -2.66865e-19)
(-0.220821 0.000132504 -4.59772e-18)
(-0.220652 0.000109597 5.07834e-18)
(-0.22048 9.16634e-05 3.12361e-18)
(-0.220299 7.91437e-05 7.93003e-18)
(-0.220101 7.26859e-05 1.73761e-18)
(-0.219878 7.32383e-05 6.83997e-19)
(-0.219624 8.19932e-05 1.6905e-18)
(-0.219329 0.000100624 8.56594e-19)
(-0.218984 0.00013094 4.06333e-18)
(-0.218581 0.000174901 4.78277e-18)
(-0.218107 0.000234634 3.32383e-18)
(-0.217552 0.000313867 3.76973e-18)
(-0.216902 0.00041588 -7.54255e-18)
(-0.216143 0.000544277 -6.87363e-19)
(-0.215258 0.000703025 -2.41015e-18)
(-0.214229 0.000896248 -1.03118e-17)
(-0.213034 0.00112912 -5.63213e-18)
(-0.211648 0.00140772 -1.13183e-17)
(-0.210044 0.00173929 -4.57993e-19)
(-0.208186 0.00213264 6.36609e-19)
(-0.206037 0.00259875 -4.66755e-18)
(-0.203548 0.0031514 -2.18256e-18)
(-0.200666 0.00380864 -2.34694e-17)
(-0.19732 0.00459331 -6.4532e-18)
(-0.193435 0.0055377 -1.99787e-18)
(-0.188898 0.00668262 -7.26319e-18)
(-0.183607 0.0080876 -8.55261e-18)
(-0.177357 0.00983252 8.79102e-18)
(-0.170051 0.0120299 -7.09517e-18)
(-0.161206 0.0148613 6.76935e-20)
(-0.150974 0.0184635 1.99025e-18)
(-0.137886 0.0233962 3.04933e-17)
(-0.123384 0.0291049 1.80113e-17)
(-0.103057 0.0376642 1.84967e-18)
(-0.081323 0.0432797 -1.3894e-17)
(-0.0507991 0.0492433 -2.71393e-18)
(-0.0142439 0.0310485 -1.15206e-17)
(-0.305611 -3.69445e-05 1.01473e-19)
(-0.305714 -0.000139319 -5.46876e-19)
(-0.305962 -0.000300537 5.47864e-19)
(-0.306397 -0.000427444 -9.51558e-20)
(-0.306933 -0.000493995 1.32511e-18)
(-0.307503 -0.000491398 5.26807e-19)
(-0.308041 -0.000421211 1.00959e-18)
(-0.308484 -0.000291897 3.99022e-19)
(-0.308785 -0.000114565 1.98818e-18)
(-0.308908 9.80033e-05 -1.70407e-18)
(-0.308826 0.000334721 2.05275e-18)
(-0.30852 0.000589024 -2.27186e-18)
(-0.30798 0.000852192 2.78808e-19)
(-0.307204 0.00111777 2.11454e-18)
(-0.306192 0.00138026 3.31846e-18)
(-0.30495 0.00163515 3.67969e-18)
(-0.303486 0.00187879 1.8287e-18)
(-0.301811 0.00210824 1.71052e-18)
(-0.299937 0.00232114 2.21768e-18)
(-0.29788 0.00251559 -2.44349e-18)
(-0.295654 0.00269004 -3.46501e-18)
(-0.293277 0.00284329 1.09957e-17)
(-0.290765 0.00297435 -2.06897e-18)
(-0.288137 0.0030825 2.53841e-18)
(-0.285411 0.00316726 9.36457e-19)
(-0.282607 0.00322839 -4.41232e-18)
(-0.279744 0.00326594 -3.85213e-19)
(-0.27684 0.00328025 -1.17817e-18)
(-0.273914 0.00327196 -3.34073e-18)
(-0.270986 0.00324203 -5.1026e-18)
(-0.268073 0.00319171 -1.14514e-18)
(-0.265192 0.00312253 4.82908e-19)
(-0.262358 0.00303625 7.90651e-19)
(-0.259587 0.00293479 -1.54149e-18)
(-0.256892 0.00282022 3.00373e-20)
(-0.254285 0.00269468 -5.82665e-19)
(-0.251776 0.00256034 -8.92468e-19)
(-0.249374 0.00241935 -1.98863e-18)
(-0.247087 0.00227379 1.1694e-19)
(-0.24492 0.00212565 7.61518e-19)
(-0.242877 0.00197679 -6.1987e-19)
(-0.240962 0.00182891 8.50523e-19)
(-0.239177 0.00168356 4.6724e-18)
(-0.23752 0.00154212 9.81663e-19)
(-0.235993 0.00140577 2.86044e-19)
(-0.234592 0.00127549 3.59961e-19)
(-0.233315 0.00115209 -8.81762e-18)
(-0.232158 0.00103615 -5.25165e-19)
(-0.231118 0.000928095 2.41207e-18)
(-0.230188 0.000828149 -1.59933e-19)
(-0.229364 0.000736365 1.41915e-18)
(-0.228639 0.000652642 -1.03693e-17)
(-0.228007 0.000576724 3.74448e-18)
(-0.227462 0.000508259 4.67605e-18)
(-0.226997 0.000446717 -5.63256e-18)
(-0.226605 0.000391516 5.27388e-18)
(-0.226279 0.000341838 7.0943e-18)
(-0.226012 0.000297241 2.61043e-18)
(-0.225797 0.000256989 2.26067e-18)
(-0.225628 0.000220677 4.62271e-18)
(-0.225497 0.000187906 -1.24148e-17)
(-0.225397 0.000158228 -3.80897e-18)
(-0.225322 0.000131453 -1.019e-18)
(-0.225265 0.000107445 -4.42312e-18)
(-0.225219 8.62398e-05 1.46415e-18)
(-0.225177 6.80726e-05 6.09685e-18)
(-0.225133 5.33747e-05 4.06142e-18)
(-0.225079 4.27335e-05 1.16643e-18)
(-0.225007 3.69212e-05 6.8416e-19)
(-0.224911 3.67887e-05 3.90521e-18)
(-0.22478 4.35557e-05 9.06499e-19)
(-0.224607 5.86738e-05 5.12631e-18)
(-0.224382 8.4035e-05 1.0068e-17)
(-0.224094 0.000121945 6.58439e-18)
(-0.22373 0.000174605 3.46357e-18)
(-0.223278 0.00024482 -3.31362e-18)
(-0.222723 0.000335332 -6.30566e-19)
(-0.222048 0.000449658 -7.64137e-18)
(-0.221234 0.000591687 -5.98907e-18)
(-0.220259 0.000765691 -1.00039e-17)
(-0.219097 0.000976465 -2.2906e-17)
(-0.217719 0.00122968 1.20159e-19)
(-0.216088 0.00153219 4.55573e-18)
(-0.214164 0.00189257 2.71842e-18)
(-0.211896 0.00232158 -2.11566e-18)
(-0.209226 0.00283331 -2.00463e-17)
(-0.206079 0.00344569 -6.77575e-18)
(-0.202371 0.00418407 -2.06386e-18)
(-0.197979 0.00508095 -5.24497e-18)
(-0.192787 0.00618326 -1.36788e-17)
(-0.186566 0.00755617 2.21574e-18)
(-0.179193 0.00928702 -5.01726e-18)
(-0.170125 0.0115326 3.38678e-18)
(-0.15946 0.0143841 3.40206e-18)
(-0.145627 0.0183391 1.94001e-17)
(-0.129827 0.0228826 2.29287e-17)
(-0.107787 0.0298149 1.29921e-18)
(-0.0832129 0.0344631 -5.83001e-18)
(-0.0502497 0.0392904 -1.44085e-18)
(-0.0134498 0.025771 -4.56491e-18)
(-0.31045 -2.32549e-05 1.66609e-19)
(-0.310528 -9.20386e-05 -2.17041e-19)
(-0.310737 -0.000202059 6.56386e-19)
(-0.311114 -0.000289497 -1.77058e-19)
(-0.311584 -0.00033553 9.02358e-19)
(-0.312087 -0.000333095 -5.12766e-19)
(-0.312559 -0.000282659 1.8934e-18)
(-0.312938 -0.000189913 5.95754e-19)
(-0.313179 -6.25344e-05 1.36418e-18)
(-0.313244 9.1041e-05 -3.17627e-19)
(-0.313105 0.000262542 8.37086e-19)
(-0.312743 0.000446908 -6.1303e-19)
(-0.312147 0.000637988 2.16717e-18)
(-0.311314 0.00083103 1.29558e-18)
(-0.310245 0.00102193 3.17093e-18)
(-0.308944 0.00120731 1.90256e-18)
(-0.307421 0.0013844 8.85484e-19)
(-0.305686 0.00155096 2.46722e-18)
(-0.303751 0.00170519 1.7628e-18)
(-0.301632 0.00184562 -4.72714e-18)
(-0.299344 0.0019711 -5.44527e-18)
(-0.296903 0.00208069 4.34602e-18)
(-0.294328 0.00217364 9.02618e-19)
(-0.291637 0.00224943 1.21827e-18)
(-0.288848 0.00230771 1.27187e-18)
(-0.285981 0.00234831 -2.71258e-18)
(-0.283055 0.00237132 -4.41567e-18)
(-0.28009 0.00237701 -3.94172e-18)
(-0.277105 0.00236592 -3.26097e-18)
(-0.274118 0.00233883 -1.61927e-18)
(-0.271148 0.00229674 -2.49085e-18)
(-0.268212 0.00224089 1.44806e-19)
(-0.265325 0.00217266 -4.18468e-18)
(-0.262503 0.00209357 -3.26153e-18)
(-0.25976 0.00200525 2.49741e-19)
(-0.257107 0.00190939 -2.04598e-19)
(-0.254556 0.00180766 -3.78304e-19)
(-0.252114 0.00170174 -5.28915e-18)
(-0.249791 0.00159322 -5.26771e-18)
(-0.247591 0.00148362 1.64497e-18)
(-0.24552 0.00137434 -1.41125e-18)
(-0.243581 0.00126666 -1.11471e-18)
(-0.241774 0.00116173 2.514e-18)
(-0.240102 0.00106054 -2.36033e-18)
(-0.238562 0.000963933 1.39166e-18)
(-0.237154 0.000872594 6.57657e-19)
(-0.235875 0.000787051 -3.91991e-18)
(-0.234721 0.000707674 -2.41647e-18)
(-0.233687 0.000634676 -3.13587e-18)
(-0.23277 0.000568125 -2.66766e-18)
(-0.231963 0.000507947 2.40425e-18)
(-0.231261 0.000453944 -7.14779e-18)
(-0.230657 0.000405817 1.21659e-18)
(-0.230145 0.000363158 -3.70756e-18)
(-0.229718 0.000325466 -3.23509e-18)
(-0.22937 0.000291921 1.6948e-19)
(-0.229093 0.000261538 2.83583e-18)
(-0.22888 0.000234115 3.48192e-18)
(-0.228725 0.000208982 4.41194e-18)
(-0.228621 0.000185709 -1.62166e-18)
(-0.22856 0.000163888 -9.99624e-18)
(-0.228535 0.000143047 -8.90596e-18)
(-0.228541 0.000123026 -1.71065e-18)
(-0.228569 0.000103672 -7.15124e-18)
(-0.228614 8.50018e-05 -8.84596e-20)
(-0.228669 6.72178e-05 1.2287e-18)
(-0.228726 5.07152e-05 1.81004e-18)
(-0.228778 3.60398e-05 6.29696e-19)
(-0.228818 2.38861e-05 1.17642e-18)
(-0.228838 1.49568e-05 9.10479e-18)
(-0.22883 1.02143e-05 2.26323e-19)
(-0.228785 1.07135e-05 1.00584e-17)
(-0.228692 1.75527e-05 6.99303e-18)
(-0.228541 3.11868e-05 1.23924e-17)
(-0.228319 5.67688e-05 4.25482e-18)
(-0.228014 9.58026e-05 -2.2957e-18)
(-0.227611 0.000151326 -8.6312e-19)
(-0.227092 0.000226456 -1.98469e-18)
(-0.226437 0.000322456 -4.38835e-18)
(-0.225625 0.000442404 -3.52417e-18)
(-0.224629 0.000589829 -1.32094e-17)
(-0.223418 0.000768821 5.54432e-18)
(-0.221956 0.000984271 1.20214e-17)
(-0.2202 0.00124225 1.15043e-17)
(-0.218097 0.00155034 -4.34982e-18)
(-0.215586 0.00191854 -3.08643e-17)
(-0.212588 0.00235957 -7.42393e-18)
(-0.209014 0.0028914 -1.92076e-18)
(-0.204733 0.00353748 -6.92519e-18)
(-0.199619 0.00433119 -7.07821e-18)
(-0.193423 0.00532091 6.51842e-20)
(-0.186007 0.00656757 -7.26425e-18)
(-0.176781 0.00819511 1.02106e-17)
(-0.165804 0.0102522 6.61534e-18)
(-0.151428 0.0131338 2.28629e-17)
(-0.134667 0.0164189 1.9655e-17)
(-0.111344 0.0215209 -2.06748e-18)
(-0.0846482 0.0250259 -3.22497e-18)
(-0.0497074 0.028705 -4.65069e-19)
(-0.0127866 0.0197077 -2.37625e-18)
(-0.313683 -1.26404e-05 1.76082e-19)
(-0.313746 -5.18121e-05 -4.26943e-20)
(-0.313931 -0.000115422 2.88749e-19)
(-0.314269 -0.000166175 -4.97683e-19)
(-0.314696 -0.000192587 1.11242e-18)
(-0.315156 -0.000189963 2.94695e-19)
(-0.315583 -0.000158134 1.55764e-18)
(-0.31592 -0.000100153 8.16562e-19)
(-0.31612 -1.99925e-05 1.48315e-18)
(-0.316146 7.33725e-05 5.69176e-19)
(-0.315969 0.000179153 3.57706e-19)
(-0.315569 0.000293326 6.41619e-19)
(-0.314935 0.00041195 1.095e-18)
(-0.314065 0.000531992 9.88202e-19)
(-0.312957 0.000650789 -4.43768e-19)
(-0.311618 0.000766104 6.5414e-19)
(-0.310056 0.000876091 2.77482e-19)
(-0.30828 0.000979236 4.77216e-18)
(-0.306305 0.00107431 1.51278e-18)
(-0.304144 0.00116031 -4.88905e-18)
(-0.301814 0.00123644 -3.37029e-18)
(-0.299331 0.00130206 2.34936e-18)
(-0.296714 0.00135667 3.4423e-18)
(-0.29398 0.00139993 6.18199e-19)
(-0.291149 0.00143161 1.97941e-18)