/*--------------------------------*- C++ -*----------------------------------*\
  =========                 |
  \\      /  F ield         | OpenFOAM: The Open Source CFD Toolbox
   \\    /   O peration     | Website:  https://openfoam.org
    \\  /    A nd           | Version:  10
     \\/     M anipulation  |
\*---------------------------------------------------------------------------*/
FoamFile
{
    format      ascii;
    class       volScalarField;
    location    "15";
    object      p;
}
// * * * * * * * * * * * * * * * * * * * * * * * * * * * * * * * * * * * * * //

dimensions      [0 2 -2 0 0 0 0];

internalField   nonuniform List<scalar> 
800
(
-0.318652
-0.307254
-0.308099
-0.301736
-0.310705
-0.307488
-0.344329
-0.365083
-0.404123
-0.984137
-0.327102
-0.316058
-0.317306
-0.311953
-0.322188
-0.32178
-0.356614
-0.404333
-0.479391
-0.459625
-0.334926
-0.324031
-0.325893
-0.322052
-0.333991
-0.340355
-0.37889
-0.437809
-0.521848
-0.550506
-0.342309
-0.331671
-0.334166
-0.33203
-0.345408
-0.358287
-0.401388
-0.472272
-0.515012
-0.525002
-0.349424
-0.339229
-0.342363
-0.341908
-0.356599
-0.374148
-0.421168
-0.502414
-0.507257
-0.560582
-0.356328
-0.3467
-0.350471
-0.351611
-0.367834
-0.389209
-0.442024
-0.522041
-0.517082
-0.561976
-0.36298
-0.354017
-0.358447
-0.361016
-0.378593
-0.402152
-0.462217
-0.528481
-0.539608
-0.56124
-0.369392
-0.361119
-0.366165
-0.369923
-0.388862
-0.414524
-0.483772
-0.530695
-0.567743
-0.549788
-0.375474
-0.368001
-0.373707
-0.37849
-0.398306
-0.423862
-0.49788
-0.535016
-0.5911
-0.536804
-0.381321
-0.374669
-0.380868
-0.38639
-0.407103
-0.43535
-0.516603
-0.56476
-0.617139
-0.510694
-0.231394
-0.207437
-0.198282
-0.16983
-0.146309
-0.0961363
-0.0439773
0.065041
0.143548
0.357457
-0.240756
-0.217607
-0.210115
-0.183288
-0.16415
-0.11791
-0.0781683
0.0235338
0.0714244
0.286458
-0.24988
-0.228179
-0.2227
-0.199126
-0.18592
-0.14697
-0.120523
-0.025872
0.0112165
0.233681
-0.258364
-0.238237
-0.234421
-0.213995
-0.205778
-0.173516
-0.158132
-0.0732235
-0.0547196
0.171884
-0.266643
-0.247996
-0.245574
-0.227923
-0.224077
-0.198374
-0.194423
-0.123526
-0.126491
0.0946823
-0.275059
-0.257786
-0.256608
-0.241514
-0.241816
-0.222215
-0.230798
-0.173351
-0.200882
0.0151384
-0.28366
-0.26771
-0.267593
-0.254928
-0.25893
-0.244722
-0.26543
-0.222646
-0.276983
-0.101772
-0.292369
-0.277704
-0.278379
-0.267886
-0.274794
-0.264756
-0.295486
-0.265669
-0.350671
-0.19974
-0.301091
-0.287673
-0.288764
-0.280176
-0.288781
-0.282632
-0.319103
-0.308246
-0.412437
-0.430209
-0.309839
-0.297553
-0.298685
-0.29156
-0.301047
-0.297095
-0.337063
-0.334341
-0.41911
-0.557429
-0.309839
-0.297554
-0.298685
-0.29156
-0.301047
-0.297096
-0.337064
-0.334341
-0.41911
-0.557429
-0.301092
-0.287674
-0.288764
-0.280177
-0.288781
-0.282632
-0.319103
-0.308247
-0.412437
-0.43021
-0.29237
-0.277705
-0.278379
-0.267887
-0.274795
-0.264756
-0.295487
-0.26567
-0.350671
-0.19974
-0.28366
-0.267711
-0.267593
-0.254928
-0.258931
-0.244723
-0.26543
-0.222646
-0.276983
-0.101772
-0.275059
-0.257786
-0.256608
-0.241515
-0.241816
-0.222216
-0.230798
-0.173352
-0.200882
0.015138
-0.266644
-0.247996
-0.245574
-0.227924
-0.224078
-0.198374
-0.194424
-0.123527
-0.126492
0.0946819
-0.258364
-0.238237
-0.234422
-0.213996
-0.205779
-0.173516
-0.158133
-0.0732239
-0.05472
0.171883
-0.24988
-0.228179
-0.222701
-0.199126
-0.18592
-0.14697
-0.120524
-0.0258724
0.0112161
0.233681
-0.240757
-0.217607
-0.210116
-0.183289
-0.164151
-0.11791
-0.0781688
0.0235335
0.071424
0.286458
-0.231395
-0.207437
-0.198282
-0.16983
-0.146309
-0.0961367
-0.0439777
0.0650406
0.143547
0.357457
-0.381321
-0.374669
-0.380868
-0.38639
-0.407103
-0.43535
-0.516603
-0.56476
-0.617139
-0.510694
-0.375474
-0.368001
-0.373708
-0.378491
-0.398306
-0.423862
-0.497881
-0.535016
-0.5911
-0.536805
-0.369393
-0.361119
-0.366166
-0.369924
-0.388863
-0.414524
-0.483773
-0.530695
-0.567744
-0.549788
-0.362981
-0.354017
-0.358448
-0.361016
-0.378594
-0.402153
-0.462218
-0.528481
-0.539608
-0.561241
-0.356328
-0.346701
-0.350471
-0.351611
-0.367834
-0.389209
-0.442024
-0.522041
-0.517082
-0.561976
-0.349424
-0.33923
-0.342364
-0.341909
-0.356599
-0.374149
-0.421169
-0.502415
-0.507258
-0.560583
-0.34231
-0.331671
-0.334166
-0.332031
-0.345408
-0.358287
-0.401388
-0.472272
-0.515012
-0.525002
-0.334927
-0.324032
-0.325893
-0.322053
-0.333991
-0.340356
-0.37889
-0.437809
-0.521848
-0.550507
-0.327103
-0.316058
-0.317307
-0.311953
-0.322189
-0.321781
-0.356615
-0.404334
-0.479391
-0.459625
-0.318653
-0.307255
-0.3081
-0.301737
-0.310705
-0.307489
-0.34433
-0.365083
-0.404123
-0.984137
-0.178532
-0.153331
-0.13993
-0.115198
-0.0901032
-0.0543902
-0.00804908
0.0552116
0.130795
0.220605
-0.126921
-0.106897
-0.0939496
-0.0722401
-0.0501287
-0.0224908
0.00531506
0.0382169
0.0620043
0.0899115
-0.0924055
-0.0800322
-0.0723176
-0.0602173
-0.048085
-0.0348842
-0.0204155
-0.00730533
0.0053284
0.013568
-0.074346
-0.065766
-0.0606189
-0.0523046
-0.0449011
-0.0365574
-0.0294207
-0.0224681
-0.0178711
-0.0148903
-0.0640765
-0.0597888
-0.0571553
-0.053229
-0.0494471
-0.0456635
-0.0419019
-0.0388651
-0.0363415
-0.0350502
-0.0581666
-0.0551667
-0.0534953
-0.0507705
-0.0485325
-0.0460944
-0.0441402
-0.0423715
-0.0412483
-0.0406099
-0.0553733
-0.0541953
-0.0534217
-0.0523028
-0.051229
-0.0501843
-0.049183
-0.0483985
-0.0477835
-0.0474787
-0.0534999
-0.052415
-0.051908
-0.0509146
-0.0502482
-0.0494275
-0.0488482
-0.0482956
-0.0479671
-0.047774
-0.0531204
-0.0528118
-0.0526068
-0.0522929
-0.0519872
-0.0516918
-0.0514039
-0.0511891
-0.0509922
-0.0509139
-0.0522963
-0.0517838
-0.0515562
-0.051122
-0.0508111
-0.0504584
-0.0501831
-0.0499436
-0.0497805
-0.0496905
-0.0225665
-0.0220204
-0.021723
-0.0213689
-0.0210401
-0.0207355
-0.0204668
-0.0202575
-0.0201209
-0.0200564
0.0161753
0.0170485
0.0177592
0.0185986
0.0195259
0.02049
0.0214476
0.0223075
0.0229682
0.0233309
-0.0509337
-0.0507897
-0.0504539
-0.0500543
-0.0495039
-0.0488763
-0.0482051
-0.0475857
-0.047107
-0.0468468
0.0108675
0.0113145
0.0123354
0.0135862
0.0152665
0.0170897
0.0189706
0.0205943
0.0217547
0.0223413
-0.102689
-0.105683
-0.106344
-0.107576
-0.107832
-0.107767
-0.10717
-0.106313
-0.105452
-0.104923
-0.0429907
-0.0452314
-0.0442962
-0.043914
-0.0416485
-0.0392725
-0.0363555
-0.033936
-0.0322722
-0.0315241
-0.212488
-0.227822
-0.232739
-0.242979
-0.248442
-0.253434
-0.254666
-0.253312
-0.250413
-0.248141
-0.226831
-0.245512
-0.250928
-0.265819
-0.272779
-0.282132
-0.285244
-0.287173
-0.285371
-0.285361
-0.408739
-0.435426
-0.449106
-0.473835
-0.493749
-0.512953
-0.523687
-0.52466
-0.521384
-0.515825
-0.444011
-0.452169
-0.465408
-0.482081
-0.502921
-0.518761
-0.531548
-0.534457
-0.54116
-0.527826
-0.0522964
-0.0517839
-0.0515563
-0.0511221
-0.0508112
-0.0504585
-0.0501832
-0.0499437
-0.0497805
-0.0496905
-0.0531205
-0.0528119
-0.0526069
-0.052293
-0.0519873
-0.0516918
-0.051404
-0.0511891
-0.0509923
-0.0509139
-0.0535
-0.0524151
-0.0519081
-0.0509147
-0.0502483
-0.0494276
-0.0488483
-0.0482956
-0.0479671
-0.047774
-0.0553734
-0.0541953
-0.0534217
-0.0523028
-0.051229
-0.0501844
-0.0491831
-0.0483986
-0.0477835
-0.0474787
-0.0581667
-0.0551667
-0.0534953
-0.0507705
-0.0485326
-0.0460944
-0.0441403
-0.0423715
-0.0412483
-0.0406099
-0.0640765
-0.0597888
-0.0571553
-0.053229
-0.0494471
-0.0456635
-0.0419019
-0.0388651
-0.0363415
-0.0350502
-0.0743459
-0.0657659
-0.0606188
-0.0523045
-0.0449011
-0.0365573
-0.0294206
-0.0224681
-0.0178711
-0.0148903
-0.0924053
-0.080032
-0.0723174
-0.0602172
-0.0480849
-0.0348841
-0.0204154
-0.00730524
0.00532846
0.013568
-0.126921
-0.106897
-0.0939493
-0.0722399
-0.0501284
-0.0224906
0.00531525
0.0382171
0.0620044
0.0899115
-0.178532
-0.153331
-0.13993
-0.115198
-0.0901028
-0.0543898
-0.00804877
0.0552118
0.130795
0.220605
-0.44401
-0.452169
-0.465408
-0.482081
-0.502921
-0.518761
-0.531547
-0.534457
-0.54116
-0.527826
-0.408739
-0.435426
-0.449106
-0.473835
-0.493749
-0.512952
-0.523687
-0.52466
-0.521384
-0.515825
-0.22683
-0.245512
-0.250928
-0.265819
-0.272779
-0.282131
-0.285244
-0.287173
-0.285371
-0.285361
-0.212488
-0.227821
-0.232739
-0.242979
-0.248442
-0.253434
-0.254666
-0.253312
-0.250413
-0.248141
-0.0429906
-0.0452314
-0.0442962
-0.043914
-0.0416484
-0.0392724
-0.0363555
-0.033936
-0.0322722
-0.0315241
-0.102689
-0.105683
-0.106344
-0.107576
-0.107831
-0.107767
-0.10717
-0.106313
-0.105452
-0.104923
0.0108675
0.0113145
0.0123355
0.0135863
0.0152666
0.0170898
0.0189706
0.0205944
0.0217547
0.0223413
-0.0509336
-0.0507897
-0.0504539
-0.0500543
-0.0495039
-0.0488763
-0.0482051
-0.0475856
-0.047107
-0.0468468
0.0161753
0.0170485
0.0177592
0.0185986
0.0195259
0.02049
0.0214476
0.0223075
0.0229682
0.0233309
-0.0225665
-0.0220204
-0.021723
-0.0213689
-0.0210401
-0.0207355
-0.0204668
-0.0202575
-0.0201209
-0.0200564
)
;

boundaryField
{
    inlet
    {
        type            zeroGradient;
    }
    outlet
    {
        type            fixedValue;
        value           uniform 0;
    }
    polygon
    {
        type            zeroGradient;
    }
    top
    {
        type            symmetryPlane;
    }
    bottom
    {
        type            symmetryPlane;
    }
    outside
    {
        type            slip;
    }
}


// ************************************************************************* //
