/*--------------------------------*- C++ -*----------------------------------*\
  =========                 |
  \\      /  F ield         | OpenFOAM: The Open Source CFD Toolbox
   \\    /   O peration     | Website:  https://openfoam.org
    \\  /    A nd           | Version:  10
     \\/     M anipulation  |
\*---------------------------------------------------------------------------*/
FoamFile
{
    format      ascii;
    class       surfaceScalarField;
    location    "15";
    object      phi;
}
// * * * * * * * * * * * * * * * * * * * * * * * * * * * * * * * * * * * * * //

dimensions      [0 3 -1 0 0 0 0];

internalField   nonuniform List<scalar> 
1520
(
-0.00146069
0.0190009
-0.0182907
-0.00216375
0.0189149
-0.0182119
-0.00286789
0.0187963
-0.0180921
-0.00358662
0.0187218
-0.018003
-0.00433496
0.0186628
-0.0179145
-0.00512109
0.0187049
-0.0179188
-0.00599922
0.0186693
-0.0177912
-0.00682784
0.0192218
-0.0183932
-0.00662698
0.0172846
-0.0174854
0.011649
-0.0182759
-0.00148018
0.0197133
-0.00218819
0.0196229
-0.00289965
0.0195077
-0.00362604
0.0194481
-0.00437993
0.0194167
-0.00517746
0.0195025
-0.00601148
0.0195033
-0.00640903
0.0196193
-0.00513922
0.0160148
0.00650973
-0.00149897
0.0204281
-0.00221113
0.0203351
-0.00292963
0.0202262
-0.00366546
0.020184
-0.00442947
0.0201807
-0.00521851
0.0202915
-0.00592937
0.0202142
-0.00594502
0.019635
-0.00378874
0.0138585
0.00272098
-0.00151644
0.0211448
-0.00223234
0.021051
-0.00295621
0.0209501
-0.00369824
0.020926
-0.004464
0.0209465
-0.00522241
0.0210499
-0.00576374
0.0207555
-0.00532973
0.019201
-0.00256345
0.0110922
0.000157532
-0.00153332
0.0218631
-0.00225253
0.0217702
-0.00298132
0.0216789
-0.00372921
0.0216739
-0.0044909
0.0217082
-0.00519055
0.0217495
-0.0055274
0.0210924
-0.00463095
0.0183045
-0.00161249
0.00807374
-0.00145495
-0.00154817
0.022583
-0.00227078
0.0224928
-0.00300311
0.0224112
-0.00374975
0.0224205
-0.00448913
0.0224475
-0.00509724
0.0223576
-0.00521553
0.0212107
-0.00384687
0.0169358
-0.000984952
0.00521182
-0.00243991
-0.00156384
0.0233038
-0.00228864
0.0232176
-0.00302371
0.0231463
-0.00376993
0.0231668
-0.00448793
0.0231655
-0.00498956
0.0228593
-0.00485607
0.0210772
-0.00306747
0.0151472
-0.000590905
0.00273525
-0.00303081
-0.00157476
0.024026
-0.00230299
0.0239458
-0.00303991
0.0238832
-0.00377419
0.023901
-0.004439
0.0238304
-0.00479723
0.0232175
-0.00441467
0.0206946
-0.00243105
0.0131636
-0.00039074
0.000694943
-0.00342155
-0.0015917
0.0247481
-0.00231977
0.0246739
-0.00305508
0.0246185
-0.00378026
0.0246262
-0.00441003
0.0244601
-0.00465519
0.0234627
-0.00401707
0.0200565
-0.00200678
0.0111533
-0.00032369
-0.000988146
-0.00374524
-0.00159258
0.0254698
-0.0023299
0.0254112
-0.00306672
0.0253553
-0.00377102
0.0253305
-0.00430201
0.0249911
-0.00434582
0.0235065
-0.00345433
0.019165
-0.00158065
0.00927966
-0.000282248
-0.00228655
-0.00402749
-0.000148623
0.0226032
-0.0230547
0.000270853
0.0222681
-0.0226876
0.00065946
0.0220037
-0.0223923
0.000990647
0.0214744
-0.0218056
0.00123679
0.0209504
-0.0211965
0.00135444
0.0199293
-0.020047
0.00126238
0.0187436
-0.0186515
0.000961912
0.0164623
-0.0161618
0.000452404
0.0141371
-0.0136276
0.00790647
-0.00745407
-0.000160802
0.0221458
0.000261267
0.0218461
0.000656247
0.0216087
0.000990033
0.0211406
0.00124011
0.0207003
0.0013574
0.019812
0.0012852
0.0188158
0.000969538
0.016778
0.000518798
0.0145878
0.00842527
-0.000172464
0.021684
0.000255259
0.0214183
0.000657208
0.0212067
0.00100026
0.0207976
0.00126541
0.0204352
0.00139946
0.019678
0.00134822
0.018867
0.00101511
0.0171111
0.000517482
0.0150854
0.00894275
-0.000183143
0.0212174
0.000251167
0.020984
0.000661632
0.0207963
0.00101613
0.0204431
0.00129931
0.020152
0.00145062
0.0195267
0.00142732
0.0188903
0.00108777
0.0174507
0.00057101
0.0156022
0.00951376
-0.000193137
0.0207455
0.000248057
0.0205428
0.000667802
0.0203765
0.00103468
0.0200762
0.00133767
0.019849
0.00151162
0.0193527
0.0015281
0.0188738
0.0012146
0.0177642
0.000677096
0.0161397
0.0101909
-0.000201811
0.0202679
0.000247146
0.0200939
0.000678044
0.0199456
0.00105958
0.0196947
0.00138843
0.0195201
0.00159394
0.0191472
0.00166884
0.0187989
0.00137041
0.0180626
0.000856798
0.0166533
0.0110477
-0.000210329
0.0197841
0.000246498
0.019637
0.000688581
0.0195035
0.00108559
0.0192977
0.00143923
0.0191665
0.00168158
0.0189048
0.00181126
0.0186693
0.0015943
0.0182795
0.00107869
0.0171689
0.0121263
-0.000216402
0.0192933
0.000249896
0.0191707
0.000706648
0.0190468
0.0011218
0.0188825
0.00150981
0.0187785
0.00179572
0.0186189
0.00200942
0.0184556
0.00184554
0.0184434
0.00149608
0.0175184
0.0136224
-0.000224844
0.0187961
0.00024866
0.0186972
0.000715924
0.0185795
0.00114495
0.0184535
0.00155372
0.0183697
0.00187433
0.0182983
0.00215572
0.0181742
0.00214548
0.0184537
0.00188976
0.0177741
0.0155122
-0.00022647
0.000258919
0.000746322
0.0011968
0.00165206
0.00203159
0.00241457
0.00247507
0.00276374
-0.00022647
-0.0187961
0.0182907
0.000258919
-0.0186972
0.0182119
0.000746322
-0.0185795
0.0180921
0.0011968
-0.0184535
0.018003
0.00165206
-0.0183697
0.0179145
0.00203159
-0.0182983
0.0179188
0.00241457
-0.0181742
0.0177912
0.00247507
-0.0184537
0.0183932
0.00276374
-0.0177741
0.0174854
-0.0155122
0.0182759
-0.000224844
-0.0192933
0.00024866
-0.0191707
0.000715924
-0.0190468
0.00114495
-0.0188825
0.00155372
-0.0187785
0.00187433
-0.0186189
0.00215572
-0.0184556
0.00214548
-0.0184434
0.00188976
-0.0175184
-0.0136224
-0.000216402
-0.0197841
0.000249896
-0.019637
0.000706648
-0.0195035
0.0011218
-0.0192977
0.00150981
-0.0191665
0.00179572
-0.0189048
0.00200942
-0.0186693
0.00184554
-0.0182795
0.00149608
-0.0171689
-0.0121263
-0.000210329
-0.0202679
0.000246498
-0.0200939
0.000688581
-0.0199456
0.00108559
-0.0196947
0.00143923
-0.0195201
0.00168158
-0.0191472
0.00181126
-0.0187989
0.0015943
-0.0180626
0.00107869
-0.0166533
-0.0110477
-0.000201811
-0.0207455
0.000247146
-0.0205428
0.000678044
-0.0203765
0.00105958
-0.0200762
0.00138843
-0.019849
0.00159394
-0.0193527
0.00166884
-0.0188738
0.00137041
-0.0177642
0.000856798
-0.0161397
-0.0101909
-0.000193137
-0.0212174
0.000248057
-0.020984
0.000667802
-0.0207963
0.00103468
-0.0204431
0.00133767
-0.020152
0.00151162
-0.0195267
0.0015281
-0.0188903
0.0012146
-0.0174507
0.000677096
-0.0156022
-0.00951376
-0.000183143
-0.021684
0.000251167
-0.0214183
0.000661632
-0.0212067
0.00101613
-0.0207976
0.00129931
-0.0204352
0.00145062
-0.019678
0.00142732
-0.018867
0.00108777
-0.0171111
0.00057101
-0.0150854
-0.00894275
-0.000172464
-0.0221458
0.000255259
-0.0218461
0.000657208
-0.0216087
0.00100026
-0.0211406
0.00126541
-0.0207003
0.00139946
-0.019812
0.00134822
-0.0188158
0.00101511
-0.016778
0.000517482
-0.0145878
-0.00842527
-0.000160802
-0.0226032
0.000261267
-0.0222681
0.000656247
-0.0220037
0.000990033
-0.0214744
0.00124011
-0.0209504
0.0013574
-0.0199293
0.0012852
-0.0187436
0.000969538
-0.0164623
0.000518798
-0.0141371
-0.00790647
-0.000148623
-0.0230547
0.000270853
-0.0226876
0.00065946
-0.0223923
0.000990647
-0.0218056
0.00123679
-0.0211965
0.00135444
-0.020047
0.00126238
-0.0186515
0.000961912
-0.0161618
0.000452404
-0.0136276
-0.00745407
-0.00159258
-0.0247481
0.0254698
-0.0023299
-0.0246739
0.0254112
-0.00306672
-0.0246185
0.0253553
-0.00377102
-0.0246262
0.0253305
-0.00430201
-0.0244601
0.0249911
-0.00434582
-0.0234627
0.0235065
-0.00345433
-0.0200565
0.019165
-0.00158065
-0.0111533
0.00927966
-0.000282248
0.000988146
-0.00228655
0.00374524
-0.00402749
-0.0015917
-0.024026
-0.00231977
-0.0239458
-0.00305508
-0.0238832
-0.00378026
-0.023901
-0.00441003
-0.0238304
-0.00465519
-0.0232175
-0.00401707
-0.0206946
-0.00200678
-0.0131636
-0.00032369
-0.000694943
0.00342155
-0.00157476
-0.0233038
-0.00230299
-0.0232176
-0.00303991
-0.0231463
-0.00377419
-0.0231668
-0.004439
-0.0231655
-0.00479723
-0.0228593
-0.00441467
-0.0210772
-0.00243105
-0.0151472
-0.00039074
-0.00273525
0.00303081
-0.00156384
-0.022583
-0.00228864
-0.0224928
-0.00302371
-0.0224112
-0.00376993
-0.0224205
-0.00448793
-0.0224475
-0.00498956
-0.0223576
-0.00485607
-0.0212107
-0.00306747
-0.0169358
-0.000590905
-0.00521182
0.00243991
-0.00154817
-0.0218631
-0.00227078
-0.0217702
-0.00300311
-0.0216789
-0.00374975
-0.0216739
-0.00448913
-0.0217082
-0.00509724
-0.0217495
-0.00521553
-0.0210924
-0.00384687
-0.0183045
-0.000984952
-0.00807374
0.00145495
-0.00153332
-0.0211448
-0.00225253
-0.021051
-0.00298132
-0.0209501
-0.00372921
-0.020926
-0.0044909
-0.0209465
-0.00519055
-0.0210499
-0.0055274
-0.0207555
-0.00463095
-0.019201
-0.00161249
-0.0110922
-0.000157532
-0.00151644
-0.0204281
-0.00223234
-0.0203351
-0.00295621
-0.0202262
-0.00369824
-0.020184
-0.004464
-0.0201807
-0.00522241
-0.0202915
-0.00576374
-0.0202142
-0.00532973
-0.019635
-0.00256345
-0.0138585
-0.00272098
-0.00149897
-0.0197133
-0.00221113
-0.0196229
-0.00292963
-0.0195077
-0.00366546
-0.0194481
-0.00442947
-0.0194167
-0.00521851
-0.0195025
-0.00592937
-0.0195033
-0.00594502
-0.0196193
-0.00378874
-0.0160148
-0.00650973
-0.00148018
-0.0190009
-0.00218819
-0.0189149
-0.00289965
-0.0187963
-0.00362604
-0.0187218
-0.00437993
-0.0186628
-0.00517746
-0.0187049
-0.00601148
-0.0186693
-0.00640903
-0.0192218
-0.00513922
-0.0172846
-0.011649
-0.00146069
-0.00216375
-0.00286789
-0.00358662
-0.00433496
-0.00512109
-0.00599922
-0.00682784
-0.00662698
-0.00686474
-0.021744
-0.00816218
-0.0213902
-0.00947783
-0.0210766
-0.0106432
-0.0206402
-0.011686
-0.0201537
-0.0121856
-0.0195474
-0.0120871
-0.01875
-0.0104821
-0.0177668
-0.00752978
-0.0165799
-0.0149839
5.76721e-13
-0.00359323
-0.0210407
-0.00421073
-0.0207727
-0.00476108
-0.0205263
-0.00520794
-0.0201934
-0.00552441
-0.0198373
-0.00564186
-0.01943
-0.00538521
-0.0190067
-0.00458531
-0.0185667
-0.00297686
-0.0181883
-0.0179607
-1.21202e-13
-0.0027296
-0.0205582
-0.00309695
-0.0204053
-0.00335177
-0.0202714
-0.00344373
-0.0201014
-0.00336904
-0.019912
-0.00309287
-0.0197061
-0.00261188
-0.0194877
-0.00189985
-0.0192787
-0.000976501
-0.0191117
-0.0189372
2.97869e-12
-0.00106033
-0.0203085
-0.00126128
-0.0202044
-0.00141387
-0.0201189
-0.00151142
-0.0200038
-0.00152889
-0.0198945
-0.00145565
-0.0197794
-0.00126766
-0.0196757
-0.000962726
-0.0195837
-0.000564161
-0.0195102
-0.0195014
4.21625e-13
-0.000954574
-0.0201673
-0.00103457
-0.0201244
-0.0010713
-0.0200821
-0.00104812
-0.020027
-0.000974433
-0.0199682
-0.000846221
-0.0199076
-0.000672856
-0.019849
-0.000459988
-0.0197965
-0.000211263
-0.019759
-0.0197126
2.56618e-12
-0.000291682
-0.020079
-0.000370874
-0.0200452
-0.000432096
-0.0200209
-0.000470908
-0.0199882
-0.000478324
-0.0199608
-0.000452086
-0.0199338
-0.000389612
-0.0199115
-0.000292603
-0.0198936
-0.000172024
-0.0198795
-0.0198847
1.3019e-13
-0.000397203
-0.0200442
-0.000405063
-0.0200373
-0.000398625
-0.0200273
-0.000370501
-0.0200163
-0.000328223
-0.020003
-0.000271593
-0.0199905
-0.00020476
-0.0199783
-0.000131486
-0.0199668
-5.45592e-05
-0.0199565
-0.0199392
2.87581e-12
3.94151e-06
-0.0200146
-2.76607e-05
-0.0200057
-5.24173e-05
-0.0200026
-7.25123e-05
-0.0199962
-8.29094e-05
-0.0199926
-8.51081e-05
-0.0199883
-7.8734e-05
-0.0199847
-6.42924e-05
-0.0199813
-4.21325e-05
-0.0199786
-0.0199814
6.24652e-14
-9.81346e-05
-0.0200139
-8.79488e-05
-0.0200159
-7.57741e-05
-0.0200148
-5.86917e-05
-0.0200133
-4.21289e-05
-0.0200092
-2.5937e-05
-0.0200044
-1.15986e-05
-0.019999
3.0496e-08
-0.0199929
6.75129e-06
-0.0199854
-0.0199746
4.51062e-13
9.52677e-06
-6.37459e-06
-2.11283e-05
-3.44499e-05
-4.36477e-05
-4.80945e-05
-4.71421e-05
-4.00388e-05
-2.53937e-05
1.39644e-12
0.00527073
-0.0182089
0.0050931
-0.0181696
0.00488147
-0.0180859
0.00462041
-0.0179396
0.00428806
-0.0176953
0.00384543
-0.0172846
0.00323115
-0.0166353
0.00237969
-0.0157622
0.0012747
-0.0148655
-0.0142843
1.12747e-11
0.00677478
-0.0180266
0.00656584
-0.0179607
0.00631163
-0.0178317
0.00598737
-0.0176153
0.00555936
-0.0172673
0.00497429
-0.0166996
0.00415914
-0.0158202
0.00304413
-0.0146471
0.0016221
-0.0134435
-0.0126622
6.61449e-12
0.0066417
-0.0180409
0.00661869
-0.0179377
0.00654276
-0.0177558
0.00637382
-0.0174464
0.00605936
-0.0169528
0.00552343
-0.0161636
0.00467792
-0.0149747
0.00345134
-0.0134206
0.00184763
-0.0118398
-0.0108146
1.67032e-11
0.00776713
-0.0181137
0.00779762
-0.0179682
0.00776278
-0.0177209
0.00760627
-0.0172899
0.00725806
-0.0166046
0.00661816
-0.0155237
0.00558388
-0.0139404
0.00409301
-0.0119297
0.00217838
-0.00992513
-0.00863619
2.93643e-11
0.00864425
-0.0187818
0.00922857
-0.0185525
0.00969818
-0.0181905
0.00994729
-0.017539
0.00985093
-0.0165082
0.00923294
-0.0149057
0.00792465
-0.0126321
0.00585581
-0.00986084
0.00312602
-0.00719535
-0.00551017
3.52462e-11
0.00725906
-0.0195985
0.00802403
-0.0193174
0.00867986
-0.0188464
0.00910417
-0.0179633
0.00914535
-0.0165494
0.00860445
-0.0143648
0.00731371
-0.0113413
0.00528889
-0.00783603
0.00276293
-0.00466939
-0.00274724
-1.23781e-12
0.00803745
-0.0217488
0.0101979
-0.0214779
0.0121914
-0.0208399
0.0138662
-0.0196381
0.0148844
-0.0175676
0.01483
-0.0143104
0.0132148
-0.00972611
0.0099235
-0.00454474
0.00530251
-4.84018e-05
0.00255528
-1.50731e-10
-0.00296151
-0.0236067
-0.000962588
-0.0234768
0.00100963
-0.0228121
0.00295996
-0.0215884
0.0045983
-0.0192059
0.00560649
-0.0153186
0.00544306
-0.00956268
0.00413019
-0.00323187
0.00244004
0.00164175
0.00499532
-2.34324e-10
-0.00938535
-0.0259757
-0.00691955
-0.0259426
-0.00433649
-0.0253952
-0.00155588
-0.024369
0.00132341
-0.0220852
0.00398901
-0.0179842
0.00552359
-0.0110973
0.0045048
-0.00221309
0.00152668
0.00461987
0.006522
2.76203e-11
-0.0287805
-0.0293119
-0.0293518
-0.0283903
-0.0254844
-0.0199622
-0.0118944
-0.00482783
-0.00249451
1.53164e-10
9.52677e-06
0.0200139
-6.3746e-06
0.0200159
-2.11283e-05
0.0200148
-3.44499e-05
0.0200133
-4.36477e-05
0.0200092
-4.80945e-05
0.0200044
-4.71421e-05
0.019999
-4.00388e-05
0.0199929
-2.53937e-05
0.0199854
0.0199746
-9.81346e-05
0.0200146
-8.79488e-05
0.0200057
-7.57741e-05
0.0200026
-5.86917e-05
0.0199962
-4.21289e-05
0.0199926
-2.5937e-05
0.0199883
-1.15986e-05
0.0199847
3.04925e-08
0.0199813
6.75129e-06
0.0199786
0.0199814
3.94151e-06
0.0200442
-2.76607e-05
0.0200373
-5.24173e-05
0.0200273
-7.25123e-05
0.0200163
-8.29094e-05
0.020003
-8.51081e-05
0.0199905
-7.8734e-05
0.0199783
-6.42924e-05
0.0199668
-4.21325e-05
0.0199565
0.0199392
-0.000397203
0.020079
-0.000405063
0.0200452
-0.000398625
0.0200209
-0.000370501
0.0199882
-0.000328223
0.0199608
-0.000271593
0.0199338
-0.00020476
0.0199115
-0.000131486
0.0198936
-5.45592e-05
0.0198795
0.0198847
-0.000291682
0.0201673
-0.000370874
0.0201244
-0.000432096
0.0200821
-0.000470908
0.020027
-0.000478324
0.0199682
-0.000452086
0.0199076
-0.000389612
0.019849
-0.000292603
0.0197965
-0.000172024
0.019759
0.0197126
-0.000954574
0.0203085
-0.00103457
0.0202044
-0.0010713
0.0201189
-0.00104812
0.0200038
-0.000974433
0.0198945
-0.000846221
0.0197794
-0.000672856
0.0196757
-0.000459988
0.0195837
-0.000211263
0.0195102
0.0195014
-0.00106033
0.0205582
-0.00126128
0.0204053
-0.00141387
0.0202714
-0.00151142
0.0201014
-0.00152889
0.019912
-0.00145565
0.0197061
-0.00126766
0.0194877
-0.000962726
0.0192787
-0.000564161
0.0191117
0.0189372
-0.0027296
0.0210407
-0.00309695
0.0207727
-0.00335177
0.0205263
-0.00344373
0.0201934
-0.00336904
0.0198373
-0.00309287
0.01943
-0.00261188
0.0190067
-0.00189985
0.0185667
-0.000976501
0.0181883
0.0179607
-0.00359323
0.021744
-0.00421073
0.0213902
-0.00476108
0.0210766
-0.00520794
0.0206402
-0.00552441
0.0201537
-0.00564186
0.0195474
-0.00538521
0.01875
-0.00458531
0.0177668
-0.00297686
0.0165799
0.0149839
-0.00686474
-0.00816218
-0.00947783
-0.0106432
-0.011686
-0.0121856
-0.0120871
-0.0104821
-0.00752978
-0.0287805
0.0259757
-0.0293119
0.0259426
-0.0293518
0.0253952
-0.0283903
0.024369
-0.0254844
0.0220852
-0.0199622
0.0179842
-0.0118944
0.0110973
-0.00482783
0.00221309
-0.00249451
-0.00461987
-0.006522
-0.00938535
0.0236067
-0.00691955
0.0234768
-0.00433649
0.0228122
-0.00155587
0.0215884
0.00132341
0.0192059
0.00398901
0.0153186
0.00552359
0.00956268
0.0045048
0.00323187
0.00152668
-0.00164175
-0.00499532
-0.00296151
0.0217488
-0.000962587
0.0214779
0.00100963
0.0208399
0.00295996
0.0196381
0.00459831
0.0175676
0.00560649
0.0143104
0.00544306
0.00972611
0.00413019
0.00454474
0.00244004
4.84018e-05
-0.00255528
0.00803745
0.0195985
0.0101979
0.0193174
0.0121914
0.0188464
0.0138662
0.0179633
0.0148844
0.0165494
0.01483
0.0143648
0.0132148
0.0113413
0.0099235
0.00783603
0.00530251
0.00466939
0.00274724
0.00725906
0.0187818
0.00802403
0.0185525
0.00867986
0.0181905
0.00910417
0.017539
0.00914535
0.0165082
0.00860445
0.0149057
0.00731371
0.0126321
0.00528889
0.00986084
0.00276293
0.00719535
0.00551017
0.00864425
0.0181137
0.00922857
0.0179682
0.00969818
0.0177209
0.00994729
0.0172899
0.00985093
0.0166046
0.00923294
0.0155237
0.00792465
0.0139404
0.00585581
0.0119297
0.00312602
0.00992513
0.00863619
0.00776713
0.0180409
0.00779762
0.0179377
0.00776278
0.0177558
0.00760627
0.0174464
0.00725806
0.0169528
0.00661816
0.0161636
0.00558388
0.0149747
0.00409301
0.0134206
0.00217838
0.0118398
0.0108146
0.0066417
0.0180266
0.00661869
0.0179607
0.00654276
0.0178317
0.00637382
0.0176153
0.00605936
0.0172673
0.00552343
0.0166996
0.00467792
0.0158202
0.00345134
0.0146471
0.00184763
0.0134435
0.0126622
0.00677478
0.0182089
0.00656584
0.0181696
0.00631163
0.0180859
0.00598737
0.0179396
0.00555936
0.0176953
0.00497429
0.0172846
0.00415914
0.0166353
0.00304413
0.0157622
0.0016221
0.0148655
0.0142843
0.00527073
0.0050931
0.00488147
0.00462041
0.00428806
0.00384543
0.00323115
0.00237969
0.0012747
)
;

boundaryField
{
    inlet
    {
        type            calculated;
        value           uniform -0.02;
    }
    outlet
    {
        type            calculated;
        value           nonuniform List<scalar> 
20
(
0.0183622
0.0183472
0.0182975
0.0182006
0.0180276
0.0177273
0.0172496
0.0166136
0.0159705
0.015559
0.0183622
0.0183472
0.0182975
0.0182006
0.0180276
0.0177273
0.0172496
0.0166136
0.0159705
0.015559
)
;
    }
    polygon
    {
        type            calculated;
        value           uniform 0;
    }
    top
    {
        type            symmetryPlane;
        value           uniform 0;
    }
    bottom
    {
        type            symmetryPlane;
        value           uniform 0;
    }
    outside
    {
        type            calculated;
        value           nonuniform List<scalar> 
80
(
0.000750491
0.000767708
0.000784222
0.000799694
0.000815004
0.000828312
0.000843034
0.000852571
0.00086957
0.00087095
0.000600143
0.000618182
0.000634229
0.000649774
0.000664989
0.00067948
0.000694115
0.000707169
0.000722029
0.000731954
0.000731954
0.000722029
0.000707169
0.000694115
0.00067948
0.000664989
0.000649773
0.000634229
0.000618182
0.000600143
0.00087095
0.00086957
0.000852571
0.000843034
0.000828312
0.000815004
0.000799694
0.000784222
0.000767708
0.000750491
0.00555405
0.00288997
0.0022471
0.000810649
0.000813325
0.000203352
0.000362476
-3.36076e-05
9.74296e-05
-2.33998e-05
-0.00542399
-0.00695716
-0.00662735
-0.00769429
-0.00797615
-0.00644244
-0.00588708
0.0048194
0.0117543
0.0282746
-2.33998e-05
9.74296e-05
-3.36076e-05
0.000362476
0.000203352
0.000813325
0.000810649
0.0022471
0.00288997
0.00555405
0.0282746
0.0117543
0.0048194
-0.00588708
-0.00644244
-0.00797615
-0.00769429
-0.00662735
-0.00695716
-0.00542399
)
;
    }
}


// ************************************************************************* //
