/*--------------------------------*- C++ -*----------------------------------*\
  =========                 |
  \\      /  F ield         | OpenFOAM: The Open Source CFD Toolbox
   \\    /   O peration     | Website:  https://openfoam.org
    \\  /    A nd           | Version:  10
     \\/     M anipulation  |
\*---------------------------------------------------------------------------*/
FoamFile
{
    format      ascii;
    class       volVectorField;
    location    "15";
    object      U;
}
// * * * * * * * * * * * * * * * * * * * * * * * * * * * * * * * * * * * * * //

dimensions      [0 1 -1 0 0 0 0];

internalField   nonuniform List<vector> 
800
(
(1.22275 0.15143 -5.40942e-17)
(1.21749 0.186515 9.94249e-18)
(1.20992 0.199385 2.22761e-18)
(1.20449 0.226109 -2.32364e-17)
(1.19997 0.257292 4.00412e-17)
(1.20003 0.278068 8.41119e-18)
(1.19405 0.35018 2.54378e-17)
(1.2342 0.366177 -2.59199e-17)
(1.12276 0.432096 8.06825e-18)
(1.09541 0.275732 5.91702e-17)
(1.22943 0.154832 -7.80182e-17)
(1.22407 0.189605 4.90363e-18)
(1.21688 0.203147 -5.07357e-17)
(1.21195 0.230778 -1.83381e-17)
(1.20878 0.261982 3.17708e-17)
(1.20915 0.286919 -6.6348e-18)
(1.20553 0.351542 -4.224e-17)
(1.23238 0.366467 -4.55856e-18)
(1.05953 0.406777 7.05294e-17)
(0.479165 0.210212 -4.39227e-17)
(1.23559 0.158111 -6.60628e-17)
(1.23002 0.192585 6.39733e-18)
(1.22335 0.206674 -7.36178e-18)
(1.21945 0.235083 5.54643e-18)
(1.21812 0.266143 2.68984e-17)
(1.22182 0.293348 -6.39451e-18)
(1.21738 0.347591 1.03049e-17)
(1.20554 0.349177 2.48295e-18)
(0.931692 0.346395 4.75347e-17)
(0.28471 0.0926446 -4.02604e-17)
(1.24136 0.161173 -4.6578e-17)
(1.23576 0.195371 4.8516e-18)
(1.22969 0.209812 -4.15632e-19)
(1.22686 0.238645 5.12885e-17)
(1.22642 0.268741 1.94285e-17)
(1.2309 0.296034 -1.75434e-18)
(1.2182 0.338565 6.37659e-18)
(1.15804 0.328651 1.19393e-17)
(0.747267 0.291458 3.50888e-17)
(0.0583402 0.000693866 -1.70248e-17)
(1.24695 0.164189 -5.36048e-17)
(1.24142 0.198056 5.91539e-18)
(1.23586 0.212713 -2.23081e-18)
(1.23416 0.241965 2.54331e-17)
(1.23492 0.271033 1.06031e-17)
(1.2382 0.29649 -9.3712e-18)
(1.20898 0.324804 1.52425e-17)
(1.08803 0.304677 1.09247e-17)
(0.548677 0.228363 2.16513e-17)
(-0.0428543 -0.0260454 -6.50441e-18)
(1.25224 0.166795 -7.59958e-18)
(1.24704 0.200392 5.48696e-18)
(1.24221 0.215145 7.9119e-18)
(1.24147 0.244254 5.93171e-17)
(1.24168 0.270942 8.71838e-18)
(1.23775 0.292014 1.24262e-17)
(1.18489 0.306929 1.11503e-18)
(0.993069 0.277703 1.42665e-17)
(0.365129 0.167315 8.8795e-18)
(-0.121547 0.0169933 -4.4953e-18)
(1.25753 0.169677 -9.11458e-18)
(1.25249 0.202813 5.85526e-18)
(1.248 0.217478 1.17319e-18)
(1.2478 0.246525 4.36476e-17)
(1.2478 0.271429 -1.61778e-18)
(1.23647 0.287223 -3.27369e-17)
(1.15679 0.288168 2.48417e-17)
(0.879391 0.245254 6.26643e-18)
(0.211014 0.11664 -6.09799e-18)
(-0.155103 0.0757761 -2.90284e-18)
(1.26221 0.171518 9.42186e-19)
(1.25779 0.204453 3.75464e-19)
(1.2543 0.219121 2.15717e-17)
(1.25469 0.247321 4.9416e-17)
(1.25124 0.267826 -4.32863e-18)
(1.22227 0.274223 -1.10344e-17)
(1.10541 0.264683 -1.35892e-17)
(0.746699 0.211725 1.51883e-17)
(0.0863167 0.108485 -5.42496e-17)
(-0.174743 0.126746 -8.84616e-18)
(1.26737 0.174843 -1.77387e-17)
(1.26299 0.206995 1.37886e-17)
(1.25919 0.221141 -1.69819e-17)
(1.25851 0.248639 6.62286e-18)
(1.25184 0.266908 -9.10955e-18)
(1.21075 0.267167 -4.04453e-17)
(1.06318 0.2478 6.71395e-17)
(0.633333 0.179636 -1.1344e-17)
(-0.0105871 0.143618 -1.92967e-16)
(-0.188802 0.160438 -7.75117e-18)
(1.27091 0.174843 -4.6942e-17)
(1.26772 0.207156 -1.93091e-17)
(1.2656 0.221621 -1.12441e-17)
(1.26565 0.247719 3.91824e-18)
(1.25216 0.258959 -1.25107e-17)
(1.18226 0.243891 -3.31595e-17)
(0.97625 0.21158 -2.79568e-19)
(0.492228 0.145745 -2.23086e-17)
(-0.089777 0.18025 -2.26218e-16)
(-0.186204 0.174651 -1.2774e-17)
(1.15375 0.122037 -6.39491e-17)
(1.1358 0.164315 9.41919e-19)
(1.12045 0.179437 -1.94659e-18)
(1.09151 0.215226 -4.83361e-17)
(1.06101 0.245149 5.19435e-18)
(1.00484 0.284316 -1.80194e-17)
(0.93603 0.332634 2.87291e-18)
(0.81201 0.373709 4.90895e-18)
(0.681066 0.440943 1.43571e-17)
(0.363646 0.306137 1.62042e-18)
(1.16127 0.125285 -5.14866e-17)
(1.1444 0.167636 -1.23196e-18)
(1.13033 0.183166 6.39958e-19)
(1.10338 0.219612 -3.57453e-17)
(1.07654 0.251693 2.98326e-18)
(1.02521 0.293115 2.54622e-18)
(0.96585 0.348839 -2.8712e-18)
(0.854132 0.393612 3.37078e-18)
(0.737896 0.4818 1.12019e-17)
(0.424908 0.339762 4.39641e-18)
(1.16844 0.128475 -4.85961e-17)
(1.15313 0.17064 4.15671e-18)
(1.14051 0.186366 -1.0014e-17)
(1.11677 0.222956 -3.91048e-17)
(1.09454 0.256581 -8.42969e-20)
(1.05067 0.299074 -7.19341e-18)
(1.00053 0.361711 1.09618e-17)
(0.900299 0.410831 3.57653e-18)
(0.781421 0.518729 9.22936e-18)
(0.454517 0.369312 7.23019e-19)
(1.17512 0.131554 -2.45848e-17)
(1.16141 0.173296 -1.23889e-17)
(1.14999 0.189 1.58672e-17)
(1.12937 0.225227 -1.07064e-17)
(1.11094 0.259899 1.47021e-19)
(1.07439 0.302312 1.42251e-17)
(1.03111 0.371321 -2.29987e-17)
(0.946655 0.422644 1.30149e-18)
(0.830456 0.553913 5.1279e-18)
(0.500968 0.396462 1.17846e-18)
(1.18167 0.134566 5.21655e-18)
(1.16947 0.175707 2.73306e-17)
(1.15908 0.191256 1.09013e-17)
(1.14128 0.226802 -7.18078e-18)
(1.12632 0.261993 -8.61538e-22)
(1.09681 0.303649 1.16045e-17)
(1.0617 0.37745 1.5151e-17)
(0.994881 0.430164 -2.14338e-19)
(0.885238 0.577274 2.98965e-17)
(0.543473 0.415499 2.15751e-18)
(1.18834 0.137433 5.81389e-18)
(1.17757 0.177752 -3.1838e-18)
(1.16814 0.192932 1.12829e-17)
(1.15311 0.22723 -7.37739e-18)
(1.14138 0.262416 -4.09816e-19)
(1.11932 0.301392 9.50174e-18)
(1.0924 0.378887 -1.33526e-17)
(1.04607 0.428313 1.48088e-18)
(0.944324 0.605073 8.18581e-19)
(0.626241 0.439109 3.3268e-18)
(1.19514 0.140327 2.18999e-19)
(1.18572 0.179733 -3.55414e-18)
(1.1771 0.194522 3.42846e-18)
(1.16465 0.227531 -4.29284e-18)
(1.15599 0.262292 -9.99387e-19)
(1.14 0.298611 9.20706e-18)
(1.1226 0.377879 -1.20118e-17)
(1.09332 0.425584 -6.73563e-18)
(1.0056 0.603977 -2.9831e-18)
(0.661678 0.434906 -5.02143e-18)
(1.20198 0.1429 1.00558e-17)
(1.19396 0.18109 -5.31756e-20)
(1.18599 0.195102 1.60069e-17)
(1.17615 0.225825 -5.39599e-18)
(1.16949 0.259806 -9.8604e-19)
(1.16069 0.289808 4.67258e-18)
(1.14775 0.370034 -7.46885e-18)
(1.14337 0.405587 7.59024e-18)
(1.07968 0.624791 6.22754e-18)
(0.839442 0.464957 1.96598e-17)
(1.20888 0.145833 -1.65192e-17)
(1.20196 0.183022 -7.84962e-18)
(1.19433 0.196683 -1.65457e-17)
(1.18644 0.22621 5.24971e-19)
(1.18139 0.259322 -1.17076e-18)
(1.1766 0.286893 7.20427e-18)
(1.16997 0.365454 -7.85974e-18)
(1.18294 0.39552 -2.95805e-17)
(1.12308 0.57764 -1.33308e-17)
(0.853913 0.406973 -4.59292e-17)
(1.21565 0.147776 -3.89465e-17)
(1.21016 0.183267 9.64905e-18)
(1.2027 0.195456 -2.20706e-17)
(1.19715 0.221096 -1.51802e-17)
(1.19216 0.252823 8.96886e-19)
(1.19503 0.269034 2.28951e-18)
(1.18524 0.345197 6.41139e-18)
(1.22528 0.354361 -2.23986e-17)
(1.20449 0.583774 1.71515e-17)
(1.21748 0.443067 -3.28463e-17)
(1.21565 -0.147776 -3.56404e-17)
(1.21016 -0.183267 -2.85108e-17)
(1.2027 -0.195456 4.4944e-18)
(1.19715 -0.221096 -1.87408e-17)
(1.19216 -0.252823 -1.11065e-17)
(1.19503 -0.269034 6.27021e-18)
(1.18524 -0.345197 -1.91587e-17)
(1.22528 -0.354361 4.24348e-19)
(1.20449 -0.583774 2.06333e-17)
(1.21748 -0.443067 5.40707e-20)
(1.20888 -0.145833 -8.79151e-18)
(1.20196 -0.183022 -1.68977e-17)
(1.19433 -0.196683 -4.78172e-18)
(1.18644 -0.22621 -3.09061e-17)
(1.18139 -0.259322 -6.20559e-18)
(1.1766 -0.286893 -1.94664e-18)
(1.16997 -0.365454 -1.61183e-17)
(1.18294 -0.39552 -1.23282e-17)
(1.12308 -0.57764 2.17589e-17)
(0.853913 -0.406973 3.47223e-18)
(1.20198 -0.1429 -2.32986e-17)
(1.19396 -0.18109 -2.75054e-17)
(1.18599 -0.195102 -1.60964e-18)
(1.17615 -0.225825 -3.37613e-17)
(1.16949 -0.259806 3.29551e-17)
(1.16069 -0.289808 2.33888e-18)
(1.14775 -0.370034 -2.06116e-17)
(1.14337 -0.405587 -7.8622e-18)
(1.07968 -0.624791 3.23676e-17)
(0.839442 -0.464957 4.81028e-18)
(1.19514 -0.140327 1.66652e-17)
(1.18572 -0.179733 -2.79656e-17)
(1.1771 -0.194522 7.53847e-20)
(1.16465 -0.227531 -5.47471e-18)
(1.15599 -0.262292 2.61375e-17)
(1.14 -0.298611 -1.55557e-18)
(1.1226 -0.377879 1.72287e-17)
(1.09332 -0.425584 -1.19806e-17)
(1.0056 -0.603977 -1.45082e-17)
(0.661678 -0.434906 6.94972e-18)
(1.18834 -0.137433 2.02494e-18)
(1.17757 -0.177752 -3.51524e-17)
(1.16814 -0.192932 1.19359e-18)
(1.15311 -0.22723 1.27105e-17)
(1.14138 -0.262416 3.99371e-17)
(1.11932 -0.301392 -2.49232e-18)
(1.0924 -0.378887 1.16017e-18)
(1.04607 -0.428313 1.46344e-17)
(0.944324 -0.605073 8.65767e-18)
(0.626241 -0.439109 -8.94216e-18)
(1.18167 -0.134566 1.17973e-17)
(1.16947 -0.175707 -4.1396e-17)
(1.15908 -0.191256 7.16444e-19)
(1.14128 -0.226802 7.80917e-18)
(1.12632 -0.261993 1.11533e-17)
(1.09681 -0.303649 2.50477e-17)
(1.0617 -0.37745 1.03487e-17)
(0.994881 -0.430164 5.50849e-18)
(0.885238 -0.577274 -2.0268e-18)
(0.543473 -0.415499 -6.34301e-18)
(1.17512 -0.131554 1.13968e-17)
(1.16141 -0.173296 -2.05841e-17)
(1.14999 -0.189 2.99412e-18)
(1.12937 -0.225227 1.21303e-17)
(1.11094 -0.259899 1.84275e-18)
(1.07439 -0.302312 -8.75185e-18)
(1.03111 -0.371321 -2.01895e-17)
(0.946655 -0.422644 9.72864e-18)
(0.830456 -0.553913 2.04609e-18)
(0.500968 -0.396462 1.03791e-17)
(1.16844 -0.128475 1.34881e-17)
(1.15313 -0.17064 -3.61176e-17)
(1.14051 -0.186366 4.50308e-18)
(1.11677 -0.222956 1.36646e-17)
(1.09454 -0.256581 7.64458e-18)
(1.05067 -0.299074 4.75202e-18)
(1.00053 -0.361711 1.23273e-17)
(0.900299 -0.410831 1.38541e-18)
(0.781421 -0.518729 8.04449e-19)
(0.454517 -0.369312 -2.89857e-17)
(1.16127 -0.125285 1.68946e-17)
(1.1444 -0.167636 -3.98418e-17)
(1.13033 -0.183166 6.23861e-18)
(1.10338 -0.219612 1.59671e-17)
(1.07654 -0.251693 7.3128e-18)
(1.02521 -0.293115 2.35538e-19)
(0.96585 -0.348839 5.53547e-20)
(0.854132 -0.393612 4.79017e-18)
(0.737896 -0.4818 2.65429e-18)
(0.424908 -0.339762 -4.36622e-17)
(1.15375 -0.122037 -6.76638e-18)
(1.1358 -0.164315 -7.55524e-17)
(1.12045 -0.179437 3.31688e-17)
(1.09151 -0.215226 -3.48382e-18)
(1.06101 -0.245149 9.28631e-18)
(1.00484 -0.284316 2.14006e-18)
(0.93603 -0.332634 6.63083e-18)
(0.81201 -0.373709 2.13428e-18)
(0.681066 -0.440943 -8.27621e-18)
(0.363646 -0.306137 -4.93375e-18)
(1.27091 -0.174843 -1.08919e-17)
(1.26772 -0.207156 3.36979e-17)
(1.2656 -0.221621 4.17283e-18)
(1.26565 -0.247719 -2.01782e-17)
(1.25216 -0.258959 -1.38051e-17)
(1.18226 -0.243891 -1.32581e-18)
(0.97625 -0.21158 -1.24643e-17)
(0.492228 -0.145745 -4.33841e-17)
(-0.089777 -0.18025 -1.67256e-18)
(-0.186204 -0.174651 -1.37838e-16)
(1.26737 -0.174843 -1.57929e-17)
(1.26299 -0.206995 7.4116e-18)
(1.25919 -0.221141 3.8639e-18)
(1.25851 -0.248639 -1.78491e-17)
(1.25184 -0.266908 2.03109e-17)
(1.21075 -0.267167 -5.46101e-18)
(1.06318 -0.2478 5.19033e-17)
(0.633333 -0.179636 -5.23414e-17)
(-0.0105871 -0.143618 2.10778e-17)
(-0.188802 -0.160438 2.9975e-17)
(1.26221 -0.171518 -1.75926e-17)
(1.25779 -0.204453 2.48613e-17)
(1.2543 -0.219121 8.20301e-18)
(1.25469 -0.247321 -2.67287e-17)
(1.25124 -0.267826 8.94158e-18)
(1.22227 -0.274223 -1.14416e-17)
(1.10541 -0.264683 -2.33042e-17)
(0.746699 -0.211725 3.53253e-17)
(0.0863167 -0.108485 4.93915e-17)
(-0.174743 -0.126746 7.99349e-18)
(1.25753 -0.169677 -2.27348e-17)
(1.25249 -0.202813 2.20161e-17)
(1.248 -0.217478 1.25525e-17)
(1.2478 -0.246525 -2.90001e-17)
(1.2478 -0.271429 1.49915e-17)
(1.23647 -0.287223 -7.2505e-18)
(1.15679 -0.288168 2.34667e-19)
(0.879391 -0.245254 1.12162e-17)
(0.211014 -0.11664 1.04639e-16)
(-0.155103 -0.0757761 -9.08444e-17)
(1.25224 -0.166795 1.43933e-17)
(1.24704 -0.200392 7.0114e-17)
(1.24221 -0.215145 -2.40723e-17)
(1.24147 -0.244254 5.28286e-18)
(1.24168 -0.270942 1.27603e-17)
(1.23775 -0.292014 -1.07673e-17)
(1.18489 -0.306929 -1.61277e-17)
(0.993069 -0.277703 -6.83599e-17)
(0.365129 -0.167315 1.17059e-17)
(-0.121547 -0.0169933 -1.00455e-17)
(1.24695 -0.164189 -6.4922e-18)
(1.24142 -0.198056 2.75876e-17)
(1.23586 -0.212713 -9.38917e-18)
(1.23416 -0.241965 -1.45851e-17)
(1.23492 -0.271033 2.07514e-17)
(1.2382 -0.29649 -8.23515e-18)
(1.20898 -0.324804 -3.12214e-18)
(1.08803 -0.304677 -5.53809e-17)
(0.548677 -0.228363 -5.61491e-18)
(-0.0428543 0.0260454 1.06454e-16)
(1.24136 -0.161173 2.6686e-19)
(1.23576 -0.195371 5.79469e-17)
(1.22969 -0.209812 -1.6312e-17)
(1.22686 -0.238645 -1.13758e-17)
(1.22642 -0.268741 2.27924e-17)
(1.2309 -0.296034 -1.01199e-17)
(1.2182 -0.338565 -5.67037e-19)
(1.15804 -0.328651 -6.13998e-18)
(0.747267 -0.291458 -2.73901e-17)
(0.0583402 -0.000693866 3.41013e-17)
(1.23559 -0.158111 -8.09958e-18)
(1.23002 -0.192585 1.9484e-17)
(1.22335 -0.206674 -1.41946e-17)
(1.21945 -0.235083 -2.04031e-17)
(1.21812 -0.266143 2.62921e-17)
(1.22182 -0.293348 -7.21975e-18)
(1.21738 -0.347591 -2.48187e-18)
(1.20554 -0.349177 -2.34839e-17)
(0.931692 -0.346395 -3.13365e-17)
(0.28471 -0.0926446 1.8017e-17)
(1.22943 -0.154832 -7.01355e-18)
(1.22407 -0.189605 2.99515e-18)
(1.21688 -0.203147 -1.63777e-17)
(1.21195 -0.230778 -2.72193e-17)
(1.20878 -0.261982 -1.52606e-17)
(1.20915 -0.286919 -6.64759e-18)
(1.20553 -0.351542 1.58933e-18)
(1.23238 -0.366467 -7.11622e-18)
(1.05953 -0.406777 3.97471e-17)
(0.479165 -0.210212 -3.65796e-18)
(1.22275 -0.15143 -8.913e-18)
(1.21749 -0.186515 1.42216e-17)
(1.20992 -0.199385 -1.60819e-17)
(1.20449 -0.226109 -2.97986e-17)
(1.19997 -0.257292 6.89039e-20)
(1.20003 -0.278068 -1.39189e-17)
(1.19405 -0.35018 -1.06114e-18)
(1.2342 -0.366177 -2.67716e-17)
(1.12276 -0.432096 1.24898e-17)
(1.09541 -0.275732 5.4813e-18)
(1.11052 -0.10274 5.87576e-17)
(1.08977 -0.143555 4.45321e-17)
(1.07163 -0.156103 2.8187e-17)
(1.04405 -0.186464 3.89212e-17)
(1.01316 -0.202686 1.91436e-17)
(0.968686 -0.222268 -1.19142e-18)
(0.913891 -0.222582 3.14211e-18)
(0.830696 -0.215491 1.50033e-17)
(0.747208 -0.166508 -6.89488e-18)
(0.575273 -0.101439 -6.23694e-17)
(1.06845 -0.0536686 -4.44804e-17)
(1.0542 -0.0749498 2.13225e-17)
(1.04123 -0.0798374 -3.11913e-17)
(1.02423 -0.0920273 -1.22036e-17)
(1.00632 -0.0983673 -1.93275e-17)
(0.986254 -0.101452 2.01404e-18)
(0.963847 -0.104738 -1.68436e-18)
(0.941762 -0.0893138 -2.46941e-18)
(0.916716 -0.0790082 1.83487e-18)
(0.917042 -0.0272104 1.10256e-17)
(1.03592 -0.0416336 9.35541e-18)
(1.02483 -0.0562152 1.91035e-17)
(1.01422 -0.0574773 4.29908e-18)
(0.9992 -0.0636468 -1.74061e-17)
(0.982477 -0.0619276 -1.13598e-17)
(0.962851 -0.0607091 1.01487e-17)
(0.942922 -0.0512022 -5.87656e-18)
(0.921131 -0.044057 -6.73282e-19)
(0.905543 -0.0244788 -2.19347e-19)
(0.87743 -0.0106337 1.15732e-18)
(1.022 -0.0151305 -4.61163e-18)
(1.01694 -0.0226831 -7.31471e-19)
(1.01352 -0.0237755 -1.33399e-18)
(1.0096 -0.0271498 -1.14727e-17)
(1.00667 -0.0281425 -1.01246e-17)
(1.00456 -0.0270929 7.41546e-18)
(1.00244 -0.0260761 -4.76978e-18)
(1.00232 -0.0196883 -5.9842e-18)
(1.00145 -0.015484 -2.68482e-19)
(1.01129 -0.0048534 -2.47684e-18)
(1.00998 -0.015063 -1.59844e-17)
(1.00523 -0.0191567 1.54823e-17)
(1.00034 -0.0188186 1.02021e-18)
(0.9933 -0.0198914 1.48887e-18)
(0.985411 -0.0182889 9.53208e-19)
(0.976362 -0.0171266 -2.67253e-18)
(0.967817 -0.0134948 1.36824e-17)
(0.958787 -0.0110424 1.40029e-18)
(0.951592 -0.00556968 5.94684e-19)
(0.940465 -0.00209233 1.13436e-17)
(1.00728 -0.00381342 2.49262e-18)
(1.00642 -0.00655852 -2.86672e-18)
(1.00674 -0.00712173 -5.50868e-19)
(1.00759 -0.00842441 -2.92454e-18)
(1.00933 -0.00881282 -3.57629e-18)
(1.01187 -0.0084669 -1.20687e-17)
(1.01447 -0.00804345 6.57273e-18)
(1.01797 -0.00604054 -2.6041e-18)
(1.02143 -0.00464098 -1.13669e-19)
(1.02784 -0.00158266 7.11463e-18)
(1.00142 -0.00668658 -4.66153e-19)
(0.999377 -0.00759367 3.54332e-19)
(0.996744 -0.00724745 -8.23515e-19)
(0.99296 -0.00716982 -1.42681e-17)
(0.988537 -0.00631476 -1.36319e-17)
(0.983501 -0.00561068 -1.53486e-18)
(0.978618 -0.00422338 -1.29388e-17)
(0.973399 -0.00324025 -1.34279e-17)
(0.96843 -0.0015141 -1.31928e-18)
(0.962513 -0.000472744 -1.14471e-17)
(1.00281 0.000582666 2.59277e-19)
(1.0034 -0.000422433 7.64781e-20)
(1.00489 -0.000619865 3.36008e-19)
(1.00716 -0.00124256 2.46433e-18)
(1.01012 -0.00143336 1.98816e-18)
(1.01366 -0.00154411 -1.23311e-17)
(1.01726 -0.00157813 1.45345e-17)
(1.0212 -0.0012596 3.52925e-19)
(1.02512 -0.00109345 7.66752e-19)
(1.02928 -0.000428803 1.51667e-17)
(0.999336 -0.00179695 1.90066e-19)
(0.998269 -0.00172996 -1.11674e-19)
(0.996537 -0.00149601 -2.07007e-19)
(0.993907 -0.00124073 -5.46041e-19)
(0.990651 -0.000890596 5.31227e-20)
(0.986833 -0.000643839 1.81439e-18)
(0.982899 -0.000291222 -3.12652e-18)
(0.978692 -0.000134719 -1.40031e-17)
(0.974506 0.00013631 -9.38826e-19)
(0.970638 0.000106563 -1.76431e-18)
(1.0016 0.00040917 -1.00904e-19)
(1.00259 -4.43272e-05 -1.2803e-20)
(1.00413 -0.000199203 -1.59588e-19)
(1.00642 -0.000551878 8.98334e-20)
(1.00919 -0.000716003 1.34848e-19)
(1.01241 -0.000856921 -4.28364e-19)
(1.01575 -0.000900305 7.0188e-19)
(1.01927 -0.00080574 2.14371e-18)
(1.02269 -0.000652378 3.84839e-19)
(1.02546 -0.000267175 1.61826e-19)
(0.918128 0.0470068 -5.19818e-20)
(0.91738 0.0449158 1.66515e-20)
(0.914894 0.0435191 3.76435e-20)
(0.910049 0.0414339 5.11075e-18)
(0.9014 0.038918 1.99238e-19)
(0.886381 0.0356688 -4.85544e-18)
(0.862498 0.0312291 -5.33832e-19)
(0.830699 0.0249773 -2.59809e-19)
(0.798542 0.0164077 -4.90991e-18)
(0.777968 0.00575398 -2.79192e-19)
(0.894848 0.0602609 3.31494e-21)
(0.891822 0.0579073 -1.54173e-20)
(0.885938 0.0561209 -2.60551e-20)
(0.876161 0.0536906 6.22045e-19)
(0.860409 0.0504812 1.62873e-19)
(0.834416 0.0462419 -6.24388e-19)
(0.793472 0.0403334 -2.34276e-19)
(0.738108 0.032067 -6.00191e-20)
(0.680768 0.0209344 -5.07865e-19)
(0.643339 0.00731276 2.99527e-19)
(0.916749 0.0575445 1.0184e-19)
(0.91305 0.0579495 3.74199e-19)
(0.906044 0.0572477 3.86632e-19)
(0.894177 0.0564701 1.28606e-17)
(0.875097 0.0544394 2.07438e-19)
(0.844233 0.0509728 -1.25556e-17)
(0.797073 0.0451571 -1.09113e-18)
(0.734877 0.0362623 -9.96126e-19)
(0.671556 0.0238147 -1.2377e-17)
(0.630655 0.00834735 -8.93169e-19)
(0.877061 0.0667364 4.73175e-20)
(0.870549 0.0682525 3.12099e-18)
(0.859353 0.0675418 -2.05243e-18)
(0.84028 0.0673339 -1.48363e-18)
(0.810062 0.0651113 -2.40758e-18)
(0.762152 0.0611859 -4.31355e-18)
(0.690701 0.0540773 -2.37039e-18)
(0.597923 0.0431532 -6.20576e-18)
(0.503665 0.0281023 -6.05396e-18)
(0.442401 0.00979844 -1.76506e-18)
(0.945396 0.0698412 -2.95789e-19)
(0.937261 0.0795567 -1.30357e-18)
(0.923757 0.0816285 -2.72821e-17)
(0.899716 0.0865416 -2.51653e-18)
(0.861321 0.0867558 -2.72979e-17)
(0.80091 0.0844197 -2.12224e-18)
(0.713589 0.0763218 -2.76955e-17)
(0.604626 0.0616528 -1.39912e-18)
(0.497655 0.0403502 -1.09373e-18)
(0.42947 0.0141084 -2.58606e-17)
(0.920628 0.0563952 -2.58277e-19)
(0.905793 0.0689792 -1.11871e-17)
(0.883052 0.0713098 -4.49814e-18)
(0.841901 0.0790366 3.87344e-20)
(0.777359 0.0798174 7.28669e-18)
(0.677908 0.0790092 3.75442e-19)
(0.538628 0.0710095 6.56249e-18)
(0.371634 0.0563397 8.23741e-18)
(0.213424 0.0357397 6.17926e-19)
(0.114119 0.0122307 7.0416e-18)
(1.05132 0.0521636 -2.40908e-20)
(1.03818 0.085556 -9.02329e-19)
(1.01388 0.0935833 -6.11856e-17)
(0.966722 0.116905 1.00082e-18)
(0.889649 0.125277 -6.30675e-17)
(0.770031 0.132667 -1.09293e-17)
(0.60585 0.125752 -6.89009e-17)
(0.420643 0.10451 -8.53432e-18)
(0.260255 0.0686922 -2.85689e-18)
(0.165786 0.0239106 -6.03375e-17)
(1.11202 -0.0409394 -1.41057e-18)
(1.09799 -0.0119715 -1.15687e-17)
(1.05842 -0.00409106 6.19608e-18)
(0.985512 0.0210371 6.98423e-17)
(0.855835 0.0312333 5.64266e-18)
(0.650647 0.0478443 -6.47765e-17)
(0.35803 0.0504016 -1.42013e-18)
(0.027819 0.0437528 8.54056e-21)
(-0.256063 0.0287455 -7.56458e-17)
(-0.425737 0.0134053 -7.35647e-18)
(1.26033 -0.100413 -8.56078e-18)
(1.26193 -0.0655782 -1.04002e-16)
(1.23518 -0.0529178 -1.60823e-17)
(1.18582 -0.0236829 3.17506e-18)
(1.07697 -0.00302112 -8.99028e-18)
(0.89247 0.0255675 1.28691e-16)
(0.607368 0.0435087 4.32883e-18)
(0.300737 0.0533246 1.45234e-16)
(0.0956611 0.0254395 1.51667e-16)
(-0.0673453 0.00161128 1.14782e-17)
(1.33922 -0.244433 1.5674e-17)
(1.33284 -0.257251 1.05419e-16)
(1.30536 -0.253227 -1.00292e-16)
(1.2516 -0.256849 9.16606e-17)
(1.13098 -0.238998 -1.53729e-16)
(0.902258 -0.203421 -1.45521e-16)
(0.496108 -0.145286 -1.28048e-16)
(-0.0829607 -0.0598046 -1.43348e-17)
(-0.563286 -0.0256979 -1.53176e-16)
(-0.589486 -0.0163589 -1.43595e-16)
(1.0016 -0.00040917 1.00356e-17)
(1.00259 4.43272e-05 3.42813e-19)
(1.00413 0.000199203 -2.08964e-18)
(1.00642 0.000551878 -2.15861e-19)
(1.00919 0.000716003 -1.79474e-18)
(1.01241 0.000856921 9.40169e-18)
(1.01575 0.000900305 1.80024e-19)
(1.01927 0.00080574 -1.80761e-18)
(1.02269 0.000652378 -4.24269e-19)
(1.02546 0.000267175 -2.11606e-18)
(0.999336 0.00179695 1.67349e-17)
(0.998269 0.00172996 -9.75949e-19)
(0.996537 0.00149601 1.37573e-17)
(0.993907 0.00124073 -1.21309e-18)
(0.990651 0.000890596 1.38409e-17)
(0.986833 0.000643839 1.63147e-17)
(0.982899 0.000291222 -6.48874e-19)
(0.978692 0.000134719 1.3384e-17)
(0.974506 -0.00013631 1.29559e-18)
(0.970638 -0.000106563 1.32284e-17)
(1.00281 -0.000582666 4.02642e-18)
(1.0034 0.000422433 1.44985e-17)
(1.00489 0.000619866 3.76295e-18)
(1.00716 0.00124256 1.38301e-17)
(1.01012 0.00143336 3.3203e-18)
(1.01366 0.00154411 3.67078e-18)
(1.01726 0.00157813 1.3477e-17)
(1.0212 0.0012596 3.02487e-18)
(1.02512 0.00109345 -1.76726e-18)
(1.02928 0.000428803 3.0733e-18)
(1.00142 0.00668658 7.2867e-19)
(0.999377 0.00759367 8.89341e-19)
(0.996744 0.00724745 7.16522e-19)
(0.99296 0.00716982 8.59061e-19)
(0.988537 0.00631476 8.39526e-19)
(0.983501 0.00561068 5.72096e-19)
(0.978618 0.00422338 6.77483e-19)
(0.973399 0.00324025 1.28005e-18)
(0.96843 0.0015141 1.2706e-17)
(0.962513 0.000472744 5.62532e-19)
(1.00728 0.00381342 -1.47172e-20)
(1.00642 0.00655852 1.18849e-17)
(1.00674 0.00712173 7.61896e-19)
(1.00759 0.00842441 1.1121e-17)
(1.00933 0.00881282 4.16016e-19)
(1.01187 0.0084669 3.19929e-19)
(1.01447 0.00804345 1.00236e-17)
(1.01797 0.00604054 4.15753e-19)
(1.02143 0.00464098 8.06226e-19)
(1.02784 0.00158266 2.1631e-19)
(1.00998 0.015063 4.42672e-18)
(1.00523 0.0191567 1.91757e-17)
(1.00034 0.0188186 4.47903e-18)
(0.9933 0.0198914 1.68859e-17)
(0.985411 0.0182889 1.22077e-18)
(0.976362 0.0171266 2.05207e-18)
(0.967817 0.0134948 1.30582e-17)
(0.958787 0.0110424 1.79883e-18)
(0.951592 0.00556968 9.9539e-18)
(0.940465 0.00209233 1.50408e-18)
(1.022 0.0151305 -1.65707e-17)
(1.01694 0.0226831 1.5182e-18)
(1.01352 0.0237755 -1.57728e-17)
(1.0096 0.0271498 1.96286e-18)
(1.00667 0.0281425 -2.88274e-18)
(1.00456 0.0270929 -7.80764e-18)
(1.00244 0.0260761 1.89985e-18)
(1.00232 0.0196883 -5.23718e-18)
(1.00145 0.015484 2.1055e-18)
(1.01129 0.0048534 -2.86582e-18)
(1.03592 0.0416336 -2.06694e-17)
(1.02483 0.0562152 5.47002e-19)
(1.01422 0.0574773 2.14356e-18)
(0.9992 0.0636468 2.01328e-18)
(0.982477 0.0619276 1.26248e-17)
(0.962851 0.0607091 -9.54446e-18)
(0.942922 0.0512022 -2.51898e-19)
(0.921131 0.044057 -3.03913e-18)
(0.905543 0.0244788 -2.42172e-18)
(0.87743 0.0106337 -4.87271e-18)
(1.06845 0.0536686 -4.46114e-17)
(1.0542 0.0749498 -2.3479e-18)
(1.04123 0.0798374 -2.54691e-17)
(1.02423 0.0920273 -4.03409e-18)
(1.00632 0.0983673 -3.25458e-18)
(0.986254 0.101452 -8.46457e-18)
(0.963847 0.104738 1.02708e-18)
(0.941762 0.0893138 1.00355e-17)
(0.916716 0.0790082 1.29209e-17)
(0.917042 0.0272104 2.48675e-17)
(1.11052 0.10274 2.01928e-17)
(1.08977 0.143555 -9.76796e-19)
(1.07163 0.156103 4.17801e-19)
(1.04405 0.186464 2.50546e-17)
(1.01316 0.202686 2.56655e-17)
(0.968686 0.222268 3.88118e-18)
(0.913891 0.222582 6.32562e-19)
(0.830696 0.215491 8.20682e-18)
(0.747208 0.166508 3.97846e-17)
(0.575273 0.101439 -5.12954e-19)
(1.33922 0.244433 -7.9742e-18)
(1.33284 0.257251 -3.90038e-18)
(1.30536 0.253227 -1.61632e-18)
(1.2516 0.256849 2.86147e-18)
(1.13098 0.238998 9.16004e-18)
(0.902258 0.203421 -3.70968e-18)
(0.496108 0.145286 2.76303e-18)
(-0.0829607 0.0598047 -1.53699e-18)
(-0.563286 0.0256979 3.25654e-18)
(-0.589486 0.0163589 -7.2848e-18)
(1.26033 0.100413 1.85124e-18)
(1.26193 0.0655782 8.07793e-19)
(1.23518 0.0529178 -5.57016e-19)
(1.18582 0.0236829 -9.60467e-18)
(1.07697 0.00302112 -1.36623e-16)
(0.89247 -0.0255675 -9.42672e-18)
(0.607368 -0.0435087 -7.71476e-19)
(0.300737 -0.0533246 3.89373e-18)
(0.0956611 -0.0254395 1.3971e-16)
(-0.0673453 -0.00161128 7.94174e-18)
(1.11202 0.0409394 -6.9764e-18)
(1.09799 0.0119715 4.5354e-18)
(1.05842 0.00409106 -5.03699e-18)
(0.985512 -0.0210371 5.25005e-18)
(0.855835 -0.0312333 5.81449e-17)
(0.650647 -0.0478443 -1.62701e-18)
(0.35803 -0.0504016 4.67222e-18)
(0.027819 -0.0437528 1.36952e-19)
(-0.256063 -0.0287455 7.40818e-17)
(-0.425737 -0.0134053 3.60236e-18)
(1.05132 -0.0521636 5.77033e-17)
(1.03818 -0.085556 -5.36658e-17)
(1.01388 -0.0935833 5.49059e-17)
(0.966722 -0.116905 -5.70901e-17)
(0.889649 -0.125277 -2.58325e-18)
(0.770031 -0.132667 6.67999e-17)
(0.60585 -0.125752 -5.87505e-17)
(0.420643 -0.10451 5.81908e-17)
(0.260255 -0.0686922 6.69784e-18)
(0.165786 -0.0239106 6.26126e-17)
(0.920628 -0.0563952 2.86776e-18)
(0.905793 -0.0689792 -2.32404e-18)
(0.883052 -0.0713098 2.59264e-18)
(0.841901 -0.0790366 -2.74356e-18)
(0.777359 -0.0798174 -1.1994e-17)
(0.677908 -0.0790092 1.0508e-18)
(0.538628 -0.0710095 -1.51425e-18)
(0.371634 -0.0563397 1.23058e-18)
(0.213424 -0.0357397 8.39832e-18)
(0.114119 -0.0122307 1.14212e-18)
(0.945396 -0.0698412 2.9243e-17)
(0.937261 -0.0795567 -2.53099e-17)
(0.923757 -0.0816285 2.56576e-17)
(0.899716 -0.0865416 -2.54497e-17)
(0.861321 -0.0867558 2.42295e-17)
(0.80091 -0.0844197 3.06237e-17)
(0.713589 -0.0763218 -2.44017e-17)
(0.604626 -0.0616528 2.45105e-17)
(0.497655 -0.0403502 -2.35262e-17)
(0.42947 -0.0141084 2.48984e-17)
(0.877061 -0.0667364 -7.36426e-19)
(0.870549 -0.0682525 9.87596e-19)
(0.859353 -0.0675418 -1.19924e-18)
(0.84028 -0.0673339 1.70345e-18)
(0.810062 -0.0651113 1.20091e-18)
(0.762152 -0.0611859 -2.28075e-18)
(0.690701 -0.0540773 3.26251e-18)
(0.597923 -0.0431532 -3.96683e-18)
(0.503665 -0.0281023 -2.42549e-18)
(0.442401 -0.00979844 -5.54486e-18)
(0.916749 -0.0575445 -7.53376e-19)
(0.91305 -0.0579495 -1.47168e-20)
(0.906044 -0.0572477 -5.69209e-19)
(0.894177 -0.0564701 3.08743e-19)
(0.875097 -0.0544394 1.26836e-17)
(0.844233 -0.0509728 6.62663e-20)
(0.797073 -0.0451571 4.76149e-19)
(0.734877 -0.0362623 -1.13443e-19)
(0.671556 -0.0238147 1.16763e-17)
(0.630655 -0.00834735 1.44936e-20)
(0.894848 -0.0602609 4.51557e-18)
(0.891822 -0.0579073 5.08744e-19)
(0.885938 -0.0561209 4.68944e-18)
(0.876161 -0.0536906 6.72476e-19)
(0.860409 -0.0504812 5.90108e-18)
(0.834416 -0.0462419 5.90176e-18)
(0.793472 -0.0403334 7.01029e-19)
(0.738108 -0.032067 5.97548e-18)
(0.680768 -0.0209344 1.11058e-18)
(0.643339 -0.00731276 6.0848e-18)
(0.918128 -0.0470068 4.29114e-19)
(0.91738 -0.0449158 -5.69511e-20)
(0.914894 -0.0435191 4.03236e-19)
(0.910049 -0.0414339 2.31911e-19)
(0.9014 -0.038918 5.40186e-18)
(0.886381 -0.0356688 7.82919e-19)
(0.862498 -0.0312291 2.29625e-19)
(0.830699 -0.0249773 6.12649e-19)
(0.798542 -0.0164077 4.92509e-18)
(0.777968 -0.00575398 8.44018e-19)
)
;

boundaryField
{
    inlet
    {
        type            uniformFixedValue;
        uniformValue    
        {
            type            constant;
            value           (1 0 0);
        }
        value           uniform (1 0 0);
    }
    outlet
    {
        type            pressureInletOutletVelocity;
        value           nonuniform List<vector> 
20
(
(0.918128 0.0470068 -5.19818e-20)
(0.91738 0.0449158 1.66515e-20)
(0.914894 0.0435191 3.76435e-20)
(0.910049 0.0414339 5.11075e-18)
(0.9014 0.038918 1.99238e-19)
(0.886381 0.0356688 -4.85544e-18)
(0.862498 0.0312291 -5.33832e-19)
(0.830699 0.0249773 -2.59809e-19)
(0.798542 0.0164077 -4.90991e-18)
(0.777968 0.00575398 -2.79192e-19)
(0.918128 -0.0470068 4.29114e-19)
(0.91738 -0.0449158 -5.69511e-20)
(0.914894 -0.0435191 4.03236e-19)
(0.910049 -0.0414339 2.31911e-19)
(0.9014 -0.038918 5.40186e-18)
(0.886381 -0.0356688 7.82919e-19)
(0.862498 -0.0312291 2.29625e-19)
(0.830699 -0.0249773 6.12649e-19)
(0.798542 -0.0164077 4.92509e-18)
(0.777968 -0.00575398 8.44018e-19)
)
;
    }
    polygon
    {
        type            fixedValue;
        value           uniform (0 0 0);
    }
    top
    {
        type            symmetryPlane;
    }
    bottom
    {
        type            symmetryPlane;
    }
    outside
    {
        type            zeroGradient;
    }
}


// ************************************************************************* //
