/*--------------------------------*- C++ -*----------------------------------*\
  =========                 |
  \\      /  F ield         | OpenFOAM: The Open Source CFD Toolbox
   \\    /   O peration     | Website:  https://openfoam.org
    \\  /    A nd           | Version:  7
     \\/     M anipulation  |
\*---------------------------------------------------------------------------*/
FoamFile
{
    version     2.0;
    format      ascii;
    class       volVectorField;
    location    "2";
    object      U;
}
// * * * * * * * * * * * * * * * * * * * * * * * * * * * * * * * * * * * * * //

dimensions      [0 1 -1 0 0 0 0];

internalField   nonuniform List<vector> 
4000
(
(1.18325 0.117074 -1.70275e-17)
(1.18854 0.122448 -8.34982e-18)
(1.19227 0.125921 -2.40822e-18)
(1.19815 0.132977 7.81864e-18)
(1.20405 0.140344 -1.65648e-18)
(1.21134 0.150577 -1.97721e-18)
(1.21931 0.162574 -2.16381e-17)
(1.22845 0.177251 -2.00046e-18)
(1.23836 0.195216 -7.29537e-18)
(1.24932 0.215716 -2.30373e-17)
(1.26027 0.24217 -1.30095e-17)
(1.27255 0.270613 -2.70979e-17)
(1.28335 0.311173 -6.15949e-19)
(1.29921 0.352266 -1.50823e-17)
(1.31052 0.415443 -3.06812e-18)
(1.33352 0.467228 2.31546e-18)
(1.32232 0.523889 1.46387e-18)
(1.27085 0.487813 -2.04772e-17)
(0.895719 0.278279 2.91159e-17)
(0.530244 0.00985834 5.91328e-19)
(1.18502 0.115454 -1.36313e-17)
(1.19088 0.119804 -7.55098e-18)
(1.1957 0.123067 -6.68018e-18)
(1.20263 0.129682 -1.88044e-17)
(1.20985 0.136992 -1.4975e-18)
(1.21861 0.14714 -4.65461e-18)
(1.22827 0.159238 -2.00155e-17)
(1.23919 0.174219 -1.81897e-18)
(1.25115 0.192752 -1.51701e-17)
(1.26454 0.214716 -2.44711e-17)
(1.27947 0.243128 -3.46139e-17)
(1.29713 0.275283 -2.26826e-17)
(1.31681 0.319069 5.11307e-18)
(1.34102 0.365625 -8.48273e-18)
(1.36039 0.427325 -2.10699e-17)
(1.35815 0.466987 5.74664e-18)
(1.2542 0.475568 1.21069e-17)
(0.9764 0.370343 -2.55591e-17)
(0.473434 0.259727 -1.0016e-16)
(-0.0958235 0.106902 -3.51107e-18)
(1.18619 0.113322 -1.17738e-17)
(1.19289 0.11654 -4.65382e-18)
(1.19907 0.119442 -7.91112e-19)
(1.20738 0.125518 -1.27678e-17)
(1.21636 0.132623 -7.14526e-19)
(1.22718 0.142632 -4.84554e-18)
(1.2394 0.1549 -4.72981e-18)
(1.25357 0.170374 -1.50839e-18)
(1.26971 0.189602 -1.09574e-17)
(1.28813 0.212482 -2.1359e-17)
(1.3086 0.241397 -5.15043e-17)
(1.33156 0.274717 7.10126e-18)
(1.35661 0.318702 -5.79333e-18)
(1.38082 0.363014 -3.72756e-17)
(1.38026 0.406083 -6.26654e-17)
(1.3034 0.402699 1.22285e-17)
(1.06331 0.336764 -4.88411e-17)
(0.637978 0.177105 -1.28118e-16)
(0.10311 -0.0129652 -6.34057e-17)
(0.0056449 -0.0570026 -3.67601e-17)
(1.18681 0.110628 -6.76771e-18)
(1.1946 0.112573 -7.14554e-18)
(1.20219 0.115015 -1.56959e-17)
(1.21199 0.120443 -1.38395e-17)
(1.22275 0.127137 -1.58381e-18)
(1.23556 0.136692 -2.46638e-18)
(1.24995 0.148564 -3.10252e-17)
(1.26637 0.163635 -2.13276e-18)
(1.28469 0.182521 -2.47809e-17)
(1.30544 0.205696 -4.21217e-17)
(1.3295 0.235679 -4.44896e-17)
(1.35814 0.270983 -2.43428e-17)
(1.38778 0.313707 -3.20888e-17)
(1.40038 0.348727 -1.46298e-17)
(1.35073 0.367201 -3.15156e-17)
(1.16575 0.328064 8.71825e-18)
(0.791253 0.233942 -7.83552e-17)
(0.287279 0.0765095 -8.86652e-17)
(-0.0268036 0.065569 -1.68709e-16)
(-0.0915995 0.0597079 -3.80453e-17)
(1.18688 0.107317 -1.36548e-17)
(1.19591 0.107861 -2.54979e-18)
(1.20489 0.109792 2.16703e-17)
(1.21619 0.114464 -1.39031e-18)
(1.22878 0.120632 2.88096e-18)
(1.24371 0.129707 -2.04508e-17)
(1.2608 0.141364 -2.45383e-17)
(1.28081 0.156546 -4.42513e-18)
(1.30417 0.175847 -9.17312e-18)
(1.33172 0.199461 3.17051e-19)
(1.36335 0.228688 -2.78667e-17)
(1.39582 0.260955 3.39795e-17)
(1.41662 0.295776 3.81183e-17)
(1.39319 0.316404 -5.30036e-17)
(1.26729 0.312559 -4.6574e-17)
(0.96505 0.249724 -3.11918e-17)
(0.497182 0.147026 -7.64919e-17)
(0.0808594 0.0810429 -3.25001e-17)
(-0.106309 0.0755665 -3.48535e-17)
(-0.016379 0.0194997 -1.1626e-16)
(1.18646 0.103414 9.57561e-18)
(1.19683 0.102462 -2.44679e-18)
(1.20719 0.10387 -1.00834e-17)
(1.2201 0.10767 -2.47286e-17)
(1.23457 0.113113 -1.69785e-17)
(1.25167 0.121339 1.79625e-17)
(1.2712 0.132025 -1.847e-17)
(1.29374 0.145915 6.34664e-18)
(1.31934 0.163491 -2.8698e-17)
(1.34831 0.185243 -1.45513e-17)
(1.38005 0.212729 -1.3496e-17)
(1.40916 0.243144 -4.86939e-17)
(1.41488 0.27235 -5.59246e-17)
(1.34776 0.281244 -1.28255e-17)
(1.13721 0.26428 1.81383e-17)
(0.735925 0.202366 8.27586e-17)
(0.273856 0.164368 3.4574e-17)
(-0.0461525 0.191729 -1.84311e-17)
(-0.115555 0.201235 2.77804e-17)
(-0.0642265 0.0798713 -1.51064e-17)
(1.18553 0.0988742 1.08618e-17)
(1.19731 0.0963143 -1.97745e-18)
(1.20896 0.0971397 -6.51703e-18)
(1.22351 0.0998827 -2.55012e-17)
(1.23987 0.104417 -1.50142e-17)
(1.25924 0.111676 -1.00722e-17)
(1.28162 0.121547 -1.5618e-17)
(1.30803 0.134887 -2.65702e-17)
(1.33921 0.152289 1.5199e-17)
(1.37586 0.173835 1.90708e-17)
(1.41476 0.199215 -5.23412e-17)
(1.44081 0.223069 -2.25608e-18)
(1.41698 0.240302 3.07227e-17)
(1.283 0.23938 -2.34986e-17)
(0.981321 0.22628 -4.43598e-17)
(0.531746 0.200412 6.24922e-17)
(0.136504 0.255024 -4.15169e-17)
(-0.0982579 0.329438 -1.00794e-16)
(-0.170038 0.303212 1.11613e-16)
(-0.0864175 0.107128 8.12962e-18)
(1.18416 0.093775 7.0533e-19)
(1.19746 0.0896039 -3.48698e-18)
(1.21032 0.0898684 -1.70859e-17)
(1.22664 0.0914281 -9.16953e-18)
(1.24493 0.0949299 -9.26394e-18)
(1.26653 0.100893 -1.478e-17)
(1.29148 0.109152 -2.00982e-17)
(1.32052 0.120202 -7.6815e-19)
(1.35356 0.134176 1.64339e-17)
(1.38899 0.150876 -1.18326e-17)
(1.41945 0.170311 -4.38216e-17)
(1.42453 0.189123 -3.53525e-17)
(1.36279 0.204942 -3.27449e-17)
(1.1746 0.210802 -4.23079e-17)
(0.820458 0.219331 -2.4854e-17)
(0.391349 0.257037 3.6867e-17)
(0.0662728 0.381556 -4.92813e-17)
(-0.156131 0.427127 -5.45013e-17)
(-0.218841 0.390936 -1.99788e-17)
(-0.14227 0.154663 -1.38347e-17)
(1.18233 0.0879989 1.87273e-17)
(1.19709 0.0821396 -2.71625e-18)
(1.211 0.0817135 1.33452e-17)
(1.22905 0.0817701 -3.51266e-17)
(1.24911 0.0839808 -1.66652e-17)
(1.27293 0.0883721 -3.06224e-18)
(1.30062 0.095056 1.8758e-18)
(1.33328 0.104619 -3.45021e-17)
(1.37126 0.11744 -8.36193e-19)
(1.41289 0.133234 2.18342e-17)
(1.44766 0.150796 -3.97013e-17)
(1.44555 0.165008 3.82254e-17)
(1.35106 0.17429 6.59233e-17)
(1.10534 0.183977 2.12866e-17)
(0.712072 0.223277 2.35119e-17)
(0.306854 0.317548 1.62993e-16)
(-0.00905236 0.435805 3.39707e-17)
(-0.231914 0.444591 -1.38647e-16)
(-0.304778 0.418316 -5.78929e-17)
(-0.199037 0.180302 -6.3412e-18)
(1.18014 0.0817708 2.13908e-17)
(1.19647 0.0743792 3.22695e-18)
(1.21146 0.073369 -1.17159e-17)
(1.23138 0.0719333 -1.99881e-17)
(1.25323 0.0729142 1.06188e-17)
(1.27925 0.0755576 -1.78635e-17)
(1.3094 0.0799843 8.47045e-18)
(1.34444 0.0862171 -1.59365e-17)
(1.38325 0.0938239 4.67726e-17)
(1.41994 0.101608 1.25301e-17)
(1.43637 0.108645 -7.28437e-18)
(1.39552 0.114654 4.70522e-17)
(1.24721 0.128143 -1.09158e-17)
(0.958186 0.162194 4.76355e-17)
(0.57221 0.239198 2.79783e-17)
(0.205253 0.346693 6.47126e-17)
(-0.0929249 0.423195 -3.40469e-17)
(-0.284804 0.411248 -3.09413e-17)
(-0.319533 0.383018 -1.00653e-16)
(-0.183566 0.177018 -1.71473e-17)
(1.14473 0.111945 -2.50028e-17)
(1.1423 0.128375 -4.16452e-18)
(1.13926 0.135803 1.22573e-17)
(1.1345 0.150876 1.88919e-17)
(1.13055 0.16362 1.35652e-17)
(1.12418 0.180407 -2.66385e-17)
(1.11706 0.198099 -3.22921e-18)
(1.10687 0.218407 -1.655e-17)
(1.09365 0.240733 1.93757e-18)
(1.07557 0.265235 5.51627e-18)
(1.05168 0.291505 -3.88058e-18)
(1.01923 0.319174 5.81423e-18)
(0.977704 0.34775 9.68205e-18)
(0.923423 0.375055 5.40241e-18)
(0.860544 0.399866 9.92068e-18)
(0.778834 0.418023 3.92926e-17)
(0.697106 0.434135 6.43531e-17)
(0.582683 0.425954 4.56262e-17)
(0.459161 0.416152 7.27735e-18)
(0.204833 0.208836 1.16171e-17)
(1.14994 0.113942 -2.26527e-17)
(1.14842 0.129636 -3.84615e-18)
(1.14597 0.13694 6.74044e-18)
(1.1424 0.151671 1.78091e-17)
(1.1395 0.164259 1.31854e-17)
(1.13464 0.181102 -8.14347e-18)
(1.12919 0.198947 -5.79455e-18)
(1.12111 0.219783 -4.94274e-19)
(1.11047 0.242958 -7.90675e-18)
(1.09557 0.268845 -8.14838e-18)
(1.07564 0.297296 4.66552e-18)
(1.04777 0.327596 3.65538e-18)
(1.01211 0.36008 1.07617e-19)
(0.964559 0.391536 1.93146e-18)
(0.908985 0.42421 3.40042e-18)
(0.836531 0.447264 2.86929e-17)
(0.760678 0.478199 4.43333e-17)
(0.663163 0.473591 9.70003e-18)
(0.532325 0.474555 3.74225e-17)
(0.264263 0.236857 1.037e-17)
(1.15474 0.115692 -1.15472e-17)
(1.15417 0.130544 -3.14255e-18)
(1.15229 0.137641 1.51591e-17)
(1.15002 0.1519 9.15818e-18)
(1.14817 0.164233 7.31562e-18)
(1.14497 0.180923 -3.398e-18)
(1.14133 0.198733 2.67671e-18)
(1.13556 0.219807 -3.90435e-18)
(1.12762 0.243535 -9.95552e-18)
(1.11586 0.270421 -2.6406e-18)
(1.09955 0.300727 3.10786e-18)
(1.0757 0.3336 7.71482e-18)
(1.04425 0.370255 1.02716e-17)
(1.00005 0.406615 6.97406e-18)
(0.947285 0.446974 3.90172e-18)
(0.875383 0.477431 2.21814e-17)
(0.7987 0.51778 3.00106e-17)
(0.695489 0.518624 1.68144e-17)
(0.546532 0.513474 2.45476e-17)
(0.249234 0.244162 1.58993e-18)
(1.15924 0.117152 -2.6561e-17)
(1.15961 0.131062 -1.48144e-18)
(1.15834 0.13787 -1.32619e-17)
(1.15733 0.151512 2.28259e-17)
(1.15655 0.163465 1.40343e-17)
(1.15499 0.179763 -8.28626e-18)
(1.15313 0.197312 -1.53643e-17)
(1.14961 0.218312 7.40973e-18)
(1.14431 0.242275 -9.29447e-20)
(1.13573 0.269724 -1.56484e-17)
(1.12314 0.301351 9.98394e-19)
(1.10397 0.335795 -5.20355e-18)
(1.07752 0.375935 -1.30189e-17)
(1.0399 0.415565 -5.67822e-18)
(0.993059 0.46429 3.01558e-18)
(0.931344 0.499695 1.6089e-17)
(0.855733 0.557824 2.35958e-17)
(0.769416 0.565116 1.83986e-18)
(0.596346 0.558274 1.53118e-17)
(0.272273 0.259688 4.52725e-18)
(1.16357 0.118302 -2.29902e-17)
(1.16484 0.131179 -8.62775e-18)
(1.16426 0.137642 1.42198e-17)
(1.16444 0.15055 1.87608e-17)
(1.1648 0.16203 -5.6468e-18)
(1.16481 0.177789 1.0457e-17)
(1.16469 0.19493 -8.00777e-18)
(1.16342 0.215622 1.29212e-17)
(1.16089 0.239528 -1.4713e-17)
(1.15582 0.267165 -1.42467e-17)
(1.14763 0.299705 -1.75443e-18)
(1.13372 0.335493 -6.69976e-18)
(1.11315 0.378505 9.45182e-18)
(1.08246 0.420786 -3.82524e-18)
(1.04108 0.475171 -4.4021e-20)
(0.985781 0.516275 1.06811e-17)
(0.91437 0.5752 1.84535e-17)
(0.816638 0.586651 4.03445e-18)
(0.637245 0.564783 9.9763e-18)
(0.263971 0.256302 2.56179e-18)
(1.16768 0.119093 -1.56344e-17)
(1.1698 0.13083 1.26743e-17)
(1.16993 0.13686 -5.99414e-18)
(1.17126 0.14888 1.56782e-17)
(1.17267 0.159735 -3.19744e-18)
(1.17414 0.174709 7.59657e-18)
(1.17563 0.191129 -1.22322e-17)
(1.17648 0.211027 -1.19205e-17)
(1.17652 0.234267 -1.27776e-17)
(1.17481 0.261172 -1.07811e-17)
(1.17076 0.293625 -4.34976e-19)
(1.16247 0.329281 -2.3153e-18)
(1.14823 0.374265 -2.13984e-18)
(1.12628 0.418334 -1.61819e-18)
(1.09065 0.479847 4.06754e-18)
(1.05023 0.526671 7.24917e-18)
(0.975962 0.612373 1.26375e-17)
(0.914634 0.643521 6.71453e-18)
(0.699589 0.648483 7.79382e-18)
(0.321252 0.292025 1.99709e-18)
(1.17156 0.119534 -1.58628e-17)
(1.17449 0.130074 5.60968e-18)
(1.17537 0.135652 -5.85409e-18)
(1.17781 0.146763 7.85357e-18)
(1.18028 0.157006 -2.58687e-18)
(1.18319 0.171179 5.39474e-18)
(1.18631 0.186894 8.00809e-18)
(1.18924 0.20602 -8.53412e-18)
(1.19186 0.228619 -9.99999e-18)
(1.19338 0.25484 -1.20884e-17)
(1.19341 0.287053 -6.43416e-18)
(1.19028 0.322517 -7.63549e-18)
(1.18256 0.368521 1.68117e-17)
(1.16834 0.414227 -5.27601e-18)
(1.14298 0.47747 -7.05737e-18)
(1.10813 0.528269 4.2253e-18)
(1.05185 0.594401 1.78685e-17)
(0.953699 0.614787 -2.83585e-19)
(0.75253 0.567389 4.19701e-18)
(0.273087 0.254741 4.98968e-19)
(1.17506 0.119528 -1.97379e-18)
(1.1787 0.128748 1.35899e-17)
(1.18029 0.133722 -1.84909e-19)
(1.1837 0.143694 1.59382e-17)
(1.18712 0.153028 2.24084e-19)
(1.19129 0.16595 4.61193e-18)
(1.19582 0.18039 1.59243e-17)
(1.20057 0.197912 -8.44152e-18)
(1.20531 0.218858 -8.7788e-18)
(1.20977 0.242903 -2.51889e-18)
(1.21324 0.273284 7.08003e-18)
(1.21561 0.305952 6.4929e-18)
(1.21356 0.350952 1.86661e-17)
(1.20954 0.394383 1.44655e-17)
(1.19115 0.46294 1.66425e-17)
(1.17344 0.519368 -3.42918e-18)
(1.11836 0.632983 2.38291e-19)
(1.08956 0.705493 1.66012e-17)
(0.885296 0.791886 8.67106e-18)
(0.464022 0.379157 1.46038e-18)
(1.17826 0.119176 -2.53279e-17)
(1.18258 0.127136 -1.37428e-17)
(1.18496 0.131653 -7.5896e-18)
(1.18937 0.140705 -1.44647e-17)
(1.19379 0.149452 -1.81983e-18)
(1.19925 0.161583 2.11589e-18)
(1.20522 0.175365 -7.6118e-18)
(1.21179 0.192161 5.1241e-19)
(1.21875 0.212451 -4.11959e-18)
(1.22595 0.235773 -2.32915e-17)
(1.2328 0.265491 -2.22495e-17)
(1.23932 0.297628 -2.58516e-17)
(1.2429 0.34222 9.74493e-18)
(1.24621 0.386153 -2.77902e-17)
(1.23927 0.452331 -2.75312e-17)
(1.23385 0.505707 1.15815e-17)
(1.19792 0.569576 3.86698e-17)
(1.12421 0.581202 -3.15069e-17)
(0.880761 0.490064 -4.58029e-18)
(0.305427 0.189271 -4.30473e-18)
(1.18085 0.118225 -2.0915e-17)
(1.18567 0.124679 -1.11688e-17)
(1.18863 0.128285 7.85026e-18)
(1.19378 0.135771 -1.81569e-18)
(1.19895 0.143063 -1.59123e-18)
(1.20537 0.153158 2.40122e-18)
(1.21238 0.164702 -1.3663e-17)
(1.22031 0.178559 -2.1756e-17)
(1.22873 0.195613 -4.49556e-18)
(1.23839 0.21457 -3.12515e-17)
(1.24787 0.239911 -2.29815e-17)
(1.26002 0.265298 -2.27305e-17)
(1.26845 0.303965 2.99247e-18)
(1.28253 0.338638 4.37687e-18)
(1.27984 0.402578 -2.1771e-17)
(1.285 0.463845 -3.25924e-17)
(1.25541 0.594732 3.599e-17)
(1.28276 0.722913 -1.31376e-17)
(1.18634 0.921695 4.00595e-18)
(0.85775 0.495386 -6.94748e-19)
(1.18085 -0.118225 -2.74324e-17)
(1.18567 -0.124679 -1.60917e-17)
(1.18863 -0.128285 -3.35653e-18)
(1.19378 -0.135771 -1.22049e-17)
(1.19895 -0.143063 -1.08668e-17)
(1.20537 -0.153158 3.39837e-18)
(1.21238 -0.164702 -1.06603e-17)
(1.22031 -0.178559 -1.45013e-19)
(1.22873 -0.195613 7.1836e-18)
(1.23839 -0.21457 1.46546e-17)
(1.24787 -0.239911 -7.35532e-20)
(1.26002 -0.265298 -1.08329e-17)
(1.26845 -0.303965 -2.15535e-18)
(1.28253 -0.338638 -6.3675e-18)
(1.27984 -0.402578 -1.24297e-17)
(1.285 -0.463845 2.69492e-17)
(1.25541 -0.594732 4.54564e-17)
(1.28276 -0.722913 2.81551e-17)
(1.18634 -0.921695 -8.71211e-18)
(0.85775 -0.495386 5.40863e-18)
(1.17826 -0.119176 -1.05408e-17)
(1.18258 -0.127136 -7.49717e-18)
(1.18496 -0.131653 -7.78119e-18)
(1.18937 -0.140705 -2.14273e-17)
(1.19379 -0.149452 -1.01742e-17)
(1.19925 -0.161583 7.15696e-19)
(1.20522 -0.175365 -9.18586e-18)
(1.21179 -0.192161 -7.5511e-18)
(1.21875 -0.212451 1.14352e-17)
(1.22595 -0.235773 1.91957e-17)
(1.2328 -0.265491 -1.00868e-17)
(1.23932 -0.297628 7.00049e-19)
(1.2429 -0.34222 2.90846e-17)
(1.24621 -0.386153 3.19427e-17)
(1.23927 -0.452331 1.23287e-17)
(1.23385 -0.505707 4.09523e-17)
(1.19792 -0.569576 2.71829e-17)
(1.12421 -0.581202 -1.10298e-18)
(0.880761 -0.490064 8.54319e-19)
(0.305427 -0.189271 5.93465e-17)
(1.17506 -0.119528 -2.16005e-17)
(1.1787 -0.128748 -1.34976e-17)
(1.18029 -0.133722 -6.21101e-18)
(1.1837 -0.143694 -2.49183e-17)
(1.18712 -0.153028 1.91611e-17)
(1.19129 -0.16595 4.18617e-18)
(1.19582 -0.18039 -1.37834e-17)
(1.20057 -0.197912 -6.24499e-18)
(1.20531 -0.218858 1.67566e-17)
(1.20977 -0.242903 2.3784e-17)
(1.21324 -0.273284 -1.31083e-17)
(1.21561 -0.305952 -3.42612e-18)
(1.21356 -0.350952 2.59874e-17)
(1.20954 -0.394383 1.59396e-17)
(1.19115 -0.46294 -1.6742e-18)
(1.17344 -0.519368 -4.09199e-18)
(1.11836 -0.632983 -1.28022e-17)
(1.08956 -0.705493 5.79331e-18)
(0.885296 -0.791886 -3.98746e-18)
(0.464022 -0.379157 -4.56151e-18)
(1.17156 -0.119534 5.18369e-18)
(1.17449 -0.130074 -1.43715e-17)
(1.17537 -0.135652 -5.74413e-18)
(1.17781 -0.146763 -7.077e-18)
(1.18028 -0.157006 1.73828e-17)
(1.18319 -0.171179 1.7663e-18)
(1.18631 -0.186894 1.06201e-17)
(1.18924 -0.20602 -8.55605e-18)
(1.19186 -0.228619 -7.71159e-18)
(1.19338 -0.25484 3.04604e-17)
(1.19341 -0.287053 -2.29564e-17)
(1.19028 -0.322517 4.83668e-18)
(1.18256 -0.368521 2.95313e-18)
(1.16834 -0.414227 -1.03366e-17)
(1.14298 -0.47747 -1.62445e-18)
(1.10813 -0.528269 1.79217e-17)
(1.05185 -0.594401 1.22678e-17)
(0.953699 -0.614787 2.62621e-18)
(0.75253 -0.567389 -1.78791e-18)
(0.273087 -0.254741 -2.04327e-20)
(1.16768 -0.119093 -4.56929e-18)
(1.1698 -0.13083 -1.98125e-17)
(1.16993 -0.13686 -6.33168e-18)
(1.17126 -0.14888 6.29742e-18)
(1.17267 -0.159735 2.66264e-17)
(1.17414 -0.174709 1.09668e-18)
(1.17563 -0.191129 2.73556e-18)
(1.17648 -0.211027 1.27114e-17)
(1.17652 -0.234267 4.65935e-18)
(1.17481 -0.261172 1.36069e-17)
(1.17076 -0.293625 -5.93272e-18)
(1.16247 -0.329281 7.12546e-18)
(1.14823 -0.374265 1.59062e-17)
(1.12628 -0.418334 -4.3767e-19)
(1.09065 -0.479847 1.06066e-18)
(1.05023 -0.526671 1.04012e-17)
(0.975962 -0.612373 4.3982e-18)
(0.914634 -0.643521 -3.71555e-19)
(0.699589 -0.648483 -3.96573e-18)
(0.321252 -0.292025 9.51196e-19)
(1.16357 -0.118302 7.53111e-19)
(1.16484 -0.131179 -2.40725e-17)
(1.16426 -0.137642 -7.65573e-18)
(1.16444 -0.15055 1.08361e-18)
(1.1648 -0.16203 7.57944e-18)
(1.16481 -0.177789 2.22051e-17)
(1.16469 -0.19493 7.33767e-18)
(1.16342 -0.215622 6.67551e-18)
(1.16089 -0.239528 -2.75479e-18)
(1.15582 -0.267165 2.74563e-18)
(1.14763 -0.299705 6.069e-18)
(1.13372 -0.335493 -1.46145e-17)
(1.11315 -0.378505 1.46142e-17)
(1.08246 -0.420786 -1.06025e-17)
(1.04108 -0.475171 7.09889e-19)
(0.985781 -0.516275 -1.12269e-20)
(0.91437 -0.5752 9.48682e-18)
(0.816638 -0.586651 -1.09931e-18)
(0.637245 -0.564783 -6.09945e-18)
(0.263971 -0.256302 2.95795e-18)
(1.15924 -0.117152 6.99067e-19)
(1.15961 -0.131062 -8.14673e-18)
(1.15834 -0.13787 -8.07372e-18)
(1.15733 -0.151512 3.98556e-18)
(1.15655 -0.163465 -2.91427e-18)
(1.15499 -0.179763 -3.1722e-18)
(1.15313 -0.197312 -1.71133e-17)
(1.14961 -0.218312 9.59261e-18)
(1.14431 -0.242275 -2.5616e-19)
(1.13573 -0.269724 -1.13122e-17)
(1.12314 -0.301351 1.80345e-18)
(1.10397 -0.335795 -1.01551e-17)
(1.07752 -0.375935 4.96864e-18)
(1.0399 -0.415565 4.92655e-18)
(0.993059 -0.46429 -1.29586e-17)
(0.931344 -0.499695 -6.18344e-18)
(0.855733 -0.557824 1.37436e-17)
(0.769416 -0.565116 3.32136e-18)
(0.596346 -0.558274 -1.07026e-17)
(0.272273 -0.259688 7.70483e-18)
(1.15474 -0.115692 1.75428e-18)
(1.15417 -0.130544 -1.90278e-17)
(1.15229 -0.137641 -1.04176e-17)
(1.15002 -0.1519 4.32009e-18)
(1.14817 -0.164233 1.62291e-18)
(1.14497 -0.180923 8.88653e-18)
(1.14133 -0.198733 9.30893e-18)
(1.13556 -0.219807 -6.42804e-18)
(1.12762 -0.243535 -2.92352e-18)
(1.11586 -0.270421 1.12612e-17)
(1.09955 -0.300727 6.42724e-18)
(1.0757 -0.3336 -2.13897e-19)
(1.04425 -0.370255 -5.31606e-19)
(1.00005 -0.406615 -1.97954e-18)
(0.947285 -0.446974 -4.75785e-18)
(0.875383 -0.477431 -4.07522e-18)
(0.7987 -0.51778 2.09752e-17)
(0.695489 -0.518624 3.96063e-18)
(0.546532 -0.513474 6.40557e-18)
(0.249234 -0.244162 2.45696e-17)
(1.14994 -0.113942 3.05545e-18)
(1.14842 -0.129636 -2.09022e-17)
(1.14597 -0.13694 -1.17045e-17)
(1.1424 -0.151671 5.78575e-18)
(1.1395 -0.164259 4.84803e-19)
(1.13464 -0.181102 6.41516e-18)
(1.12919 -0.198947 -1.4461e-18)
(1.12111 -0.219783 -3.21631e-18)
(1.11047 -0.242958 -3.72964e-19)
(1.09557 -0.268845 5.52824e-18)
(1.07564 -0.297296 4.37669e-18)
(1.04777 -0.327596 -6.14005e-18)
(1.01211 -0.36008 1.33337e-18)
(0.964559 -0.391536 1.30139e-18)
(0.908985 -0.42421 -1.15157e-17)
(0.836531 -0.447264 -6.68414e-18)
(0.760678 -0.478199 2.91761e-17)
(0.663163 -0.473591 4.0379e-18)
(0.532325 -0.474555 5.94652e-18)
(0.264263 -0.236857 5.13129e-17)
(1.14473 -0.111945 -1.52001e-17)
(1.1423 -0.128375 -4.59711e-17)
(1.13926 -0.135803 4.17767e-18)
(1.1345 -0.150876 -9.87424e-18)
(1.13055 -0.16362 1.05684e-18)
(1.12418 -0.180407 1.03651e-17)
(1.11706 -0.198099 3.03167e-18)
(1.10687 -0.218407 8.69503e-18)
(1.09365 -0.240733 1.36946e-17)
(1.07557 -0.265235 -1.62932e-18)
(1.05168 -0.291505 -5.30819e-18)
(1.01923 -0.319174 -6.06608e-18)
(0.977704 -0.34775 -3.46391e-18)
(0.923423 -0.375055 2.38321e-19)
(0.860544 -0.399866 -1.57593e-17)
(0.778834 -0.418023 -5.90487e-18)
(0.697106 -0.434135 4.31594e-17)
(0.582683 -0.425954 4.14806e-18)
(0.459161 -0.416152 -6.79826e-20)
(0.204833 -0.208836 7.74802e-18)
(1.18014 -0.0817708 -4.72951e-18)
(1.19647 -0.0743792 2.05201e-17)
(1.21146 -0.073369 3.13005e-18)
(1.23138 -0.0719333 -1.00092e-17)
(1.25323 -0.0729142 -1.42362e-17)
(1.27925 -0.0755576 -1.6735e-18)
(1.3094 -0.0799843 -7.82841e-18)
(1.34444 -0.0862171 -1.39164e-17)
(1.38325 -0.0938239 8.98524e-18)
(1.41994 -0.101608 -2.8216e-17)
(1.43637 -0.108645 -9.56985e-18)
(1.39552 -0.114654 3.41151e-17)
(1.24721 -0.128143 -8.86404e-17)
(0.958186 -0.162194 8.76348e-17)
(0.57221 -0.239198 -1.17912e-16)
(0.205253 -0.346693 -1.55498e-16)
(-0.0929249 -0.423195 -1.20044e-17)
(-0.284804 -0.411248 -1.74308e-16)
(-0.319533 -0.383018 -9.84689e-18)
(-0.183566 -0.177018 1.97081e-18)
(1.18233 -0.0879989 -8.21523e-18)
(1.19709 -0.0821396 1.52168e-19)
(1.211 -0.0817135 5.18638e-18)
(1.22905 -0.0817701 -1.11208e-17)
(1.24911 -0.0839808 1.10402e-17)
(1.27293 -0.0883721 -1.54869e-18)
(1.30062 -0.095056 2.69862e-17)
(1.33328 -0.104619 -1.84114e-17)
(1.37126 -0.11744 1.56476e-17)
(1.41289 -0.133234 1.61563e-17)
(1.44766 -0.150796 -2.4179e-17)
(1.44555 -0.165008 2.12409e-18)
(1.35106 -0.17429 -5.43106e-17)
(1.10534 -0.183977 2.44591e-17)
(0.712072 -0.223277 7.28958e-17)
(0.306854 -0.317548 -3.43906e-17)
(-0.00905236 -0.435805 -1.55427e-17)
(-0.231914 -0.444591 -1.24338e-16)
(-0.304778 -0.418316 -1.26964e-16)
(-0.199037 -0.180302 -6.52768e-18)
(1.18416 -0.093775 -8.41131e-18)
(1.19746 -0.0896039 1.05491e-17)
(1.21032 -0.0898684 7.55544e-18)
(1.22664 -0.0914281 -1.63512e-17)
(1.24493 -0.0949299 9.83585e-19)
(1.26653 -0.100893 -7.35312e-18)
(1.29148 -0.109152 -1.33954e-17)
(1.32052 -0.120202 1.64195e-17)
(1.35356 -0.134176 9.17278e-18)
(1.38899 -0.150876 -4.21372e-17)
(1.41945 -0.170311 -2.14674e-17)
(1.42453 -0.189123 -2.50326e-17)
(1.36279 -0.204942 -2.98425e-17)
(1.1746 -0.210802 2.16517e-17)
(0.820458 -0.219331 -6.91649e-17)
(0.391349 -0.257037 8.33723e-18)
(0.0662728 -0.381556 -5.53303e-19)
(-0.156131 -0.427127 -7.87864e-17)
(-0.218841 -0.390936 -6.35609e-17)
(-0.14227 -0.154663 2.10876e-17)
(1.18553 -0.0988742 -1.23268e-17)
(1.19731 -0.0963143 9.12407e-18)
(1.20896 -0.0971397 1.19479e-17)
(1.22351 -0.0998827 -1.96029e-17)
(1.23987 -0.104417 6.54188e-18)
(1.25924 -0.111676 -3.81376e-18)
(1.28162 -0.121547 -1.96691e-18)
(1.30803 -0.134887 1.78597e-18)
(1.33921 -0.152289 3.02267e-17)
(1.37586 -0.173835 -1.7346e-17)
(1.41476 -0.199215 -3.19992e-17)
(1.44081 -0.223069 -1.34888e-17)
(1.41698 -0.240302 -6.9421e-17)
(1.283 -0.23938 4.68261e-17)
(0.981321 -0.22628 -3.52488e-17)
(0.531746 -0.200412 5.43428e-18)
(0.136504 -0.255024 2.03007e-17)
(-0.0982579 -0.329438 -4.98204e-17)
(-0.170038 -0.303212 -6.36018e-18)
(-0.0864175 -0.107128 1.06717e-16)
(1.18646 -0.103414 1.16201e-17)
(1.19683 -0.102462 4.13845e-17)
(1.20719 -0.10387 -1.13115e-17)
(1.2201 -0.10767 3.49499e-18)
(1.23457 -0.113113 4.98864e-18)
(1.25167 -0.121339 -5.69469e-18)
(1.2712 -0.132025 -1.07139e-17)
(1.29374 -0.145915 -3.39304e-17)
(1.31934 -0.163491 -4.95624e-18)
(1.34831 -0.185243 2.15106e-17)
(1.38005 -0.212729 -3.40939e-17)
(1.40916 -0.243144 -4.73657e-18)
(1.41488 -0.27235 -3.04848e-17)
(1.34776 -0.281244 -3.44693e-17)
(1.13721 -0.26428 -5.48924e-17)
(0.735925 -0.202366 1.22103e-17)
(0.273856 -0.164368 4.66554e-17)
(-0.0461525 -0.191729 -4.34592e-17)
(-0.115555 -0.201235 -2.09878e-17)
(-0.0642265 -0.0798713 2.61111e-17)
(1.18688 -0.107317 -1.36306e-18)
(1.19591 -0.107861 1.53343e-17)
(1.20489 -0.109792 -6.10194e-18)
(1.21619 -0.114464 -8.4226e-18)
(1.22878 -0.120632 8.57155e-18)
(1.24371 -0.129707 -3.5335e-18)
(1.2608 -0.141364 -2.098e-18)
(1.28081 -0.156546 -2.47509e-17)
(1.30417 -0.175847 -1.78617e-19)
(1.33172 -0.199461 1.86254e-17)
(1.36335 -0.228688 -4.13434e-17)
(1.39582 -0.260955 -4.94855e-18)
(1.41662 -0.295776 9.95566e-18)
(1.39319 -0.316404 1.58397e-17)
(1.26729 -0.312559 1.12612e-17)
(0.96505 -0.249724 -7.93513e-18)
(0.497182 -0.147026 -1.29906e-16)
(0.0808594 -0.0810429 -6.9865e-17)
(-0.106309 -0.0755665 -1.3667e-16)
(-0.016379 -0.0194997 -7.61298e-18)
(1.18681 -0.110628 2.05964e-18)
(1.1946 -0.112573 3.54395e-17)
(1.20219 -0.115015 -1.00937e-17)
(1.21199 -0.120443 -7.36339e-18)
(1.22275 -0.127137 1.13162e-17)
(1.23556 -0.136692 -5.07017e-18)
(1.24995 -0.148564 -7.99351e-19)
(1.26637 -0.163635 -3.44077e-18)
(1.28469 -0.182521 -1.27381e-17)
(1.30544 -0.205696 2.55013e-19)
(1.3295 -0.235679 -2.56332e-18)
(1.35814 -0.270983 3.16423e-17)
(1.38778 -0.313707 -2.24467e-17)
(1.40038 -0.348727 -9.60555e-18)
(1.35073 -0.367201 -1.44767e-17)
(1.16575 -0.328064 -4.41595e-17)
(0.791253 -0.233942 -4.35022e-18)
(0.287279 -0.0765095 -8.01369e-17)
(-0.0268036 -0.065569 -3.58655e-17)
(-0.0915995 -0.0597079 -7.3129e-20)
(1.18619 -0.113322 -4.10902e-18)
(1.19289 -0.11654 1.28512e-17)
(1.19907 -0.119442 -1.20395e-17)
(1.20738 -0.125518 -1.32566e-17)
(1.21636 -0.132623 1.51034e-17)
(1.22718 -0.142632 -5.4039e-18)
(1.2394 -0.1549 -1.97226e-18)
(1.25357 -0.170374 -1.08784e-17)
(1.26971 -0.189602 -1.18227e-17)
(1.28813 -0.212482 8.64325e-18)
(1.3086 -0.241397 6.15265e-18)
(1.33156 -0.274717 3.63494e-17)
(1.35661 -0.318702 1.2315e-18)
(1.38082 -0.363014 1.67776e-18)
(1.38026 -0.406083 1.42636e-17)
(1.3034 -0.402699 -3.37585e-17)
(1.06331 -0.336764 -3.94927e-17)
(0.637978 -0.177105 -9.92188e-17)
(0.10311 0.0129652 3.04659e-18)
(0.0056449 0.0570026 2.70687e-17)
(1.18502 -0.115454 -4.60196e-18)
(1.19088 -0.119804 1.89923e-18)
(1.1957 -0.123067 -1.47456e-17)
(1.20263 -0.129682 -1.89177e-17)
(1.20985 -0.136992 -1.33211e-17)
(1.21861 -0.14714 -5.99098e-18)
(1.22827 -0.159238 2.06981e-18)
(1.23919 -0.174219 -5.45436e-18)
(1.25115 -0.192752 1.58939e-17)
(1.26454 -0.214716 -5.31853e-19)
(1.27947 -0.243128 -1.12101e-17)
(1.29713 -0.275283 2.18519e-19)
(1.31681 -0.319069 6.74039e-19)
(1.34102 -0.365625 -1.49421e-17)
(1.36039 -0.427325 2.96467e-17)
(1.35815 -0.466987 -1.76187e-17)
(1.2542 -0.475568 -1.58096e-17)
(0.9764 -0.370343 2.52612e-17)
(0.473434 -0.259727 -7.42085e-19)
(-0.0958235 -0.106902 3.51424e-17)
(1.18325 -0.117074 -6.83366e-18)
(1.18854 -0.122448 1.15666e-17)
(1.19227 -0.125921 -1.65157e-17)
(1.19815 -0.132977 -2.11145e-17)
(1.20405 -0.140344 -4.97838e-18)
(1.21134 -0.150577 -9.72028e-18)
(1.21931 -0.162574 1.74592e-18)
(1.22845 -0.177251 -1.52869e-17)
(1.23836 -0.195216 6.29642e-18)
(1.24932 -0.215716 1.17613e-17)
(1.26027 -0.24217 -8.21708e-18)
(1.27255 -0.270613 1.88914e-17)
(1.28335 -0.311173 8.31081e-18)
(1.29921 -0.352266 2.5884e-17)
(1.31052 -0.415443 3.64686e-17)
(1.33352 -0.467228 6.88838e-17)
(1.32232 -0.523889 2.25439e-17)
(1.27085 -0.487813 -1.72902e-17)
(0.895719 -0.278279 -1.43821e-17)
(0.530244 -0.00985834 1.05328e-16)
(1.12677 -0.104851 8.75529e-18)
(1.12186 -0.123166 -3.31923e-18)
(1.11637 -0.130839 -3.72344e-18)
(1.10912 -0.14666 1.0092e-18)
(1.10179 -0.159607 4.17815e-18)
(1.09254 -0.175722 1.60268e-17)
(1.08198 -0.192313 -3.06578e-18)
(1.06883 -0.210003 -3.22089e-18)
(1.05278 -0.228382 5.70466e-18)
(1.03266 -0.246702 1.8041e-18)
(1.0076 -0.26433 4.05666e-18)
(0.976211 -0.279916 3.87762e-18)
(0.936688 -0.291663 2.04725e-18)
(0.888079 -0.298101 2.32083e-18)
(0.830185 -0.297228 5.56943e-18)
(0.76405 -0.287133 -4.4844e-18)
(0.690566 -0.265065 -1.40383e-17)
(0.609419 -0.231002 4.3714e-19)
(0.538481 -0.173537 2.41992e-18)
(0.413219 -0.0876859 1.1161e-17)
(1.10111 -0.083032 -2.35075e-18)
(1.09577 -0.0973391 2.52383e-19)
(1.08928 -0.102079 -2.3269e-18)
(1.08154 -0.112677 -1.57584e-17)
(1.07286 -0.120239 -2.26749e-18)
(1.06304 -0.129524 -2.44192e-18)
(1.05176 -0.138448 4.9071e-19)
(1.03897 -0.147586 -2.71809e-19)
(1.02442 -0.156668 -2.94596e-18)
(1.00811 -0.165763 -2.01865e-18)
(0.990096 -0.174448 -2.24868e-18)
(0.970412 -0.182119 -1.72161e-18)
(0.949151 -0.187881 -1.19074e-18)
(0.925838 -0.190309 6.19337e-19)
(0.900067 -0.187705 2.11131e-18)
(0.871357 -0.178041 -9.14558e-20)
(0.841103 -0.160948 1.91466e-18)
(0.810062 -0.12957 -8.90063e-19)
(0.783473 -0.0933179 5.58484e-19)
(0.772674 -0.0356012 -1.93828e-18)
(1.07812 -0.0724324 1.04083e-18)
(1.07286 -0.0861594 1.37823e-19)
(1.0668 -0.0907638 1.4538e-18)
(1.05943 -0.10079 4.55165e-18)
(1.05135 -0.107583 2.27912e-18)
(1.0421 -0.115275 7.05972e-18)
(1.03154 -0.121937 5.83469e-20)
(1.01922 -0.127907 -1.06314e-18)
(1.00484 -0.132775 -2.15586e-18)
(0.987998 -0.136118 -2.33993e-18)
(0.968474 -0.137536 -2.09154e-18)
(0.9464 -0.136629 -1.10436e-18)
(0.922303 -0.133113 -2.71854e-18)
(0.89723 -0.126766 1.97187e-18)
(0.872376 -0.117297 1.40096e-17)
(0.849043 -0.104635 -5.19742e-18)
(0.827914 -0.0877451 -3.52001e-18)
(0.809295 -0.0676762 -5.31643e-18)
(0.794704 -0.0421382 4.2475e-18)
(0.779782 -0.0144575 3.83366e-17)
(1.0581 -0.0514582 3.71126e-19)
(1.05266 -0.0616085 1.72141e-19)
(1.04655 -0.0645402 -3.62163e-19)
(1.03917 -0.0713408 -1.23006e-18)
(1.03126 -0.0755531 -9.75007e-19)
(1.02281 -0.0804635 -1.4628e-18)
(1.01407 -0.0845328 3.84404e-19)
(1.00531 -0.0880913 -1.71488e-18)
(0.996833 -0.0909302 -5.30413e-18)
(0.988917 -0.0928657 -7.11049e-18)
(0.981645 -0.0936562 -7.59736e-18)
(0.974816 -0.0930118 -2.01346e-18)
(0.96797 -0.0905849 -1.18826e-17)
(0.960576 -0.0860421 -3.69467e-18)
(0.95235 -0.0791643 -1.97557e-17)
(0.943428 -0.0697176 -1.91135e-17)
(0.934524 -0.0580337 -3.66091e-18)
(0.927006 -0.0436687 -2.25399e-17)
(0.92195 -0.0278754 -6.54251e-18)
(0.921259 -0.00978054 -2.88964e-17)
(1.04486 -0.0427391 1.67063e-18)
(1.04113 -0.0506598 5.53186e-19)
(1.03708 -0.0525763 1.16946e-18)
(1.03208 -0.0573343 1.0597e-18)
(1.02666 -0.0596584 8.29631e-19)
(1.02053 -0.0621356 1.61244e-18)
(1.01359 -0.0635962 1.14018e-19)
(1.00561 -0.0643273 1.24239e-18)
(0.996393 -0.0642518 -1.38282e-18)
(0.985814 -0.0633575 1.70811e-18)
(0.973952 -0.0616637 5.1791e-18)
(0.961172 -0.0591813 3.51126e-18)
(0.948115 -0.0558977 7.89479e-18)
(0.935542 -0.0517505 7.24344e-18)
(0.924127 -0.0466056 2.46478e-17)
(0.9143 -0.0403986 1.30716e-17)
(0.906178 -0.0329188 5.56776e-18)
(0.899514 -0.0244265 1.24551e-17)
(0.894327 -0.0148375 9.04038e-18)
(0.890526 -0.00490845 3.28876e-17)
(1.03184 -0.0297882 4.77725e-18)
(1.02823 -0.0362181 8.3483e-19)
(1.02426 -0.0381392 2.79824e-18)
(1.01947 -0.0424783 1.98353e-18)
(1.01451 -0.0451369 5.59385e-19)
(1.00935 -0.0481315 -6.21908e-19)
(1.00422 -0.0505314 -1.04993e-18)