/*--------------------------------*- C++ -*----------------------------------*\
  =========                 |
  \\      /  F ield         | OpenFOAM: The Open Source CFD Toolbox
   \\    /   O peration     | Website:  https://openfoam.org
    \\  /    A nd           | Version:  7
     \\/     M anipulation  |
\*---------------------------------------------------------------------------*/
FoamFile
{
    version     2.0;
    format      ascii;
    class       surfaceScalarField;
    location    "20";
    object      phi;
}
// * * * * * * * * * * * * * * * * * * * * * * * * * * * * * * * * * * * * * //

dimensions      [0 3 -1 0 0 0 0];

internalField   nonuniform List<scalar> 
131
(
-0.000226541
-0.0177458
-8.66578e-05
-0.0178041
5.42267e-05
-0.0178488
0.000193705
-0.0179703
0.000334663
-0.0181608
-0.0184465
-0.000228272
-0.0178864
-9.21332e-05
-0.0179402
4.4343e-05
-0.0179853
0.000177779
-0.0181038
0.000310454
-0.0182935
-0.0185788
-0.000229567
-0.0180242
-9.69779e-05
-0.0180728
3.54421e-05
-0.0181177
0.000163306
-0.0182316
0.000288393
-0.0184185
-0.0186999
-0.000230832
-0.0181592
-0.000101989
-0.0182016
2.61933e-05
-0.0182459
0.000148125
-0.0183536
0.000265271
-0.0185357
-0.0188093
-0.000231868
-0.0182914
-0.00010677
-0.0183267
1.72249e-05
-0.0183699
0.000133238
-0.0184696
0.000242621
-0.0186451
-0.0189076
-0.000232679
-0.0184207
-0.000111313
-0.0184481
8.56323e-06
-0.0184898
0.000118664
-0.0185797
0.000220488
-0.0187469
-0.0189955
-0.000233246
-0.0185472
-0.000115563
-0.0185658
5.90141e-07
-0.0186059
0.000104824
-0.0186839
0.000199658
-0.0188417
-0.0190737
-0.000233705
-0.0186709
-0.00011981
-0.0186797
-7.92944e-06
-0.0187178
9.13628e-05
-0.0187832
0.000179803
-0.0189302
-0.0191436
-0.000234256
-0.0187914
-0.000124657
-0.0187893
-1.68022e-05
-0.0188256
7.70444e-05
-0.0188771
0.000159043
-0.0190122
-0.0192063
-0.000235968
-0.0189056
-0.000130821
-0.0188944
-2.69337e-05
-0.0189295
6.05727e-05
-0.0189646
0.00013495
-0.0190865
0.0174169
-0.00367451
0.0177251
-0.00190262
-0.00630955
0.0173168
-0.00416818
0.0175585
-0.00214426
-0.00764549
0.0171979
-0.00462007
0.017407
-0.00235338
-0.00916805
0.0170449
-0.00500775
0.0172033
-0.00251183
-0.0109293
0.0168529
0.0169867
)
;

boundaryField
{
    inlet
    {
        type            calculated;
        value           nonuniform 0();
    }
    outlet
    {
        type            calculated;
        value           nonuniform 0();
    }
    polygon
    {
        type            calculated;
        value           nonuniform 0();
    }
    top
    {
        type            symmetryPlane;
        value           uniform 0;
    }
    bottom
    {
        type            symmetryPlane;
        value           uniform 0;
    }
    outside
    {
        type            calculated;
        value           nonuniform List<scalar> 
13
(
0.000369775
0.000368844
0.000367423
0.000365847
0.000364029
0.000362008
0.00035978
0.00035737
0.000354728
0.000350212
0.00315715
0.00159437
0.00512906
)
;
    }
    procBoundary1to0
    {
        type            processor;
        value           nonuniform List<scalar> 5(-0.0168995 -0.0168232 -0.016746 -0.0166572 -0.0165766);
    }
    procBoundary1to2
    {
        type            processor;
        value           nonuniform List<scalar> 6(0.0176025 0.0176642 0.0177079 0.0178309 0.0180198 0.0183012);
    }
    procBoundary1to5
    {
        type            processor;
        value           nonuniform List<scalar> 
14
(
0.000479983
0.000442801
0.000409448
0.000374652
0.000341004
0.000308325
0.000277854
0.000249703
0.00022172
0.000189596
-0.0192609
-0.00528415
-0.00264562
-0.0130291
)
;
    }
}


// ************************************************************************* //
