/*--------------------------------*- C++ -*----------------------------------*\
  =========                 |
  \\      /  F ield         | OpenFOAM: The Open Source CFD Toolbox
   \\    /   O peration     | Website:  https://openfoam.org
    \\  /    A nd           | Version:  7
     \\/     M anipulation  |
\*---------------------------------------------------------------------------*/
FoamFile
{
    version     2.0;
    format      ascii;
    class       volScalarField;
    location    "10";
    object      p;
}
// * * * * * * * * * * * * * * * * * * * * * * * * * * * * * * * * * * * * * //

dimensions      [0 2 -2 0 0 0 0];

internalField   nonuniform List<scalar> 
50
(
-0.0705389
-0.0204832
0.0320879
0.141667
0.220538
0.434765
-0.0884708
-0.0423786
-0.00229866
0.0999885
0.148214
0.36371
-0.0716886
-0.0449948
0.0503335
0.0877613
0.31089
-0.0985335
-0.082965
0.00273197
0.0215151
0.249038
-0.123687
-0.11967
-0.04789
-0.0506861
0.171652
-0.14781
-0.156557
-0.0981179
-0.125612
0.0920282
-0.170618
-0.191785
-0.147837
-0.202459
-0.0252838
-0.190988
-0.222527
-0.191323
-0.277061
-0.123467
-0.246913
-0.23436
-0.34
-0.354673
-0.265831
-0.260878
-0.347949
-0.482461
)
;

boundaryField
{
    inlet
    {
        type            zeroGradient;
    }
    outlet
    {
        type            fixedValue;
        value           nonuniform 0();
    }
    polygon
    {
        type            zeroGradient;
    }
    top
    {
        type            symmetryPlane;
    }
    bottom
    {
        type            symmetryPlane;
    }
    outside
    {
        type            slip;
    }
    procBoundary9to8
    {
        type            processor;
        value           nonuniform List<scalar> 5(0.0217168 0.0680782 0.131475 0.207195 0.297143);
    }
    procBoundary9to10
    {
        type            processor;
        value           nonuniform List<scalar> 4(-0.274178 -0.291909 -0.333904 -0.910796);
    }
    procBoundary9to12
    {
        type            processor;
        value           uniform -0.0138722;
    }
    procBoundary9to13
    {
        type            processor;
        value           nonuniform List<scalar> 
12
(
-0.0938722
-0.107379
-0.110395
-0.110395
-0.130451
-0.148955
-0.1669
-0.184188
-0.200211
-0.209177
-0.209177
-0.223923
)
;
    }
}


// ************************************************************************* //
