/*--------------------------------*- C++ -*----------------------------------*\
  =========                 |
  \\      /  F ield         | OpenFOAM: The Open Source CFD Toolbox
   \\    /   O peration     | Website:  https://openfoam.org
    \\  /    A nd           | Version:  7
     \\/     M anipulation  |
\*---------------------------------------------------------------------------*/
FoamFile
{
    version     2.0;
    format      ascii;
    class       volVectorField;
    location    "10";
    object      U;
}
// * * * * * * * * * * * * * * * * * * * * * * * * * * * * * * * * * * * * * //

dimensions      [0 1 -1 0 0 0 0];

internalField   nonuniform List<vector> 
50
(
(1.06299 0.242866 -1.37969e-19)
(1.00723 0.282607 -6.66493e-18)
(0.93816 0.331742 2.19493e-18)
(0.813616 0.373458 8.1485e-18)
(0.682168 0.441117 2.04787e-17)
(0.363955 0.306648 3.10551e-18)
(1.07859 0.249251 -1.0104e-18)
(1.02774 0.291297 1.35423e-18)
(0.968203 0.347925 -1.2039e-18)
(0.855966 0.393382 6.76361e-18)
(0.739268 0.48206 1.52305e-17)
(0.42536 0.340395 4.37872e-18)
(1.05344 0.297112 -4.27966e-18)
(1.0032 0.360761 6.55547e-18)
(0.902399 0.410643 6.04927e-18)
(0.783081 0.51908 1.37152e-17)
(0.455021 0.370094 1.01599e-18)
(1.07742 0.30015 7.85909e-18)
(1.0341 0.370302 -1.30832e-17)
(0.949016 0.422441 3.71219e-18)
(0.832449 0.554393 3.78771e-18)
(0.50166 0.397452 1.65548e-18)
(1.1001 0.301268 5.81136e-18)
(1.06505 0.376376 1.10345e-17)
(0.997575 0.430011 2.40497e-18)
(0.887612 0.57785 1.57667e-17)
(0.544193 0.416675 2.09326e-18)
(1.12285 0.298677 5.32402e-18)
(1.09616 0.377645 -8.68346e-18)
(1.04913 0.428026 3.48398e-18)
(0.947197 0.605793 -9.55302e-19)
(0.627284 0.440606 2.69116e-18)
(1.14382 0.295585 5.99084e-18)
(1.12685 0.376548 -7.29532e-18)
(1.09678 0.425381 -3.81625e-18)
(1.00898 0.604833 -4.91711e-18)
(0.662636 0.436616 -4.17466e-18)
(1.16477 0.286183 2.89217e-18)
(1.15249 0.368324 -5.06018e-18)
(1.14722 0.404969 7.62616e-18)
(1.08391 0.625696 5.63002e-18)
(0.841141 0.467103 1.66946e-17)
(1.17534 0.36372 -5.18549e-18)
(1.18724 0.395065 -1.98748e-17)
(1.128 0.578794 -1.08781e-17)
(0.855124 0.40939 -3.7113e-17)
(1.19126 0.342653 3.73462e-18)
(1.22998 0.352919 -1.72156e-17)
(1.21069 0.584662 1.43812e-17)
(1.22034 0.445911 -2.58474e-17)
)
;

boundaryField
{
    inlet
    {
        type            uniformFixedValue;
        uniformValue    constant (1 0 0);
        value           nonuniform 0();
    }
    outlet
    {
        type            pressureInletOutletVelocity;
        value           nonuniform 0();
    }
    polygon
    {
        type            fixedValue;
        value           uniform (0 0 0);
    }
    top
    {
        type            symmetryPlane;
    }
    bottom
    {
        type            symmetryPlane;
    }
    outside
    {
        type            zeroGradient;
    }
    procBoundary9to8
    {
        type            processor;
        value           nonuniform List<vector> 5((0.970501 0.221043 5.83223e-18) (0.915511 0.221669 1.57356e-18) (0.831935 0.214955 1.43721e-17) (0.748096 0.166245 6.11746e-17) (0.575904 0.10146 4.81935e-19));
    }
    procBoundary9to10
    {
        type            processor;
        value           nonuniform List<vector> 4((1.20102 0.347974 2.08494e-17) (1.23927 0.365116 -2.08701e-17) (1.12974 0.433805 6.39505e-18) (1.09755 0.278998 5.2859e-17));
    }
    procBoundary9to12
    {
        type            processor;
        value           uniform (1.01471 0.201226 7.04555e-18);
    }
    procBoundary9to13
    {
        type            processor;
        value           nonuniform List<vector> 
12
(
(1.09291 0.212299 -2.79427e-17)
(1.10481 0.216474 -2.1301e-17)
(1.09673 0.253941 -1.82655e-18)
(1.09673 0.253941 -1.82655e-18)
(1.1133 0.25701 -2.15482e-18)
(1.12886 0.258813 -1.39509e-18)
(1.14408 0.258881 -8.86231e-19)
(1.15885 0.258373 -8.00357e-19)
(1.17244 0.255374 -7.33823e-19)
(1.18103 0.2829 4.47155e-18)
(1.18103 0.2829 4.47155e-18)
(1.19964 0.263904 2.39383e-19)
)
;
    }
}


// ************************************************************************* //
