/*--------------------------------*- C++ -*----------------------------------*\
  =========                 |
  \\      /  F ield         | OpenFOAM: The Open Source CFD Toolbox
   \\    /   O peration     | Website:  https://openfoam.org
    \\  /    A nd           | Version:  7
     \\/     M anipulation  |
\*---------------------------------------------------------------------------*/
FoamFile
{
    version     2.0;
    format      ascii;
    class       surfaceScalarField;
    location    "50";
    object      phi;
}
// * * * * * * * * * * * * * * * * * * * * * * * * * * * * * * * * * * * * * //

dimensions      [0 3 -1 0 0 0 0];

internalField   nonuniform List<scalar> 
322
(
0.000281437
-9.60615e-05
0.000416725
-0.000135272
0.000550606
-0.000133872
0.000672028
-0.000121412
0.000776836
-0.000104798
0.000864695
-8.78489e-05
0.000938186
-7.34784e-05
0.000999075
-6.08752e-05
0.00104952
-5.04273e-05
0.00109102
-4.14905e-05
0.00112491
-3.38689e-05
0.00115216
-2.72249e-05
0.00117354
-2.13585e-05
0.00118965
-1.6086e-05
0.00120096
-1.12807e-05
0.00120783
-6.84417e-06
-2.7084e-06
0.000186092
-9.91065e-05
0.0002826
-0.00019257
0.000417625
-0.000270297
0.00055091
-0.000267157
0.000671649
-0.000242151
0.000775878
-0.000209027
0.000863291
-0.000175263
0.000936468
-0.000146655
0.000997145
-0.000121553
0.00104745
-0.000100735
0.00108888
-8.29172e-05
0.00112272
-6.7713e-05
0.00114995
-5.4452e-05
0.00117133
-4.27381e-05
0.00118745
-3.22061e-05
0.00119877
-2.26045e-05
0.00120567
-1.37376e-05
-5.46954e-06
0.000187469
-0.00015
0.000284781
-0.000289882
0.000419217
-0.000404732
0.000551285
-0.000399226
0.00067066
-0.000361525
0.000773745
-0.000312112
0.000860286
-0.000261804
0.000932855
-0.000219223
0.000993128
-0.000181826
0.00104318
-0.000150791
0.00108447
-0.0001242
0.00111824
-0.000101487
0.00114545
-8.16598e-05
0.00116684
-6.41321e-05
0.001183
-4.83631e-05
0.00119438
-3.39804e-05
0.00120133
-2.06931e-05
-8.29909e-06
0.000189391
-0.000202456
0.00028785
-0.00038834
0.00042136
-0.000538242
0.000551616
-0.000529482
0.000668982
-0.000478892
0.000770399
-0.000413529
0.000855671
-0.000347076
0.000927359
-0.000290911
0.00098705
-0.000241517
0.00103675
-0.000200487
0.00107782
-0.000165279
0.0011115
-0.000135167
0.00113869
-0.000108847
0.00116011
-8.55555e-05
0.00117633
-6.45834e-05
0.0011878
-4.54423e-05
0.00119485
-2.77499e-05
-1.12406e-05
0.000191715
-0.000256966
0.000291621
-0.000488246
0.000423855
-0.000670476
0.00055174
-0.000657367
0.000666511
-0.000593662
0.000765787
-0.000512806
0.000849437
-0.000430726
0.000919999
-0.000361473
0.000978947
-0.000300465
0.00102818
-0.000249724
0.00106901
-0.0002061
0.00110257
-0.000168728
0.00112973
-0.000136012
0.0011512
-0.000107022
0.0011675
-8.08905e-05
0.00117908
-5.70214e-05
0.00118628
-3.49447e-05
-1.43345e-05
0.000194266
-0.000313999
0.00029587
-0.000589849
0.000426461
-0.000801068
0.000551463
-0.000782369
0.00066312
-0.000705319
0.00075985
-0.000609536
0.000841573
-0.000512449
0.000910803
-0.000430704
0.00096887
-0.000358531
0.00101756
-0.000298416
0.00105808
-0.000246616
0.0010915
-0.00020215
0.00111864
-0.000163151
0.00114016
-0.000128541
0.00115657
-9.73049e-05
0.0011683
-6.87452e-05
0.00117566
-4.231e-05
-1.76178e-05
0.000196853
-0.000373997
0.000300344
-0.000693341
0.00042891
-0.000929633
0.000550572
-0.000904031
0.000658674
-0.000813421
0.000752526
-0.000703388
0.000832077
-0.000592
0.000899806
-0.000498433
0.000956879
-0.000415604
0.00100496
-0.000346493
0.00104512
-0.000286784
0.00107839
-0.000235413
0.0011055
-0.000190262
0.00112708
-0.000150122
0.00114362
-0.000113843
0.00115551
-8.06367e-05
0.00116307
-4.98742e-05
-2.11226e-05
0.00019928
-0.00043736
0.000304778
-0.000798839
0.000430921
-0.00105578
0.000548849
-0.00102196
0.00065304
-0.000917612
0.000743762
-0.00079411
0.000820955
-0.000669193
0.000887055
-0.000564533
0.000943047
-0.000471595
0.00099045
-0.000393897
0.00103024
-0.000326571
0.00106332
-0.000268499
0.0010904
-0.000217339
0.00111205
-0.000171769
0.00112872
-0.000130518
0.0011408
-9.27144e-05
0.00114858
-5.76604e-05
-2.48762e-05
0.000201363
-0.000504442
0.000308905
-0.000906381
0.000432219
-0.00117909
0.000546085
-0.00113583
0.000646097
-0.00101762
0.000733515
-0.000881529
0.000808224
-0.000743902
0.000872608
-0.000628916
0.000927455
-0.000526443
0.000974142
-0.000440584
0.00101352
-0.000365946
0.00104641
-0.000301391
0.00107345
-0.000244374
0.00109516
-0.000193482
0.00111198
0.00112425
0.00113228
0.00020288
0.000312536
0.000432481
0.000542136
0.000637708
0.000721776
0.000793904
0.000856535
0.000910193
0.000956137
0.000995077
0.00102776
0.00105475
)
;

boundaryField
{
    inlet
    {
        type            calculated;
        value           nonuniform 0();
    }
    outlet
    {
        type            calculated;
        value           nonuniform List<scalar> 9(-0.000136256 -0.000136576 -0.000136935 -0.000137206 -0.000137233 -0.000136855 -0.000135916 -0.000134281 -0.000131846);
    }
    polygon
    {
        type            calculated;
        value           nonuniform 0();
    }
    top
    {
        type            symmetryPlane;
        value           uniform 0;
    }
    bottom
    {
        type            symmetryPlane;
        value           uniform 0;
    }
    outside
    {
        type            calculated;
        value           nonuniform 0();
    }
    procBoundary31to23
    {
        type            processor;
        value           nonuniform List<scalar> 
19
(
-0.000575477
-0.00101604
-0.00129903
-0.00124548
-0.0011132
-0.000965596
-0.00081603
-0.000691548
-0.000580101
-0.000486527
-0.000404887
-0.000334073
-0.000271359
-0.000215259
-0.000147336
-0.000104991
-6.56862e-05
-2.89003e-05
0.00107652
)
;
    }
    procBoundary31to30
    {
        type            processor;
        value           nonuniform List<scalar> 9(0.00121057 0.00120843 0.00120416 0.00119779 0.00118937 0.00117895 0.00116658 0.00115234 0.0011363);
    }
    procBoundary31to39
    {
        type            processor;
        value           nonuniform List<scalar> 
19
(
-1.05884e-08
-1.54282e-08
-9.61091e-09
-9.36565e-09
-9.43388e-09
-1.07348e-08
-1.21465e-08
-1.36364e-08
-1.51394e-08
-1.6769e-08
-1.85772e-08
-2.05478e-08
-2.26402e-08
-2.47129e-08
-2.67688e-08
-2.852e-08
-3.01659e-08
-0.000185365
4.92709e-05
)
;
    }
}


// ************************************************************************* //
