/*--------------------------------*- C++ -*----------------------------------*\
  =========                 |
  \\      /  F ield         | OpenFOAM: The Open Source CFD Toolbox
   \\    /   O peration     | Website:  https://openfoam.org
    \\  /    A nd           | Version:  7
     \\/     M anipulation  |
\*---------------------------------------------------------------------------*/
FoamFile
{
    version     2.0;
    format      ascii;
    class       volVectorField;
    location    "5";
    object      U;
}
// * * * * * * * * * * * * * * * * * * * * * * * * * * * * * * * * * * * * * //

dimensions      [0 1 -1 0 0 0 0];

internalField   nonuniform List<vector> 
50
(
(1.22954 0.0973228 -9.30395e-18)
(1.2535 0.0779928 -6.0049e-18)
(1.27044 0.0723439 -4.46783e-18)
(1.28772 0.0556911 8.46323e-19)
(1.28196 0.0510769 5.29126e-18)
(1.06207 -0.0320561 -1.27387e-19)
(1.07115 -0.0721887 -1.64281e-18)
(1.07854 -0.0851304 -2.18421e-18)
(1.0871 -0.121749 1.47492e-18)
(1.08186 -0.144145 -7.62823e-17)
(0.974848 -0.0407996 -3.47376e-18)
(0.969615 -0.0507463 3.00547e-18)
(0.96575 -0.0530648 -3.3606e-18)
(0.959051 -0.063227 3.11029e-18)
(0.943657 -0.0683172 1.63485e-17)
(0.98815 -0.055336 3.82207e-17)
(0.985904 -0.0622053 -3.24065e-17)
(0.983891 -0.0641483 3.23889e-17)
(0.980918 -0.0693246 -3.41177e-17)
(0.97453 -0.0719584 3.82439e-19)
(0.946802 -0.0403759 1.86314e-18)
(0.944059 -0.0413908 -1.31261e-18)
(0.940697 -0.0411009 1.31256e-18)
(0.936321 -0.0418576 -2.17671e-18)
(0.930117 -0.0417769 -1.61511e-17)
(0.967709 -0.0256128 1.93533e-17)
(0.966111 -0.0263221 -1.65545e-17)
(0.96391 -0.026258 1.675e-17)
(0.961162 -0.0264522 -1.71464e-17)
(0.957678 -0.0261196 1.80268e-17)
(0.954493 -0.0134648 1.35349e-17)
(0.95341 -0.0136863 -1.14009e-17)
(0.95188 -0.0135506 1.11251e-17)
(0.950037 -0.0134479 -1.21894e-17)
(0.947912 -0.0130533 6.82045e-19)
(0.958442 -0.00642566 2.26997e-18)
(0.957869 -0.00659117 -6.21257e-19)
(0.957058 -0.00651833 1.68436e-18)
(0.956111 -0.00643176 -5.83174e-19)
(0.955085 -0.00616809 9.9114e-18)
(0.957294 -0.0029126 -5.67138e-18)
(0.95699 -0.00300317 -6.52951e-19)
(0.95657 -0.00296414 -5.24372e-18)
(0.95609 -0.00290781 -6.36217e-19)
(0.955594 -0.00275199 -4.94102e-18)
(0.956948 -0.000966997 -5.97343e-19)
(0.95683 -0.00100133 -1.04004e-19)
(0.956675 -0.000986379 -5.1451e-19)
(0.956501 -0.000963525 -1.7959e-20)
(0.956328 -0.000903107 1.1061e-18)
)
;

boundaryField
{
    inlet
    {
        type            uniformFixedValue;
        uniformValue    constant (1 0 0);
        value           nonuniform 0();
    }
    outlet
    {
        type            pressureInletOutletVelocity;
        value           nonuniform List<vector> 5((0.956948 -0.000966997 -5.97343e-19) (0.95683 -0.00100133 -1.04004e-19) (0.956675 -0.000986379 -5.1451e-19) (0.956501 -0.000963525 -1.7959e-20) (0.956328 -0.000903107 1.1061e-18));
    }
    polygon
    {
        type            fixedValue;
        value           nonuniform 0();
    }
    top
    {
        type            symmetryPlane;
    }
    bottom
    {
        type            symmetryPlane;
    }
    outside
    {
        type            zeroGradient;
    }
    procBoundary15to10
    {
        type            processor;
        value           uniform (1.26225 0.145558 -6.48299e-18);
    }
    procBoundary15to11
    {
        type            processor;
        value           nonuniform List<vector> 10((1.20089 0.0217252 -6.08512e-18) (1.054 -0.179181 -1.11611e-17) (0.912889 -0.0780897 -2.66136e-18) (0.960844 -0.0752802 3.69246e-17) (0.919876 -0.0418277 3.75918e-19) (0.952499 -0.0255476 1.90328e-17) (0.945181 -0.012471 1.21099e-17) (0.953894 -0.00578108 2.43905e-18) (0.955066 -0.00253075 -5.44792e-18) (0.956154 -0.000819452 -4.35401e-19));
    }
    procBoundary15to14
    {
        type            processor;
        value           nonuniform List<vector> 4((1.20985 0.114862 -4.43531e-17) (1.22022 0.127001 -2.04949e-17) (1.23028 0.132596 -1.08914e-17) (1.24764 0.142479 5.8942e-18));
    }
}


// ************************************************************************* //
