/*--------------------------------*- C++ -*----------------------------------*\
  =========                 |
  \\      /  F ield         | OpenFOAM: The Open Source CFD Toolbox
   \\    /   O peration     | Website:  https://openfoam.org
    \\  /    A nd           | Version:  7
     \\/     M anipulation  |
\*---------------------------------------------------------------------------*/
FoamFile
{
    version     2.0;
    format      ascii;
    class       volScalarField;
    location    "4";
    object      p;
}
// * * * * * * * * * * * * * * * * * * * * * * * * * * * * * * * * * * * * * //

dimensions      [0 2 -2 0 0 0 0];

internalField   nonuniform List<scalar> 
175
(
-0.00313331
-0.00324508
-0.00335802
-0.0034722
-0.00358771
-0.0017575
-0.00186004
-0.00196297
-0.00206632
-0.00217013
-0.00227443
-0.00237927
-0.00248469
-0.00259072
-0.00269742
-0.00280483
-0.002913
-0.00302197
-0.00313178
-0.00324249
-0.00335414
-0.00346676
-0.0035804
-0.0017592
-0.00186178
-0.00196472
-0.00206806
-0.00217182
-0.00227604
-0.00238075
-0.00248597
-0.00259175
-0.0026981
-0.00280506
-0.00291266
-0.00302092
-0.00312986
-0.0032395
-0.00334986
-0.00346092
-0.0035727
-0.00176073
-0.00186333
-0.00196628
-0.00206959
-0.0021733
-0.00227742
-0.00238198
-0.002487
-0.0025925
-0.0026985
-0.002805
-0.00291203
-0.00301958
-0.00312765
-0.00323623
-0.00334531
-0.00345484
-0.00356479
-0.00176211
-0.00186472
-0.00196766
-0.00207093
-0.00217457
-0.00227859
-0.002383
-0.00248781
-0.00259303
-0.00269866
-0.00280471
-0.00291117
-0.00301802
-0.00312524
-0.00323278
-0.00334061
-0.00344866
-0.00355683
-0.00176333
-0.00186595
-0.00196887
-0.0020721
-0.00217567
-0.00227957
-0.00238382
-0.00248842
-0.00259336
-0.00269864
-0.00280425
-0.00291015
-0.00301633
-0.00312272
-0.00322927
-0.0033359
-0.00344252
-0.003549
-0.00176442
-0.00186703
-0.00196993
-0.00207311
-0.0021766
-0.00228039
-0.00238449
-0.00248888
-0.00259355
-0.00269849
-0.00280367
-0.00290905
-0.00301457
-0.00312018
-0.00322579
-0.00333129
-0.00343656
-0.00354145
-0.00176537
-0.00186798
-0.00197085
-0.00207399
-0.0021774
-0.00228108
-0.00238502
-0.00248921
-0.00259362
-0.00269824
-0.00280301
-0.00290789
-0.00301281
-0.00311768
-0.00322241
-0.00332686
-0.00343089
-0.0035343
-0.00176617
-0.00186876
-0.0019716
-0.00207469
-0.00217802
-0.0022816
-0.00238539
-0.0024894
-0.00259357
-0.00269789
-0.0028023
-0.00290672
-0.00301109
-0.0031153
-0.00321924
-0.00332274
-0.00342564
-0.00352772
-0.00176682
-0.00186941
-0.00197223
-0.00207527
-0.00217854
-0.00228202
-0.0023857
-0.00248954
-0.00259351
-0.00269757
-0.00280165
-0.00290567
-0.00300955
-0.00311316
-0.00321638
-0.00331903
-0.00342091
-0.00352179
-0.0017675
-0.00187007
-0.00197286
-0.00207586
-0.00217906
-0.00228244
-0.00238599
-0.00248967
)
;

boundaryField
{
    inlet
    {
        type            zeroGradient;
    }
    outlet
    {
        type            fixedValue;
        value           nonuniform 0();
    }
    polygon
    {
        type            zeroGradient;
    }
    top
    {
        type            symmetryPlane;
    }
    bottom
    {
        type            symmetryPlane;
    }
    outside
    {
        type            slip;
    }
    procBoundary54to46
    {
        type            processor;
        value           nonuniform List<scalar> 
19
(
-0.0017679
-0.0018705
-0.00197332
-0.00207635
-0.00217958
-0.00228299
-0.00238656
-0.00249026
-0.00259343
-0.00269723
-0.00280099
-0.00290464
-0.00300805
-0.00311111
-0.00321367
-0.00331552
-0.00341647
-0.00351623
-0.00259343
)
;
    }
    procBoundary54to53
    {
        type            processor;
        value           nonuniform List<scalar> 8(-0.00368517 -0.00367508 -0.00366503 -0.00365521 -0.00364577 -0.00363689 -0.00362874 -0.0036214);
    }
    procBoundary54to55
    {
        type            processor;
        value           nonuniform List<scalar> 10(-0.00165532 -0.00165697 -0.00165846 -0.0016598 -0.001661 -0.00166207 -0.00166302 -0.00166382 -0.00166447 -0.00166514);
    }
    procBoundary54to61
    {
        type            processor;
        value           nonuniform List<scalar> 2(-0.00370464 -0.00369509);
    }
    procBoundary54to62
    {
        type            processor;
        value           nonuniform List<scalar> 
19
(
-0.00313435
-0.00324716
-0.00336136
-0.00347708
-0.00359445
-0.00175563
-0.00185811
-0.00196101
-0.00206435
-0.00216819
-0.00227256
-0.00237751
-0.0024831
-0.00258938
-0.00269641
-0.00280426
-0.00291297
-0.00302264
-0.00302264
)
;
    }
}


// ************************************************************************* //
