/*--------------------------------*- C++ -*----------------------------------*\
  =========                 |
  \\      /  F ield         | OpenFOAM: The Open Source CFD Toolbox
   \\    /   O peration     | Website:  https://openfoam.org
    \\  /    A nd           | Version:  7
     \\/     M anipulation  |
\*---------------------------------------------------------------------------*/
FoamFile
{
    version     2.0;
    format      ascii;
    class       volScalarField;
    location    "100";
    object      p;
}
// * * * * * * * * * * * * * * * * * * * * * * * * * * * * * * * * * * * * * //

dimensions      [0 2 -2 0 0 0 0];

internalField   nonuniform List<scalar> 
8000
(
-0.000630297
-0.00215248
-0.00366187
-0.005297
-0.00695692
-0.00860741
-0.0102225
-0.0117794
-0.013262
-0.0146592
-0.0159612
-0.017167
-0.0182724
-0.0192777
-0.0201843
-0.0209951
-0.0217141
-0.0223459
-0.022896
-0.0233703
-0.0237751
-0.0241168
-0.0244024
-0.0246386
-0.0248325
-0.024991
-0.0251211
-0.0252294
-0.0253225
-0.0254066
-0.0254875
-0.0255706
-0.0256608
-0.0257627
-0.0258801
-0.0260164
-0.0261748
-0.0263577
-0.0265672
-0.0268051
-0.0270726
-0.027371
-0.027701
-0.0280632
-0.0284581
-0.0288857
-0.0293462
-0.0298397
-0.030366
-0.030925
-0.0315166
-0.0321405
-0.0327968
-0.0334857
-0.0342076
-0.0349639
-0.0357554
-0.036581
-0.0374393
-0.0383296
-0.0392514
-0.0402046
-0.0411892
-0.0422053
-0.0432526
-0.0443313
-0.0454414
-0.0465825
-0.0477546
-0.048957
-0.0501889
-0.05145
-0.0527392
-0.0540554
-0.0553969
-0.0567619
-0.058148
-0.0595523
-0.0609715
-0.0624012
-0.0638366
-0.0652714
-0.0666986
-0.0681095
-0.0694938
-0.0708393
-0.0721314
-0.0733532
-0.0744847
-0.0755013
-0.0763825
-0.0770876
-0.0776273
-0.0778773
-0.0781357
-0.0776344
-0.0788368
-0.0767656
-0.084288
-0.0806723
-0.000662125
-0.00217213
-0.00368107
-0.00529947
-0.00694046
-0.00857413
-0.0101746
-0.0117196
-0.0131928
-0.0145828
-0.0158805
-0.017085
-0.0181897
-0.0191956
-0.0201037
-0.0209169
-0.0216388
-0.0222741
-0.0228281
-0.0233066
-0.0237158
-0.0240623
-0.0243526
-0.0245936
-0.0247924
-0.0249557
-0.0250905
-0.0252033
-0.0253007
-0.0253887
-0.0254733
-0.0255597
-0.0256528
-0.0257571
-0.0258765
-0.0260144
-0.0261739
-0.0263574
-0.0265672
-0.0268048
-0.0270719
-0.0273694
-0.0276981
-0.0280588
-0.0284518
-0.0288773
-0.0293356
-0.0298265
-0.0303501
-0.0309062
-0.0314946
-0.0321152
-0.0327679
-0.0334529
-0.0341708
-0.0349232
-0.0357115
-0.036534
-0.0373891
-0.0382759
-0.039194
-0.0401434
-0.0411237
-0.0421354
-0.043179
-0.0442543
-0.0453605
-0.0464976
-0.0476654
-0.0488638
-0.0500922
-0.0513497
-0.0526351
-0.0539474
-0.0552851
-0.0566463
-0.0580288
-0.0594296
-0.0608453
-0.0622718
-0.063704
-0.0651358
-0.0665602
-0.0679683
-0.0693498
-0.0706922
-0.0719807
-0.0731976
-0.0743227
-0.075329
-0.076196
-0.0768756
-0.0773822
-0.0775731
-0.07777
-0.0771472
-0.0780782
-0.075869
-0.0816179
-0.0790786
-0.000686223
-0.00218688
-0.00369744
-0.00530021
-0.00692448
-0.00854276
-0.0101299
-0.011664
-0.013129
-0.0145131
-0.0158074
-0.0170088
-0.0181122
-0.0191181
-0.0200273
-0.0208424
-0.021567
-0.0222056
-0.0227633
-0.0232458
-0.0236593
-0.0240101
-0.024305
-0.0245506
-0.024754
-0.0249218
-0.0250609
-0.0251778
-0.0252791
-0.0253707
-0.0254585
-0.0255477
-0.0256432
-0.0257495
-0.0258704
-0.0260094
-0.0261696
-0.0263535
-0.0265631
-0.0268004
-0.0270668
-0.0273633
-0.0276908
-0.0280501
-0.0284415
-0.0288653
-0.0293217
-0.0298107
-0.0303322
-0.0308861
-0.0314723
-0.0320906
-0.0327408
-0.033423
-0.0341381
-0.0348879
-0.0356747
-0.0364959
-0.0373495
-0.0382346
-0.039151
-0.0400984
-0.0410771
-0.0420872
-0.0431266
-0.0441972
-0.0452994
-0.046433
-0.0475975
-0.0487921
-0.0500141
-0.0512652
-0.0525452
-0.053852
-0.0551837
-0.0565389
-0.0579152
-0.0593099
-0.0607194
-0.0621396
-0.0635655
-0.0649912
-0.0664092
-0.067811
-0.0691861
-0.0705219
-0.0718035
-0.0730128
-0.0741296
-0.0751254
-0.07598
-0.0766395
-0.077123
-0.0772629
-0.0773961
-0.076661
-0.0773191
-0.0750254
-0.0792736
-0.0773661
-0.000703938
-0.00219995
-0.00371157
-0.00530101
-0.00691049
-0.00851473
-0.0100894
-0.0116134
-0.0130706
-0.0144502
-0.0157395
-0.0169384
-0.0180409
-0.0190469
-0.0199572
-0.0207742
-0.0215013
-0.0221428
-0.0227039
-0.0231901
-0.0236075
-0.0239625
-0.0242615
-0.0245114
-0.0247189
-0.0248908
-0.0250339
-0.0251546
-0.0252594
-0.0253543
-0.0254449
-0.0255367
-0.0256344
-0.0257424
-0.0258647
-0.0260047
-0.0261655
-0.0263496
-0.0265592
-0.0267961
-0.0270617
-0.0273573
-0.0276837
-0.0280416
-0.0284314
-0.0288535
-0.029308
-0.0297949
-0.0303143
-0.0308659
-0.0314496
-0.0320652
-0.0327125
-0.0333915
-0.034103
-0.0348492
-0.0356339
-0.0364531
-0.0373043
-0.0381865
-0.0390993
-0.0400426
-0.0410158
-0.0420191
-0.0430583
-0.0441282
-0.0452274
-0.0463556
-0.0475128
-0.0487006
-0.049922
-0.0511719
-0.0524467
-0.0537484
-0.0550757
-0.0564263
-0.0577978
-0.0591876
-0.0605922
-0.0620073
-0.0634281
-0.0648484
-0.0662611
-0.0676573
-0.0690264
-0.0703558
-0.0716304
-0.0728314
-0.0739385
-0.0749215
-0.0757605
-0.0763957
-0.0768507
-0.0769374
-0.0769974
-0.0761556
-0.0765365
-0.0742038
-0.0772362
-0.0755645
-0.000716786
-0.00221065
-0.00372286
-0.00530099
-0.00689751
-0.00848918
-0.0100527
-0.0115673
-0.013017
-0.0143886
-0.0156776
-0.0168742
-0.0179758
-0.018982
-0.0198934
-0.0207121
-0.0214416
-0.0220859
-0.0226501
-0.0231398
-0.0235608
-0.0239195
-0.0242224
-0.0244761
-0.0246875
-0.0248631
-0.0250097
-0.0251339
-0.0252418
-0.0253395
-0.0254327
-0.0255267
-0.0256262
-0.0257357
-0.0258591
-0.0259999
-0.026161
-0.0263452
-0.0265545
-0.0267908
-0.0270556
-0.02735
-0.0276751
-0.0280314
-0.0284195
-0.0288396
-0.0292921
-0.0297769
-0.0302939
-0.0308432
-0.0314244
-0.0320372
-0.0326816
-0.0333573
-0.034065
-0.0348076
-0.0355909
-0.0364088
-0.0372583
-0.0381386
-0.0390499
-0.0399924
-0.0409664
-0.0419741
-0.0430013
-0.0440618
-0.0451558
-0.046283
-0.0474429
-0.0486337
-0.0498409
-0.0510781
-0.0523505
-0.0536484
-0.0549696
-0.0563144
-0.0576802
-0.0590642
-0.060463
-0.0618726
-0.063288
-0.0647031
-0.0661106
-0.0675016
-0.0688656
-0.0701897
-0.0714586
-0.0726529
-0.0737523
-0.0747246
-0.0755503
-0.0761636
-0.0765909
-0.0766278
-0.0766176
-0.0756833
-0.0758014
-0.0734355
-0.0754882
-0.0738165
-0.000725928
-0.00221885
-0.00373126
-0.00529988
-0.00688532
-0.00846606
-0.0100197
-0.0115261
-0.0129695
-0.0143376
-0.0156225
-0.016817
-0.0179178
-0.0189241
-0.0198365
-0.0206568
-0.0213884
-0.0220352
-0.0226024
-0.0230951
-0.0235195
-0.0238816
-0.0241879
-0.0244451
-0.0246598
-0.0248388
-0.0249886
-0.0251156
-0.0252263
-0.0253265
-0.0254218
-0.0255176
-0.0256186
-0.0257292
-0.0258534
-0.0259946
-0.0261558
-0.0263397
-0.0265485
-0.026784
-0.0270478
-0.0273409
-0.0276645
-0.0280192
-0.0284054
-0.0288237
-0.029274
-0.0297566
-0.0302714
-0.0308182
-0.0313968
-0.032007
-0.0326483
-0.0333205
-0.034024
-0.0347621
-0.0355441
-0.0363603
-0.0372072
-0.038084
-0.0389905
-0.0399264
-0.0408912
-0.0418831
-0.042918
-0.0439809
-0.045072
-0.0461913
-0.0473386
-0.0485156
-0.0497355
-0.0509829
-0.0522425
-0.0535324
-0.0548507
-0.0561911
-0.0575527
-0.058933
-0.060328
-0.0617335
-0.0631448
-0.0645556
-0.0659589
-0.0673459
-0.0687058
-0.0700257
-0.0712904
-0.07248
-0.073574
-0.0745389
-0.0753553
-0.0759521
-0.0763583
-0.076356
-0.0762862
-0.0752792
-0.0751644
-0.0727668
-0.0740371
-0.0721682
-0.000732199
-0.00222468
-0.00373684
-0.00529763
-0.00687384
-0.00844537
-0.00999067
-0.0114902
-0.0129283
-0.0142924
-0.0155745
-0.0167672
-0.0178673
-0.0188739
-0.019787
-0.0206088
-0.0213423
-0.0219915
-0.0225612
-0.0230567
-0.023484
-0.0238491
-0.0241585
-0.0244187
-0.0246364
-0.0248182
-0.0249706
-0.0251002
-0.0252131
-0.0253153
-0.0254123
-0.0255094
-0.0256115
-0.0257229
-0.0258475
-0.0259888
-0.0261498
-0.0263333
-0.0265413
-0.0267758
-0.0270383
-0.02733
-0.0276519
-0.0280048
-0.0283892
-0.0288054
-0.0292536
-0.029734
-0.0302464
-0.0307909
-0.031367
-0.0319746
-0.032613
-0.0332819
-0.0339811
-0.0347143
-0.0354968
-0.036313
-0.0371591
-0.0380351
-0.0389418
-0.0398806
-0.0408461
-0.041844
-0.0428674
-0.0439215
-0.0450075
-0.0461251
-0.0472736
-0.0484512
-0.0496517
-0.0508802
-0.052152
-0.0534425
-0.0547513
-0.0560869
-0.0574425
-0.0588152
-0.0602032
-0.0616025
-0.063008
-0.0644137
-0.0658122
-0.0671948
-0.0685509
-0.0698673
-0.0711289
-0.0723155
-0.0734068
-0.0743679
-0.0751802
-0.075768
-0.0761629
-0.0761353
-0.0760221
-0.0749646
-0.0746598
-0.0722301
-0.0728901
-0.0706712
-0.000736192
-0.00222822
-0.0037397
-0.00529422
-0.006863
-0.00842704
-0.00996543
-0.0114589
-0.0128919
-0.0142528
-0.0155334
-0.016725
-0.0178249
-0.0188317
-0.0197457
-0.0205688
-0.021304
-0.0219552
-0.0225271
-0.0230251
-0.0234548
-0.0238225
-0.0241345
-0.0243972
-0.0246174
-0.0248015
-0.0249562
-0.0250877
-0.0252024
-0.025306
-0.0254043
-0.0255024
-0.0256052
-0.0257169
-0.0258415
-0.0259826
-0.0261432
-0.0263259
-0.0265329
-0.0267662
-0.0270273
-0.0273174
-0.0276375
-0.0279885
-0.0283707
-0.0287847
-0.0292306
-0.0297085
-0.0302184
-0.0307601
-0.0313334
-0.0319379
-0.032573
-0.0332378
-0.0339317
-0.0346575
-0.0354403
-0.0362542
-0.0370964
-0.037967
-0.0388664
-0.0397936
-0.0407533
-0.0417459
-0.0427711
-0.0438257
-0.0449091
-0.0460218
-0.0471633
-0.0483339
-0.0495363
-0.0507659
-0.0520148
-0.0532968
-0.0546089
-0.0559358
-0.0572875
-0.0586604
-0.060048
-0.0614461
-0.0628502
-0.0642545
-0.0656519
-0.0670336
-0.0683894
-0.0697061
-0.0709688
-0.0721571
-0.073251
-0.0742146
-0.0750304
-0.0756187
-0.0760145
-0.0759773
-0.0758435
-0.0747602
-0.0743207
-0.0718608
-0.0720629
-0.0694068
-0.000738409
-0.00222976
-0.00374017
-0.00528998
-0.00685333
-0.00841203
-0.00994571
-0.0114356
-0.0128665
-0.014225
-0.0155028
-0.0166928
-0.0177919
-0.0187987
-0.0197132
-0.0205373
-0.0212737
-0.0219265
-0.0225003
-0.0230002
-0.023432
-0.0238018
-0.0241159
-0.0243807
-0.0246028
-0.0247888
-0.0249451
-0.0250781
-0.025194
-0.0252987
-0.0253977
-0.0254963
-0.0255992
-0.0257109
-0.0258353
-0.0259758
-0.0261356
-0.0263172
-0.0265231
-0.026755
-0.0270147
-0.0273032
-0.0276217
-0.0279709
-0.0283513
-0.0287635
-0.0292075
-0.0296836
-0.0301916
-0.0307315
-0.031303
-0.0319055
-0.0325384
-0.0332005
-0.0338898
-0.0346071
-0.0353964
-0.0362128
-0.0370558
-0.0379274
-0.0388289
-0.0397619
-0.0407286
-0.041715
-0.0427313
-0.0437782
-0.044856
-0.0459644
-0.047103
-0.0482723
-0.0494698
-0.0506954
-0.0519511
-0.0532302
-0.0545341
-0.0558699
-0.0572184
-0.0585799
-0.0599578
-0.0613481
-0.0627456
-0.0641441
-0.0655367
-0.0669145
-0.0682672
-0.0695818
-0.0708435
-0.072032
-0.0731279
-0.0740947
-0.0749162
-0.0755098
-0.0759138
-0.0758841
-0.0757683
-0.0746876
-0.074191
-0.0717033
-0.071616
-0.0684618
-0.000738652
-0.0022281
-0.00373644
-0.00528223
-0.0068411
-0.0083952
-0.00992443
-0.0114101
-0.0128367
-0.014194
-0.0154719
-0.0166622
-0.0177619
-0.0187696
-0.0196853
-0.0205109
-0.021249
-0.0219037
-0.0224793
-0.0229812
-0.023415
-0.0237867
-0.0241026
-0.024369
-0.0245926
-0.0247799
-0.0249373
-0.0250712
-0.0251878
-0.0252929
-0.025392
-0.0254905
-0.025593
-0.025704
-0.0258274
-0.0259667
-0.026125
-0.0263049
-0.0265087
-0.0267384
-0.0269955
-0.0272813
-0.0275969
-0.0279431
-0.0283204
-0.0287292
-0.0291698
-0.0296423
-0.0301467
-0.0306828
-0.0312504
-0.0318491
-0.032478
-0.0331358
-0.0338194
-0.0345223
-0.0353156
-0.0361273
-0.0369645
-0.0378293
-0.0387228
-0.039644
-0.0405931
-0.0415814
-0.0425989
-0.0436457
-0.0447217
-0.045827
-0.0469611
-0.048122
-0.0493109
-0.0505277
-0.0517713
-0.0530415
-0.0543353
-0.0556483
-0.05699
-0.0583555
-0.0597352
-0.061126
-0.0625235
-0.0639225
-0.065316
-0.0666958
-0.0680518
-0.0693716
-0.0706406
-0.0718388
-0.0729477
-0.0739305
-0.0747735
-0.0753901
-0.0758262
-0.075813
-0.075717
-0.0746428
-0.074136
-0.0715918
-0.0713174
-0.0676038
0.074199
0.0799036
0.0819826
0.0843485
0.0853096
0.0854197
0.0843327
0.0820072
0.0782017
0.0727019
0.0650799
0.054974
0.0415557
0.0242145
0.00102416
-0.0293783
-0.0728942
-0.130133
-0.215588
-0.317943
0.0684812
0.0739557
0.0758887
0.0780156
0.0787589
0.0786374
0.07732
0.0747585
0.0707192
0.0649859
0.0571559
0.0467969
0.0331808
0.015503
-0.00822839
-0.0398836
-0.0856623
-0.144708
-0.210426
-0.258794
0.0630063
0.0683011
0.0700806
0.0719724
0.0724502
0.0720298
0.0703661
0.0674049
0.0628991
0.0566126
0.0481305
0.0369705
0.0223399
0.00327697
-0.0222641
-0.0557774
-0.101622
-0.155843
-0.199713
-0.250815
0.0577221
0.0628266
0.0644444
0.0661071
0.0663194
0.0655923
0.0635679
0.0601873
0.0551914
0.0483267
0.0391683
0.0272026
0.0115994
-0.0086271
-0.0353722
-0.069612
-0.113059
-0.161024
-0.190661
-0.233028
0.0525989
0.0574896
0.0589356
0.0603745
0.0603379
0.0593275
0.0569789
0.0532317
0.0478224
0.040491
0.0308164
0.0182759
0.00205705
-0.0187364
-0.0457004
-0.0794591
-0.118975
-0.158198
-0.181775
-0.211922
0.0476373
0.0522974
0.0535646
0.0547836
0.0545124
0.0532422
0.0506061
0.0465442
0.040793
0.0330928
0.0230332
0.0100964
-0.00648828
-0.0274539
-0.053926
-0.086276
-0.121402
-0.150058
-0.172512
-0.187593
0.0428472
0.0472642
0.04835
0.049353
0.0488577
0.0473448
0.0444471
0.0401065
0.0340632
0.0260646
0.0157231
0.00255555
-0.0141356
-0.0348931
-0.0602766
-0.0904067
-0.121553
-0.140341
-0.162611
-0.165994
0.0382361
0.0423949
0.0433007
0.0440915
0.0433818
0.0416404
0.0385027
0.0339129
0.0276181
0.0193761
0.00882281
-0.0044866
-0.0211727
-0.0415816
-0.0655882
-0.092746
-0.11964
-0.131746
-0.151813
-0.147444
0.0338104
0.0376819
0.0384186
0.0389984
0.0380878
0.0361325
0.0327773
0.027968
0.0214641
0.0130435
0.00238841
-0.0108535
-0.0271353
-0.0465693
-0.0684827
-0.0920641
-0.115052
-0.124916
-0.140391
-0.132108
0.0295789
0.0331144
0.0337081
0.0340701
0.0329722
0.0308119
0.0272557
0.0222481
0.015566
0.00700631
-0.00371767
-0.0169197
-0.0329825
-0.0519071
-0.07253
-0.0934278
-0.113124
-0.123215
-0.135714
-0.118227
0.140403
0.149323
0.153666
0.158998
0.163254
0.167102
0.170266
0.172695
0.174218
0.17468
0.173821
0.171452
0.167075
0.160527
0.150581
0.137443
0.118544
0.097542
0.0700128
0.0570802
0.132342
0.141145
0.144821
0.149675
0.153161
0.156115
0.158189
0.159332
0.159334
0.158009
0.155031
0.150185
0.142923
0.133111
0.119366
0.102191
0.0786048
0.0542417
0.0240403
0.027832
0.124958
0.133486
0.136794
0.141296
0.144324
0.146781
0.148276
0.148785
0.148093
0.146029
0.142265
0.136599
0.128366
0.117484
0.102312
0.0837385
0.0578684
0.0323168
-0.00195575
0.00580783
0.118233
0.126393
0.129533
0.133759
0.136482
0.138618
0.139733
0.139826
0.138661
0.136066
0.131677
0.125279
0.116068
0.104002
0.0871141
0.0667071
0.0377813
0.0101941
-0.0286535
-0.019531
0.111742
0.119524
0.122522
0.126479
0.128907
0.130717
0.131437
0.131072
0.12936
0.126113
0.120915
0.113541
0.10307
0.0895138
0.0705602
0.0479598
0.015607
-0.0142661
-0.0564319
-0.0453874
0.105273
0.112692
0.115521
0.119192
0.12131
0.122766
0.123063
0.122208
0.119917
0.115991
0.109973
0.101646
0.0899926
0.0750895
0.0542999
0.0298172
-0.00549328
-0.0373222
-0.0822845
-0.0703166
0.0988312
0.105899
0.108546
0.111929
0.113745
0.114855
0.114753
0.113448
0.110644
0.106139
0.0994503
0.0903767
0.0778193
0.0618803
0.039641
0.0134875
-0.0246099
-0.059412
-0.107623
-0.0952574
0.0924768
0.0992006
0.101677
0.104784
0.106329
0.107126
0.10668
0.104999
0.101783
0.0968295
0.0896345
0.0800097
0.0667951
0.0500432
0.0267371
-0.000781234
-0.0406898
-0.0778204
-0.12921
-0.120089
0.0862499
0.0926328
0.0949574
0.0978042
0.0991127
0.0996339
0.0989011
0.0969132
0.0933768
0.0880847
0.0805283
0.0705211
0.0569026
0.0395383
0.0155553
-0.0136488
-0.0556684
-0.0990695
-0.154779
-0.155521
0.080155
0.0861985
0.0883953
0.0909983
0.0921106
0.0923964
0.0914386
0.0892187
0.0854607
0.0799493
0.072184
0.0619644
0.0481094
0.0303
0.00629242
-0.0233454
-0.0640986
-0.106939
-0.16151
-0.149102
0.38913
0.388357
0.389663
0.388628
0.39067
0.389385
0.392722
0.391155
0.396753
0.394979
0.404712
0.403004
0.420714
0.419761
0.454114
0.455527
0.528604
0.53817
0.702814
0.76411
0.389128
0.388358
0.38966
0.388637
0.390668
0.389407
0.392728
0.391209
0.396787
0.395112
0.404821
0.403323
0.421014
0.420535
0.454887
0.457448
0.530619
0.54257
0.708394
0.756881
0.389125
0.388355
0.389654
0.388637
0.390661
0.389414
0.392722
0.391232
0.396787
0.39517
0.404844
0.403469
0.421092
0.420889
0.455086
0.458269
0.531018
0.543695
0.708685
0.744422
0.389121
0.388351
0.389646
0.38864
0.390649
0.389421
0.392708
0.391254
0.396775
0.39523
0.404847
0.403623
0.421146
0.421265
0.45524
0.459101
0.531211
0.544247
0.707769
0.725489
0.389116
0.388344
0.389635
0.388638
0.390632
0.389423
0.392684
0.391265
0.396744
0.395267
0.404811
0.403723
0.421106
0.421506
0.45515
0.459539
0.530635
0.543329
0.704117
0.700363
0.389111
0.388335
0.389622
0.388636
0.390611
0.389421
0.392652
0.391268
0.396695
0.395286
0.404739
0.403783
0.420989
0.42165
0.454874
0.459683
0.529448
0.541214
0.698022
0.669073
0.389104
0.388324
0.389606
0.388631
0.390585
0.389415
0.392611
0.391262
0.396629
0.395285
0.404631
0.403798
0.420793
0.421683
0.454394
0.4595
0.527594
0.537893
0.689281
0.631388
0.389097
0.38831
0.389588
0.388625
0.390555
0.389405
0.392561
0.391246
0.396544
0.395263
0.404484
0.403767
0.420513
0.421601
0.453708
0.458985
0.525077
0.533428
0.677627
0.586887
0.38909
0.388292
0.389568
0.388615
0.390522
0.389389
0.392506
0.391219
0.396448
0.395219
0.404309
0.403685
0.42016
0.421394
0.452818
0.458109
0.521892
0.527829
0.662956
0.535175
0.389081
0.388275
0.389541
0.388603
0.390477
0.38937
0.392429
0.391192
0.39632
0.395174
0.404093
0.403605
0.419755
0.421186
0.45185
0.457192
0.518372
0.521841
0.64607
0.475108
0.389081
0.388275
0.389541
0.388603
0.390477
0.38937
0.392429
0.391192
0.39632
0.395174
0.404093
0.403605
0.419755
0.421186
0.45185
0.457192
0.518372
0.521841
0.64607
0.475107
0.38909
0.388292
0.389568
0.388615
0.390522
0.389389
0.392506
0.391219
0.396448
0.395219
0.404309
0.403685
0.42016
0.421394
0.452818
0.458109
0.521892
0.527829
0.662956
0.535175
0.389097
0.38831
0.389588
0.388625
0.390555
0.389405
0.392561
0.391246
0.396544
0.395263
0.404484
0.403767
0.420513
0.421601
0.453708
0.458985
0.525077
0.533427
0.677627
0.586887
0.389104
0.388324
0.389606
0.388631
0.390585
0.389415
0.392611
0.391262
0.396629
0.395285
0.404631
0.403798
0.420793
0.421683
0.454394
0.4595
0.527594
0.537893
0.689281
0.631388
0.389111
0.388335
0.389622
0.388636
0.390611
0.389421
0.392652
0.391268
0.396695
0.395286
0.404739
0.403783
0.420989
0.42165
0.454874
0.459683
0.529448
0.541214
0.698021
0.669073
0.389116
0.388344
0.389635
0.388638
0.390632
0.389423
0.392684
0.391265
0.396744
0.395267
0.404811
0.403723
0.421106
0.421506
0.45515
0.459539
0.530635
0.543329
0.704117
0.700363
0.389121
0.388351
0.389646
0.38864
0.390649
0.389421
0.392708
0.391254
0.396775
0.39523
0.404847
0.403623
0.421146
0.421265
0.45524
0.459101
0.531211
0.544247
0.707769
0.725489
0.389125
0.388355
0.389654
0.388637
0.390661
0.389414
0.392722
0.391232
0.396787
0.39517
0.404844
0.403469
0.421092
0.420889
0.455086
0.458269
0.531017
0.543695
0.708685
0.744422
0.389128
0.388358
0.38966
0.388637
0.390668
0.389407
0.392728
0.39121
0.396787
0.395112
0.404821
0.403323
0.421014
0.420535
0.454887
0.457448
0.530619
0.54257
0.708394
0.756881
0.38913
0.388357
0.389663
0.388628
0.39067
0.389385
0.392722
0.391155
0.396753
0.394979
0.404712
0.403004
0.420714
0.419761
0.454114
0.455527
0.528604
0.53817
0.702814
0.76411
0.0801596
0.0862028
0.0883993
0.091002
0.092114
0.0923994
0.0914411
0.0892208
0.0854623
0.0799504
0.0721845
0.0619643
0.0481087
0.0302986
0.00629031
-0.0233483
-0.0641024
-0.106944
-0.161516
-0.149108
0.0862542
0.0926369
0.0949612
0.0978077
0.0991158
0.0996367
0.0989034
0.0969151
0.0933782
0.0880856
0.0805287
0.0705209
0.056902
0.0395368
0.0155533
-0.0136516
-0.0556719
-0.099074
-0.154785
-0.155526
0.0924809
0.0992044
0.101681
0.104787
0.106332
0.107129
0.106682
0.105001
0.101785
0.0968303
0.0896348
0.0800095
0.0667944
0.0500418
0.0267351
-0.000783809
-0.0406932
-0.0778244
-0.129215
-0.120093
0.0988351
0.105903
0.10855
0.111932
0.113748
0.114858
0.114755
0.11345
0.110645
0.10614
0.0994505
0.0903764
0.0778186
0.0618789
0.0396391
0.0134851
-0.024613
-0.0594154
-0.107627
-0.0952611
0.105277
0.112696
0.115524
0.119195
0.121313
0.122768
0.123065
0.122209
0.119918
0.115991
0.109973
0.101646
0.0899919
0.0750882
0.0542982
0.029815
-0.00549609
-0.0373253
-0.0822882
-0.0703197
0.111745
0.119527
0.122525
0.126482
0.12891
0.130719
0.131439
0.131073
0.129361
0.126113
0.120916
0.113541
0.103069
0.0895126
0.0705585
0.0479578
0.0156044
-0.0142688
-0.0564351
-0.04539
0.118236
0.126396
0.129536
0.133762
0.136484
0.13862
0.139735
0.139827
0.138662
0.136066
0.131677
0.125278
0.116067
0.104001
0.0871126
0.0667053
0.0377791
0.0101918
-0.0286562
-0.0195332
0.124961
0.133489
0.136797
0.141298
0.144326
0.146783
0.148277
0.148787
0.148094
0.146029
0.142265
0.136599
0.128366
0.117483
0.102311
0.0837368
0.0578664
0.0323148
-0.00195804
0.00580605
0.132345
0.141148
0.144823
0.149677
0.153163
0.156117
0.158191
0.159333
0.159335
0.158009
0.155031
0.150184
0.142922
0.13311
0.119365
0.10219
0.0786031
0.05424
0.0240384
0.0278306
0.140405
0.149325
0.153668
0.159
0.163256
0.167104
0.170268
0.172696
0.174219
0.17468
0.173821
0.171452
0.167075
0.160526
0.15058
0.137442
0.118543
0.0975406
0.0700113
0.0570792
0.0295863
0.0331214
0.0337148
0.0340762
0.0329779
0.030817
0.0272602
0.0222518
0.0155689
0.00700823
-0.00371681
-0.01692
-0.0329841
-0.0519101
-0.0725345
-0.0934335
-0.113131
-0.123222
-0.135722
-0.118234
0.0338175
0.0376886
0.0384249
0.0390043
0.0380932
0.0361374
0.0327815
0.0279715
0.0214668
0.0130453
0.00238925
-0.0108537
-0.0271368
-0.0465721
-0.0684868
-0.0920696
-0.115059
-0.124922
-0.140399
-0.132115
0.0382429
0.0424013
0.0433067
0.0440971
0.0433869
0.041645
0.0385067
0.0339162
0.0276206
0.0193779
0.00882361
-0.00448681
-0.021174
-0.0415842
-0.0655921
-0.0927512
-0.119646
-0.131753
-0.15182
-0.147451
0.0428537
0.0472702
0.0483557
0.0493583
0.0488625
0.0473491
0.0444509
0.0401097
0.0340656
0.0260662
0.0157239
0.00255538
-0.0141368
-0.0348955
-0.0602802
-0.0904116
-0.121559
-0.140348
-0.162618
-0.166002
0.0476434
0.0523032
0.05357
0.0547887
0.054517
0.0532464
0.0506097
0.0465472
0.0407953
0.0330944
0.023034
0.0100963
-0.00648937
-0.0274561
-0.0539293
-0.0862805
-0.121408
-0.150065
-0.17252
-0.187601
0.0526048
0.057495
0.0589408
0.0603793
0.0603423
0.0593315
0.0569824
0.0532346
0.0478246
0.0404925
0.0308171
0.0182758
0.00205607
-0.0187384
-0.0457035
-0.0794632
-0.11898
-0.158205
-0.181783
-0.21193
0.0577277
0.0628318
0.0644494
0.0661117
0.0663236
0.0655961
0.0635712
0.06019
0.0551935
0.0483281
0.039169
0.0272026
0.0115986
-0.00862886
-0.0353749
-0.0696158
-0.113064
-0.16103
-0.190669
-0.233036
0.0630117
0.0683061
0.0700853
0.0719767
0.0724542
0.0720333
0.0703692
0.0674075
0.0629012
0.056614
0.0481312
0.0369706
0.0223392
0.00327542
-0.0222665
-0.0557808
-0.101626
-0.155848
-0.19972
-0.250822
0.0684863
0.0739604
0.0758931
0.0780197
0.0787626
0.0786408
0.077323
0.074761
0.0707211
0.0649873
0.0571567
0.0467969
0.0331802
0.0155016
-0.00823057
-0.0398866
-0.0856664
-0.144713
-0.210433
-0.258801
0.0742038
0.0799081
0.0819869
0.0843524
0.0853132
0.0854229
0.0843354
0.0820095
0.0782035
0.0727032
0.0650805
0.054974
0.041555
0.0242132
0.00102207
-0.0293812
-0.072898
-0.130138
-0.215594
-0.317951
-0.00073862
-0.00222801
-0.00373627
-0.00528199
-0.00684077
-0.0083948
-0.00992398
-0.0114096
-0.0128364
-0.0141929
-0.015471
-0.0166614
-0.0177613
-0.0187691
-0.0196851
-0.0205108
-0.0212492
-0.021904
-0.0224799
-0.0229821
-0.023416
-0.0237879
-0.0241039
-0.0243705
-0.0245942
-0.0247815
-0.0249389
-0.0250728
-0.0251892
-0.0252941
-0.0253931
-0.0254913
-0.0255936
-0.0257043
-0.0258274
-0.0259664
-0.0261243
-0.026304
-0.0265075
-0.0267369
-0.0269938
-0.0272795
-0.0275949
-0.0279408
-0.0283179
-0.0287265
-0.0291669
-0.0296392
-0.0301433
-0.0306791
-0.0312461
-0.0318439
-0.0324716
-0.0331271
-0.0338055
-0.0344875
-0.0353053
-0.0361239
-0.0369631
-0.0378299
-0.0387255
-0.0396514
-0.040609
-0.0415917
-0.0426035
-0.0436447
-0.0447153
-0.0458154
-0.0469448
-0.0481097
-0.0493047
-0.0505257
-0.0517728
-0.0530459
-0.0543449
-0.0556688
-0.0570108
-0.0583696
-0.0597446
-0.0611321
-0.0625274
-0.0639246
-0.0653168
-0.0666957
-0.0680511
-0.0693703
-0.0706391
-0.0718373
-0.0729463
-0.0739293
-0.0747725
-0.0753894
-0.0758257
-0.0758128
-0.0757168
-0.0746427
-0.074136
-0.0715917
-0.0713172
-0.0676035
-0.0007383
-0.00222943
-0.00373962
-0.00528917
-0.00685226
-0.00841068
-0.0099441
-0.0114338
-0.0128645
-0.0142236
-0.0155012
-0.0166913
-0.0177907
-0.0187979
-0.0197129
-0.0205375
-0.0212746
-0.0219281
-0.0225025
-0.023003
-0.0234355
-0.0238058
-0.0241203
-0.0243855
-0.0246078
-0.0247938
-0.02495
-0.0250828
-0.0251983
-0.0253025
-0.0254009
-0.0254987
-0.0256008
-0.0257115
-0.0258349
-0.0259744
-0.0261331
-0.0263138
-0.0265187
-0.0267497
-0.0270085
-0.0272964
-0.0276143
-0.0279632
-0.0283435
-0.0287557
-0.0292
-0.0296765
-0.0301853
-0.0307262
-0.0312989
-0.0319031
-0.0325378
-0.0332018
-0.0338908
-0.0345839
-0.0353972
-0.0362148
-0.0370615
-0.0379337
-0.0388347
-0.0397656
-0.0407256
-0.0417169
-0.0427389
-0.0437914
-0.044874
-0.0459866
-0.0471286
-0.0482933
-0.0494852
-0.0507064
-0.0519556
-0.0532313
-0.0545317
-0.0558548
-0.0572004
-0.0585658
-0.0599464
-0.0613382
-0.0627367
-0.064136
-0.0655291
-0.0669075
-0.0682608
-0.069576
-0.0708385
-0.0720278
-0.0731244
-0.0740918
-0.0749141
-0.0755083
-0.0759129
-0.0758837
-0.0757683
-0.0746879
-0.0741914
-0.0717038
-0.0716165
-0.0684622
-0.000736017
-0.00222769
-0.0037388
-0.0052929
-0.00686124
-0.00842484
-0.00996283
-0.011456
-0.0128888
-0.0142495
-0.0155302
-0.0167223
-0.0178226
-0.0188301
-0.019745
-0.0205691
-0.0213054
-0.0219577
-0.0225308
-0.0230298
-0.0234606
-0.0238292
-0.024142
-0.0244053
-0.0246257
-0.02481
-0.0249645
-0.0250956
-0.0252096
-0.0253124
-0.0254096
-0.0255064
-0.0256077
-0.0257179
-0.0258409
-0.0259802
-0.0261391
-0.02632
-0.0265255
-0.0267572
-0.027017
-0.0273059
-0.0276251
-0.0279754
-0.0283572
-0.028771
-0.029217
-0.0296953
-0.0302058
-0.0307484
-0.0313227
-0.0319281
-0.0325639
-0.0332284
-0.033918
-0.0346265
-0.0354307
-0.0362544
-0.0370973
-0.0379732
-0.038878
-0.0398105
-0.0407751
-0.0417686
-0.0427906
-0.0438412
-0.044921
-0.0460313
-0.0471711
-0.04834
-0.0495422
-0.0507722
-0.0520282
-0.0533097
-0.0546161
-0.0559457
-0.0572956
-0.0586636
-0.0600469
-0.0614419
-0.0628436
-0.0642461
-0.0656424
-0.0670236
-0.0683794
-0.0696965
-0.07096
-0.0721493
-0.0732444
-0.0742094
-0.0750266
-0.0756161
-0.0760131
-0.0759768
-0.0758437
-0.0747609
-0.0743216
-0.0718619
-0.0720639
-0.0694078
-0.000731959
-0.00222395
-0.00373559
-0.00529579
-0.00687137
-0.00844229
-0.00998702
-0.0114861
-0.0129239
-0.0142882
-0.0155702
-0.0167634
-0.0178642
-0.0188717
-0.019786
-0.0206092
-0.0213442
-0.021995
-0.0225663
-0.0230634
-0.0234921
-0.0238585
-0.024169
-0.02443
-0.0246481
-0.0248301
-0.0249823
-0.0251113
-0.0252233
-0.0253242
-0.0254197
-0.025515
-0.0256151
-0.0257242
-0.0258464
-0.0259853
-0.0261439
-0.026325
-0.0265307
-0.0267631
-0.0270237
-0.0273138
-0.0276344
-0.0279863
-0.0283701
-0.0287861
-0.0292346
-0.0297156
-0.0302292
-0.0307751
-0.0313531
-0.0319627
-0.0326033
-0.0332737
-0.0339721
-0.0346984
-0.0354942
-0.0363181
-0.0371715
-0.0380479
-0.0389564
-0.039898
-0.0408647
-0.0418614
-0.0428894
-0.0439486
-0.0450381
-0.0461548
-0.0472986
-0.0484756
-0.0496775
-0.0509054
-0.0521615
-0.0534443
-0.0547521
-0.0560831
-0.0574355
-0.0588066
-0.060193
-0.0615907
-0.0629948
-0.0643995
-0.0657974
-0.0671799
-0.0685364
-0.0698537
-0.0711166
-0.0723048
-0.0733979
-0.0743609
-0.0751752
-0.0757647
-0.0761612
-0.0761349
-0.0760227
-0.0749658
-0.0746613
-0.0722317
-0.0728917
-0.0706728
-0.000725628
-0.00221792
-0.00372966
-0.00529752
-0.00688215
-0.00846209
-0.010015
-0.0115208
-0.0129638
-0.0143315
-0.0156169
-0.016812
-0.0179137
-0.0189213
-0.0198352
-0.0206573
-0.0213908
-0.0220398
-0.022609
-0.0231038
-0.02353
-0.0238938
-0.0242015
-0.0244597
-0.024675
-0.0248541
-0.0250036
-0.02513
-0.0252394
-0.025338
-0.0254313
-0.0255247
-0.025623
-0.0257308
-0.0258519
-0.02599
-0.0261481
-0.0263289
-0.0265348
-0.0267675
-0.0270288
-0.0273199
-0.0276418
-0.0279952
-0.0283807
-0.0287987
-0.0292494
-0.0297329
-0.0302491
-0.0307978
-0.0313787
-0.0319913
-0.0326351
-0.033309
-0.0340122
-0.0347473
-0.0355401
-0.0363647
-0.0372169
-0.0381003
-0.039009
-0.0399432
-0.0409181
-0.0419213
-0.042952
-0.0440101
-0.0450966
-0.0462187
-0.0473737
-0.0485521
-0.0497583
-0.050994
-0.0522568
-0.0535453
-0.0548585
-0.0561948
-0.0575519
-0.0589274
-0.0603182
-0.0617203
-0.0631289
-0.0645379
-0.0659401
-0.0673268
-0.0686872
-0.0700082
-0.0712746
-0.0724663
-0.0735628
-0.0745302
-0.0753491
-0.0759482
-0.0763563
-0.0763558
-0.0762872
-0.075281
-0.0751665
-0.0727691
-0.0740393
-0.0721705
-0.000716433
-0.00220952
-0.00372092
-0.00529811
-0.00689363
-0.00848432
-0.0100469
-0.0115608
-0.0130102
-0.0143824
-0.0156708
-0.0168681
-0.0179708
-0.0189786
-0.0198918
-0.0207128
-0.0214446
-0.0220915
-0.0226583
-0.0231504
-0.0235738
-0.0239345
-0.0242391
-0.024494
-0.0247061
-0.0248819
-0.0250282
-0.0251514
-0.0252578
-0.0253536
-0.0254443
-0.0255353
-0.0256316
-0.0257375
-0.0258572
-0.0259941
-0.0261514
-0.0263318
-0.0265375
-0.0267704
-0.0270322
-0.0273241
-0.0276471
-0.0280019
-0.0283891
-0.0288091
-0.029262
-0.0297479
-0.0302667
-0.0308183
-0.0314023
-0.0320185
-0.0326661
-0.0333447
-0.0340541
-0.0347977
-0.0355904
-0.0364171
-0.037274
-0.0381599
-0.0390779
-0.0400291
-0.0410003
-0.0420029
-0.043038
-0.0441054
-0.0452044
-0.0463274
-0.0474764
-0.0486564
-0.0498658
-0.0511031
-0.0523679
-0.053659
-0.0549751
-0.0563146
-0.0576752
-0.0590545
-0.0604492
-0.0618552
-0.0632678
-0.0646809
-0.0660873
-0.0674782
-0.0688429
-0.0701684
-0.0714395
-0.0726365
-0.0737388
-0.0747143
-0.075543
-0.0761591
-0.0765888
-0.0766278
-0.0766191
-0.0756856
-0.0758042
-0.0734384
-0.0754911
-0.0738195
-0.000703541
-0.00219863
-0.00370931
-0.00529763
-0.00690591
-0.00850897
-0.0100826
-0.0116057
-0.0130623
-0.0144413
-0.0157314
-0.0169311
-0.018035
-0.0190428
-0.0199554
-0.020775
-0.0215049
-0.0221495
-0.0227136
-0.0232028
-0.0236229
-0.0239803
-0.0242813
-0.0245326
-0.024741
-0.0249131
-0.0250557
-0.0251754
-0.0252784
-0.0253709
-0.0254585
-0.0255468
-0.0256406