/*--------------------------------*- C++ -*----------------------------------*\
  =========                 |
  \\      /  F ield         | OpenFOAM: The Open Source CFD Toolbox
   \\    /   O peration     | Website:  https://openfoam.org
    \\  /    A nd           | Version:  7
     \\/     M anipulation  |
\*---------------------------------------------------------------------------*/
FoamFile
{
    version     2.0;
    format      ascii;
    class       surfaceScalarField;
    location    "100";
    object      phi;
}
// * * * * * * * * * * * * * * * * * * * * * * * * * * * * * * * * * * * * * //

dimensions      [0 3 -1 0 0 0 0];

internalField   nonuniform List<scalar> 
15760
(
0.000863945
3.4749e-06
-4.96748e-06
0.000866862
8.95562e-06
-1.18726e-05
0.00087118
1.60182e-05
-2.03358e-05
0.000876222
2.09184e-05
-2.59611e-05
0.000881437
2.31218e-05
-2.8337e-05
0.000886458
2.28485e-05
-2.7869e-05
0.000891036
2.04338e-05
-2.50123e-05
0.000895008
1.63023e-05
-2.02743e-05
0.000898266
1.08738e-05
-1.41318e-05
0.00090074
4.51964e-06
-6.99352e-06
0.000902409
-2.4803e-06
8.11226e-07
0.000903247
-9.8951e-06
9.05783e-06
0.000903257
-1.74558e-05
1.74452e-05
0.000902453
-2.50138e-05
2.58183e-05
0.000900855
-3.2437e-05
3.40344e-05
0.000898495
-3.96193e-05
4.19799e-05
0.000895407
-4.64771e-05
4.95654e-05
0.000891631
-5.29446e-05
5.67206e-05
0.000887211
-5.89695e-05
6.33895e-05
0.000882193
-6.45104e-05
6.95278e-05
0.000876628
-6.95345e-05
7.50996e-05
0.000870567
-7.40151e-05
8.00761e-05
0.000864064
-7.7931e-05
8.44337e-05
0.000857176
-8.12659e-05
8.81543e-05
0.000849959
-8.40083e-05
9.12249e-05
0.000842473
-8.61522e-05
9.36384e-05
0.000834776
-8.76974e-05
9.53942e-05
0.000826927
-8.86504e-05
9.64994e-05
0.000818983
-8.90245e-05
9.69686e-05
0.000810999
-8.88403e-05
9.68244e-05
0.000803027
-8.81249e-05
9.60969e-05
0.000795115
-8.69116e-05
9.48233e-05
0.000787308
-8.5239e-05
9.30464e-05
0.000779644
-8.315e-05
9.08141e-05
0.000772157
-8.06908e-05
8.81775e-05
0.000764876
-7.79094e-05
8.51901e-05
0.000757825
-7.48551e-05
8.19065e-05
0.000751021
-7.15769e-05
7.8381e-05
0.000744477
-6.81231e-05
7.46671e-05
0.000738201
-6.45403e-05
7.08164e-05
0.000732196
-6.08726e-05
6.68777e-05
0.00072646
-5.71616e-05
6.2897e-05
0.000720989
-5.34458e-05
5.89167e-05
0.000715774
-4.97602e-05
5.49756e-05
0.000710802
-4.61364e-05
5.11083e-05
0.000706058
-4.26022e-05
4.73458e-05
0.000701526
-3.91821e-05
4.37148e-05
0.000697184
-3.58969e-05
4.02384e-05
0.000693013
-3.27643e-05
3.69359e-05
0.000688988
-2.97986e-05
3.38232e-05
0.000685087
-2.70116e-05
3.09129e-05
0.000681284
-2.4412e-05
2.82149e-05
0.000677554
-2.20066e-05
2.57363e-05
0.000673872
-1.98e-05
2.34822e-05
0.000670211
-1.77949e-05
2.14556e-05
0.000666547
-1.59935e-05
1.96584e-05
0.000662851
-1.43953e-05
1.80907e-05
0.000659099
-1.30017e-05
1.67536e-05
0.000655265
-1.18123e-05
1.56466e-05
0.000651322
-1.08276e-05
1.47703e-05
0.000647245
-1.00487e-05
1.4126e-05
0.000643007
-9.4783e-06
1.37164e-05
0.000638582
-9.12298e-06
1.35474e-05
0.000633945
-8.98706e-06
1.36245e-05
0.000629069
-9.07881e-06
1.39543e-05
0.000623928
-9.39929e-06
1.45408e-05
0.000618492
-9.95964e-06
1.53955e-05
0.000612732
-1.07721e-05
1.65318e-05
0.000606618
-1.18506e-05
1.79652e-05
0.000600115
-1.32133e-05
1.97157e-05
0.000593192
-1.48868e-05
2.18098e-05
0.000585812
-1.68903e-05
2.42711e-05
0.000577935
-1.92623e-05
2.71386e-05
0.000569522
-2.20332e-05
3.04464e-05
0.000560528
-2.52451e-05
3.42394e-05
0.000550904
-2.89444e-05
3.85683e-05
0.000540598
-3.31891e-05
4.3495e-05
0.000529553
-3.80472e-05
4.90922e-05
0.000517706
-4.35973e-05
5.54441e-05
0.000504988
-4.99361e-05
6.26535e-05
0.000491324
-5.71804e-05
7.08444e-05
0.00047663
-6.54733e-05
8.01677e-05
0.000460813
-7.4991e-05
9.08082e-05
0.000443771
-8.59527e-05
0.000102994
0.000425394
-9.86319e-05
0.000117009
0.00040556
-0.000113377
0.000133211
0.000384143
-0.000130623
0.00015204
0.000361004
-0.000150975
0.000174114
0.00033602
-0.000175135
0.000200119
0.000309085
-0.000204143
0.000231078
0.000280151
-0.000239211
0.000268146
0.000249249
-0.000282307
0.000313208
0.000216742
-0.000335304
0.000367812
0.000182864
-0.000401989
0.000435867
0.000150004
-0.000485454
0.000518314
0.000117886
-0.000585817
0.000617935
9.5054e-05
-0.000718228
0.00074106
7.35901e-05
-0.000812418
0.000833881
5.05107e-05
-0.000956952
0.000980031
-0.000558953
0.000609464
0.00091345
2.42226e-06
0.000915699
6.7062e-06
0.000919194
1.25234e-05
0.00092342
1.66923e-05
0.000927877
1.86651e-05
0.000932208
1.85172e-05
0.000936157
1.64854e-05
0.000939542
1.29171e-05
0.00094224
8.17531e-06
0.000944173
2.58637e-06
0.000945309
-3.61566e-06
0.000945609
-1.01952e-05
0.000945075
-1.69223e-05
0.000943718
-2.36566e-05
0.000941558
-3.0277e-05
0.000938625
-3.66859e-05
0.000934954
-4.28064e-05
0.000930587
-4.85776e-05
0.000925569
-5.39517e-05
0.000919949
-5.88905e-05
0.000913779
-6.33641e-05
0.000907112
-6.73485e-05
0.000900006
-7.08247e-05
0.000892518
-7.37783e-05
0.000884709
-7.61993e-05
0.00087664
-7.80828e-05
0.000868371
-7.94287e-05
0.000859964
-8.02432e-05
0.000851478
-8.05384e-05
0.00084297
-8.03324e-05
0.000834495
-7.96494e-05
0.000826102
-7.85192e-05
0.000817839
-7.6976e-05
0.000809747
-7.50578e-05
0.000801862
-7.28058e-05
0.000794215
-7.02627e-05
0.000786833
-6.74723e-05
0.000779734
-6.44782e-05
0.000772934
-6.13235e-05
0.000766444
-5.80496e-05
0.000760267
-5.4696e-05
0.000754405
-5.12999e-05
0.000748855
-4.78953e-05
0.000743608
-4.45138e-05
0.000738655
-4.11832e-05
0.000733982
-3.79287e-05
0.000729572
-3.4772e-05
0.000725407
-3.17318e-05
0.000721466
-2.88236e-05
0.000717728
-2.60605e-05
0.000714169
-2.34529e-05
0.000710766
-2.10086e-05
0.000707493
-1.87337e-05
0.000704325
-1.66324e-05
0.000701237
-1.47071e-05
0.000698204
-1.296e-05
0.000695199
-1.139e-05
0.000692196
-9.99915e-06
0.000689171
-8.78677e-06
0.000686096
-7.75336e-06
0.000682947
-6.89984e-06
0.000679698
-6.22855e-06
0.000676322
-5.74717e-06
0.000672795
-5.4605e-06
0.000669092
-5.37579e-06
0.000665185
-5.492e-06
0.000661046
-5.82034e-06
0.000656646
-6.37199e-06
0.000651954
-7.15949e-06
0.00064694
-8.1991e-06
0.00064157
-9.51615e-06
0.000635805
-1.11258e-05
0.00062961
-1.3067e-05
0.000622942
-1.53654e-05
0.000615756
-1.80596e-05
0.000608004
-2.11917e-05
0.00059963
-2.48149e-05
0.000590574
-2.89916e-05
0.00058077
-3.37936e-05
0.000570144
-3.93098e-05
0.000558612
-4.5648e-05
0.000546079
-5.29408e-05
0.00053244
-6.13521e-05
0.000517575
-7.10872e-05
0.000501346
-8.24031e-05
0.000483599
-9.56308e-05
0.000464161
-0.000111184
0.00044283
-0.000129644
0.000419391
-0.000151697
0.00039361
-0.000178362
0.00036526
-0.000210861
0.000334097
-0.000251143
0.000300102
-0.00030131
0.000262976
-0.000364863
0.000223974
-0.000446452
0.000182307
-0.00054415
0.00014241
-0.000678331
9.97724e-05
-0.000769779
4.1032e-05
-0.000898212
-0.000517921
0.00095785
1.67834e-06
0.000959562
4.99446e-06
0.00096238
9.70516e-06
0.000965895
1.31775e-05
0.000969674
1.48864e-05
0.000973379
1.48119e-05
0.00097675
1.31139e-05
0.000979598
1.00697e-05
0.000981786
5.98698e-06
0.000983227
1.14517e-06
0.000983876
-4.26451e-06
0.000983693
-1.00115e-05
0.00098267
-1.59002e-05
0.000980818
-2.18039e-05
0.000978154
-2.76131e-05
0.000974708
-3.32398e-05
0.000970516
-3.86142e-05
0.000965619
-4.36814e-05
0.000960066
-4.83979e-05
0.000953905
-5.27296e-05
0.00094719
-5.66496e-05
0.000939978
-6.01366e-05
0.000932327
-6.31739e-05
0.000924298
-6.57492e-05
0.000915953
-6.7854e-05
0.000907354
-6.9484e-05
0.000898565
-7.06399e-05
0.000889649
-7.13269e-05
0.000880667
-7.1556e-05
0.000871678
-7.13433e-05
0.000862738
-7.07099e-05
0.000853901
-6.96819e-05
0.000845214
-6.82893e-05
0.000836722
-6.65654e-05
0.000828462
-6.45461e-05
0.000820468
-6.22689e-05
0.000812768
-5.9772e-05
0.000805384
-5.70939e-05
0.000798332
-5.4272e-05
0.000791625
-5.13429e-05
0.00078527
-4.8341e-05
0.000779269
-4.52989e-05
0.000773621
-4.22466e-05
0.000768318
-3.92114e-05
0.000763353
-3.6218e-05
0.000758713
-3.32883e-05
0.000754382
-3.04412e-05
0.000750343
-2.76931e-05
0.000746577
-2.50576e-05
0.000743063
-2.25459e-05
0.000739777
-2.01672e-05
0.000736697
-1.79284e-05
0.000733798
-1.58347e-05
0.000731055
-1.38898e-05
0.000728444
-1.20958e-05
0.000725939
-1.04546e-05
0.000723513
-8.96497e-06
0.000721143
-7.629e-06
0.000718803
-6.44608e-06
0.000716466
-5.41662e-06
0.000714107
-4.54138e-06
0.000711701
-3.82239e-06
0.000709223
-3.26931e-06
0.000706644
-2.88111e-06
0.000703944
-2.67589e-06
0.000701096
-2.64344e-06
0.000698071
-2.79541e-06
0.000694841
-3.14196e-06
0.000691374
-3.69333e-06
0.000687638
-4.46263e-06
0.000683603
-5.48151e-06
0.000679233
-6.75525e-06
0.000674487
-8.32101e-06
0.000669324
-1.02028e-05
0.0006637
-1.24352e-05
0.000657563
-1.50545e-05
0.000650857
-1.81089e-05
0.00064352
-2.16546e-05
0.000635482
-2.57555e-05
0.000626663
-3.04912e-05
0.000616974
-3.59588e-05
0.000606311
-4.22779e-05
0.000594556
-4.95972e-05
0.000581573
-5.81037e-05
0.000567202
-6.80323e-05
0.000551259
-7.96879e-05
0.000533528
-9.34533e-05
0.000513751
-0.000109866
0.000491631
-0.000129577
0.000466814
-0.000153545
0.000438907
-0.000182954
0.000407409
-0.000219646
0.000371924
-0.000265824
0.000331642
-0.000324581
0.000286802
-0.000401612
0.000236018
-0.000493367
0.000180644
-0.000622957
0.000120091
-0.000709226
4.05593e-05
-0.00081868
-0.000477361
0.000996982
1.1553e-06
0.000998283
3.69356e-06
0.00100055
7.43772e-06
0.00100346
1.02647e-05
0.00100665
1.16976e-05
0.0010098
1.16615e-05
0.00101266
1.02585e-05
0.00101502
7.70482e-06
0.00101676
4.25362e-06
0.00101775
1.46178e-07
0.00101797
-4.48334e-06
0.00101736
-9.39822e-06
0.00101591
-1.44468e-05
0.00101362
-1.95149e-05
0.00101051
-2.45063e-05
0.00100661
-2.93432e-05
0.00100196
-3.39639e-05
0.000996603
-3.83198e-05
0.000990578
-4.23727e-05
0.00098394
-4.60923e-05
0.000976746
-4.94554e-05
0.000969053
-5.24433e-05
0.000960921
-5.50419e-05
0.000952412
-5.72407e-05
0.000943591
-5.90327e-05
0.000934522
-6.04147e-05
0.000925269
-6.13874e-05
0.000915898
-6.19557e-05
0.000906471
-6.21293e-05
0.00089705
-6.1922e-05
0.000887692
-6.13522e-05
0.000878453
-6.04422e-05
0.000869381
-5.92179e-05
0.000860524
-5.77077e-05
0.00085192
-5.59426e-05
0.000843606
-5.39545e-05
0.00083561
-5.17765e-05
0.000827957
-4.94412e-05
0.000820667
-4.69811e-05
0.000813751
-4.44272e-05
0.000807219
-4.18092e-05
0.000801075
-3.91549e-05
0.000795318
-3.649e-05
0.000789945
-3.38378e-05
0.000784946
-3.12195e-05
0.000780311
-2.86535e-05
0.000776026
-2.6156e-05
0.000772074
-2.37409e-05
0.000768436
-2.14198e-05
0.000765093
-1.92022e-05
0.000762021
-1.70956e-05
0.000759198
-1.51059e-05
0.000756601
-1.32375e-05
0.000754205
-1.14933e-05
0.000751984
-9.87534e-06
0.000749915
-8.38532e-06
0.000747971
-7.02115e-06
0.000746128
-5.78551e-06
0.000744359
-4.67761e-06
0.00074264
-3.69779e-06
0.000740945
-2.84655e-06
0.000739248
-2.12491e-06
0.000737522
-1.54305e-06
0.000735753
-1.11199e-06
0.000733904
-8.26844e-07
0.000731951
-6.90774e-07
0.000729868
-7.12842e-07
0.000727628
-9.01596e-07
0.000725202
-1.26704e-06
0.000722562
-1.82278e-06
0.000719667
-2.58648e-06
0.000716478
-3.56675e-06
0.000712967
-4.81013e-06
0.000709089
-6.3242e-06
0.000704796
-8.14219e-06
0.000700037
-1.0296e-05
0.000694756
-1.28273e-05
0.000688887
-1.57858e-05
0.000682358
-1.92264e-05
0.000675085
-2.32183e-05
0.000666972
-2.78464e-05
0.00065791
-3.32155e-05
0.000647769
-3.94562e-05
0.000636399
-4.67336e-05
0.000623622
-5.52556e-05
0.000609228
-6.52938e-05
0.000592965
-7.71904e-05
0.000574525
-9.14265e-05
0.000553542
-0.000108594
0.000529558
-0.000129562
0.000502032
-0.000155427
0.000470243
-0.000187857
0.000433449
-0.00022903
0.000390396
-0.000281528
0.000340411
-0.000351628
0.000281636
-0.000434592
0.000213088
-0.000554408
0.000137514
-0.000633653
4.40847e-05
-0.000725251
-0.000433277
0.00103072
7.88013e-07
0.00103172
2.70003e-06
0.00103355
5.60792e-06
0.00103596
7.8477e-06
0.00103865
9.00762e-06
0.00104133
8.98872e-06
0.00104373
7.85191e-06
0.00104568
5.76162e-06
0.00104701
2.92277e-06
0.00104763
-4.79618e-07
0.00104747
-4.32281e-06
0.00104649
-8.41374e-06
0.00104466
-1.26217e-05
0.001042
-1.6851e-05
0.00103851
-2.10194e-05
0.00103423
-2.50603e-05
0.00102919
-2.89209e-05
0.00102343
-3.25594e-05
0.001017
-3.5943e-05
0.00100995
-3.90461e-05
0.00100234
-4.18488e-05
0.000994235
-4.43357e-05
0.000985688
-4.64949e-05
0.000976765
-4.8318e-05
0.000967532
-4.97996e-05
0.000958055
-5.09373e-05
0.0009484
-5.17321e-05
0.000938632
-5.21884e-05
0.000928818
-5.23145e-05
0.000919018
-5.21223e-05
0.000909293
-5.16272e-05
0.000899699
-5.08479e-05
0.000890287
-4.98061e-05
0.000881105
-4.85256e-05
0.000872194
-4.70321e-05
0.000863592
-4.53524e-05
0.00085533
-4.3514e-05
0.000847432
-4.15441e-05
0.000839921
-3.94696e-05
0.00083281
-3.73164e-05
0.00082611
-3.51093e-05
0.000819827
-3.28712e-05
0.00081396
-3.06233e-05
0.000808507
-2.8385e-05
0.000803461
-2.61736e-05
0.000798812
-2.40044e-05
0.000794547
-2.18906e-05
0.000790649
-1.98433e-05
0.000787101
-1.78722e-05
0.000783884
-1.59847e-05
0.000780975
-1.41869e-05
0.000778353
-1.24836e-05
0.000775994
-1.08781e-05
0.000773873
-9.37275e-06
0.000771967
-7.96906e-06
0.00077025
-6.6688e-06
0.000768698
-5.4688e-06
0.000767285
-4.37238e-06
0.000765986
-3.37864e-06
0.000764776
-2.48793e-06
0.00076363
-1.70031e-06
0.00076252
-1.01525e-06
0.000761429
-4.52419e-07
0.000760306
1.15403e-08
0.000759167
3.12165e-07
0.000757966
5.10433e-07
0.000756675
5.77793e-07
0.000755267
5.06169e-07
0.00075371
2.89944e-07
0.00075196
-7.25055e-08
0.000750016
-6.42255e-07
0.000747834
-1.38476e-06
0.000745356
-2.33261e-06
0.000742552
-3.51975e-06
0.000739377
-4.96698e-06
0.000735776
-6.69503e-06
0.000731691
-8.7426e-06
0.000727057
-1.1152e-05
0.000721799
-1.39682e-05
0.00071583
-1.72491e-05
0.000709049
-2.10659e-05
0.000701341
-2.55072e-05
0.000692568
-3.06835e-05
0.000682569
-3.67348e-05
0.000671152
-4.38382e-05
0.000658084
-5.22259e-05
0.000643085
-6.21916e-05
0.000625808
-7.41489e-05
0.000605826
-8.86123e-05
0.0005826
-0.000106335
0.000555463
-0.000128291
0.000523516
-0.00015591
0.000485718
-0.000191232
0.000440473
-0.000236282
0.000386266
-0.000297422
0.000320974
-0.0003693
0.000241706
-0.00047514
0.000153673
-0.000545619
4.99702e-05
-0.000621548
-0.000383307
0.00105898
5.28734e-07
0.00105975
1.93134e-06
0.00106124
4.11658e-06
0.00106326
5.82683e-06
0.00106554
6.72604e-06
0.00106781
6.71359e-06
0.00106984
5.82263e-06
0.00107143
4.17422e-06
0.00107243
1.92633e-06
0.00107273
-7.81095e-07
0.00107226
-3.84879e-06
0.00107096
-7.11852e-06
0.00106882
-1.04867e-05
0.00106585
-1.38752e-05
0.00106205
-1.72169e-05
0.00105744
-2.04572e-05
0.00105207
-2.35524e-05
0.00104598
-2.64683e-05
0.00103922
-2.91779e-05
0.00103183
-3.16604e-05
0.00102388
-3.38995e-05
0.00101543
-3.58831e-05
0.00100654
-3.7602e-05
0.00099727
-3.90496e-05
0.000987692
-4.0222e-05
0.000977873
-4.11179e-05
0.000967879
-4.17383e-05
0.000957778
-4.20874e-05
0.000947636
-4.21721e-05
0.000937515
-4.20021e-05
0.000927478
-4.15902e-05
0.000917582
-4.09514e-05
0.000907879
-4.01031e-05
0.000898418
-3.90647e-05
0.000889242
-3.78567e-05
0.000880391
-3.65006e-05
0.000871895
-3.50183e-05
0.000863783
-3.34317e-05
0.000856075
-3.17623e-05
0.000848789
-3.00306e-05
0.000841936
-2.82562e-05
0.000835523
-2.64573e-05
0.00082955
-2.46508e-05
0.000824017
-2.28517e-05
0.000818917
-2.10736e-05
0.00081424
-1.93283e-05
0.000809976
-1.76261e-05
0.000806108
-1.59755e-05
0.00080262
-1.43837e-05
0.000799491
-1.28563e-05
0.000796702
-1.1398e-05
0.000794231
-1.00119e-05
0.000792053
-8.70061e-06
0.000790146
-7.46565e-06
0.000788485
-6.3081e-06
0.000787046
-5.22969e-06
0.000785803
-4.22592e-06
0.000784732
-3.30098e-06
0.000783807
-2.45364e-06
0.000783003
-1.6841e-06
0.000782294
-9.91545e-07
0.000781655
-3.76377e-07
0.000781055
1.47471e-07
0.000780507
5.59631e-07
0.000779934
8.85072e-07
0.000779333
1.11185e-06
0.000778676
1.23516e-06
0.000777934
1.24757e-06
0.000777084
1.14068e-06
0.000776107
9.03862e-07
0.000774939
5.25847e-07
0.000773532
2.20699e-08
0.000771909
-7.09054e-07
0.00076999
-1.60138e-06
0.000767728
-2.70511e-06
0.000765078
-4.04441e-06
0.000761977
-5.64227e-06
0.00075836
-7.53497e-06
0.00075415
-9.75786e-06
0.000749258
-1.23567e-05
0.00074358
-1.53882e-05
0.000736996
-1.89233e-05
0.000729363
-2.30507e-05
0.000720512
-2.78834e-05
0.000710238
-3.35644e-05
0.000698295
-4.02823e-05
0.000684379
-4.82762e-05
0.000668113
-5.78831e-05
0.000649028
-6.95271e-05
0.000626518
-8.38246e-05
0.000599821
-0.000101594
0.000567899
-0.000123989
0.000529473
-0.000152806
0.000482699
-0.000189507
0.000425327
-0.00024005
0.000355102
-0.000299075
0.000267552
-0.00038759
0.000169392
-0.00044746
5.73199e-05
-0.000509475
-0.000325987
0.00108167
3.42646e-07
0.00108228
1.32267e-06
0.00108351
2.87802e-06
0.00108523
4.1103e-06
0.00108719
4.76494e-06
0.00108915
4.75498e-06
0.00109088
4.09616e-06
0.00109218
2.87288e-06
0.0010929
1.20058e-06
0.00109295
-8.23825e-07
0.00109222
-3.12264e-06
0.00109068
-5.57555e-06
0.0010883
-8.10532e-06
0.00108507
-1.06523e-05
0.00108102
-1.3165e-05
0.00107617
-1.5601e-05
0.00107054
-1.7927e-05
0.00106419
-2.01161e-05
0.00105716
-2.21479e-05
0.0010495
-2.40062e-05
0.00104128
-2.5679e-05
0.00103256
-2.71573e-05
0.00102339
-2.84344e-05
0.00101385
-2.95061e-05
0.00100399
-3.03698e-05
0.000993902
-3.10252e-05
0.000983637
-3.14735e-05
0.000973268
-3.17185e-05
0.000962862
-3.17658e-05
0.000952483
-3.1623e-05
0.000942193
-3.13001e-05
0.00093205
-3.08087e-05
0.000922109
-3.01622e-05
0.000912419
-2.93749e-05
0.000903025
-2.84627e-05
0.000893966
-2.74416e-05
0.000885276
-2.63281e-05
0.000876983
-2.51386e-05
0.00086911
-2.3889e-05
0.000861674
-2.25947e-05
0.000854688
-2.127e-05
0.000848159
-1.99285e-05
0.000842091
-1.85823e-05
0.000836481
-1.72423e-05
0.000831326
-1.59182e-05
0.000826616
-1.46184e-05
0.00082234
-1.33501e-05
0.000818483
-1.2119e-05
0.00081503
-1.093e-05
0.00081196
-9.78673e-06
0.000809254
-8.69208e-06
0.00080689
-7.64806e-06
0.000804846
-6.65605e-06
0.000803097
-5.71675e-06
0.00080162
-4.83099e-06
0.000800391
-4.00064e-06
0.000799384
-3.21894e-06
0.000798574
-2.49144e-06
0.000797937
-1.81687e-06
0.000797449
-1.19544e-06
0.000797084
-6.2664e-07
0.000796808
-1.00943e-07
0.000796618
3.37994e-07
0.000796466
7.12037e-07
0.000796344
1.00698e-06
0.000796219
1.23684e-06
0.000796064
1.38996e-06
0.000795852
1.45909e-06
0.000795555
1.43816e-06
0.000795138
1.32082e-06
0.000794577
1.08681e-06
0.000793861
7.37744e-07
0.000792883
2.69295e-07
0.000791648
-3.66386e-07
0.000790118
-1.17554e-06
0.00078822
-2.14568e-06
0.000785899
-3.32134e-06
0.000783091
-4.72684e-06
0.000779716
-6.38368e-06
0.000775686
-8.32611e-06
0.000770894
-1.0596e-05
0.000765216
-1.3246e-05
0.000758507
-1.63418e-05
0.000750592
-1.99678e-05
0.000741258
-2.4231e-05
0.000730249
-2.92732e-05
0.000717248
-3.52749e-05
0.000701855
-4.24905e-05
0.000683572
-5.12438e-05
0.000661748
-6.20006e-05
0.000635552
-7.53986e-05
0.000603856
-9.22919e-05
0.000565192
-0.000114142
0.00051757
-0.000141886
0.000458128
-0.000180608
0.000384576
-0.000225523
0.000291092
-0.000294105
0.000185068
-0.000341436
6.57818e-05
-0.000390189
-0.000260205
0.00109874
2.04294e-07
0.00109924
8.2297e-07
0.0011003
1.8186e-06
0.00110179
2.61448e-06
0.00110352
3.0402e-06
0.00110524
3.03245e-06
0.00110674
2.59708e-06
0.00110782
1.78715e-06
0.00110835
6.76477e-07
0.0011082
-6.73949e-07
0.00110729
-2.20869e-06
0.00110556
-3.84922e-06
0.001103
-5.54262e-06
0.00109959
-7.24823e-06
0.00109536
-8.93052e-06
0.00109032
-1.05603e-05
0.0010845
-1.21141e-05
0.00107796
-1.35737e-05
0.00107074
-1.49246e-05
0.00106289
-1.61561e-05
0.00105447
-1.72603e-05
0.00104554
-1.82313e-05
0.00103617
-1.90654e-05
0.00102643
-1.97603e-05
0.00101637
-2.03152e-05
0.00100608
-2.07303e-05
0.000995613
-2.10076e-05
0.000985045
-2.115e-05
0.000974441
-2.11621e-05
0.000963868
-2.10495e-05
0.000953387
-2.08193e-05
0.000943058
-2.04797e-05
0.000932935
-2.00399e-05
0.00092307
-1.95099e-05
0.000913508
-1.89003e-05
0.000904288
-1.82219e-05
0.000895446
-1.74859e-05
0.00088701
-1.6703e-05
0.000879005
-1.58837e-05
0.000871449
-1.50382e-05
0.000864354
-1.41755e-05
0.00085773
-1.33044e-05
0.00085158
-1.24323e-05
0.000845904
-1.15659e-05
0.000840696
-1.07111e-05
0.000835951
-9.87277e-06
0.000831655
-9.05476e-06
0.000827797
-8.2602e-06
0.000824358
-7.49147e-06
0.000821322
-6.75025e-06
0.000818667
-6.03765e-06
0.000816373
-5.35428e-06
0.000814418
-4.70046e-06
0.000812777
-4.07602e-06
0.000811428
-3.48136e-06
0.000810345
-2.91795e-06
0.000809504
-2.37787e-06
0.00080888
-1.86758e-06
0.000808448
-1.38517e-06
0.000808184
-9.30792e-07
0.00080806
-5.03318e-07
0.000808061
-1.01903e-07
0.000808154
2.4555e-07
0.000808319
5.46456e-07
0.000808521
8.04743e-07
0.000808741
1.01767e-06
0.000808952
1.17865e-06
0.000809128
1.28292e-06
0.000809241
1.32487e-06
0.000809263
1.29893e-06
0.000809154
1.19575e-06
0.000808875
1.0168e-06
0.00080842
7.24428e-07
0.000807718
3.35956e-07
0.000806709
-1.67176e-07
0.00080538
-8.16273e-07
0.000803651
-1.59226e-06
0.000801454
-2.52948e-06
0.000798713
-3.64305e-06
0.000795339
-4.95173e-06
0.000791224
-6.4819e-06
0.000786246
-8.26725e-06
0.000780254
-1.03503e-05
0.000773072
-1.27858e-05
0.000764485
-1.56438e-05
0.000754229
-1.90173e-05
0.00074198
-2.30261e-05
0.000727328
-2.78384e-05
0.000709756
-3.36717e-05
0.00068859
-4.08342e-05
0.000662954
-4.97631e-05
0.000631673
-6.10106e-05
0.000593146
-7.56155e-05
0.000545335
-9.4074e-05
0.000484887
-0.00012016
0.000409574
-0.00015021
0.000312404
-0.000196935
0.000200834
-0.000229866
7.51431e-05
-0.000264498
-0.000185062
0.00111014
9.46394e-08
0.00111058
3.91192e-07
0.00111152
8.7408e-07
0.00111287
1.26263e-06
0.00111444
1.47136e-06
0.00111601
1.46653e-06
0.00111736
1.24882e-06
0.0011183
8.42949e-07
0.00111869
2.86908e-07
0.00111841
-3.9646e-07
0.00111738
-1.17417e-06
0.00111553
-2.00551e-06
0.00111286
-2.86462e-06
0.00110934
-3.72967e-06
0.00110499
-4.58143e-06
0.00109983
-5.4039e-06
0.0010939
-6.18424e-06
0.00108724
-6.91236e-06
0.0010799
-7.58063e-06
0.00107192
-8.18351e-06
0.00106338
-8.71727e-06
0.00105433
-9.1796e-06
0.00104483
-9.56938e-06
0.00103496
-9.88656e-06
0.00102478
-1.01318e-05
0.00101435
-1.03063e-05
0.00100376
-1.04124e-05
0.000993059
-1.04525e-05
0.000982327
-1.04299e-05
0.000971626
-1.03484e-05
0.000961019
-1.02123e-05
0.000950566
-1.00264e-05
0.000940322
-9.79581e-06
0.000930338
-9.52602e-06
0.00092066
-9.22262e-06
0.000911329
-8.89128e-06
0.000902381
-8.53757e-06
0.000893845
-8.16686e-06
0.000885746
-7.78422e-06
0.000878102
-7.39429e-06
0.000870927
-7.00121e-06
0.000864232
-6.6086e-06
0.000858019
-6.21949e-06
0.000852289
-5.83606e-06
0.000847038
-5.46046e-06
0.000842259
-5.09391e-06
0.000837942
-4.73712e-06
0.000834072
-4.39038e-06
0.000830634
-4.05363e-06
0.00082761
-3.72644e-06
0.000824981
-3.40818e-06
0.000822725
-3.09801e-06
0.000820819
-2.79508e-06
0.000819241
-2.49816e-06
0.000817968
-2.20794e-06
0.000816977
-1.92753e-06
0.00081624
-1.64088e-06
0.000815734
-1.36079e-06
0.000815433
-1.08476e-06
0.000815314
-8.11552e-07
0.000815353
-5.4203e-07
0.00081553
-2.78835e-07
0.000815796
-2.06776e-08
0.000816154
1.87983e-07
0.000816571
3.87874e-07
0.00081702
5.69096e-07
0.000817474
7.24682e-07
0.000817907
8.49961e-07
0.000818293
9.39024e-07
0.0008186
9.91083e-07
0.000818797
9.9919e-07
0.000818851
9.62323e-07
0.000818712
8.63704e-07
0.000818355
6.92865e-07
0.000817741
4.46957e-07
0.000816779
1.45931e-07
0.000815442
-2.5541e-07
0.000813667
-7.54534e-07
0.000811367
-1.34272e-06
0.000808451
-2.03594e-06
0.000804814
-2.84529e-06
0.000800333
-3.78541e-06
0.000794857
-4.87521e-06
0.000788211
-6.13963e-06
0.000780179
-7.61128e-06
0.000770496
-9.33414e-06
0.000758836
-1.13664e-05
0.000744787
-1.37894e-05
0.000727827
-1.67117e-05
0.000707275
-2.0282e-05
0.000682238
-2.47262e-05
0.000651527
-3.03002e-05
0.000613481
-3.7569e-05
0.000566094
-4.66875e-05
0.000505639
-5.97056e-05
0.000430052
-7.46222e-05
0.000331348
-9.82317e-05
0.000216677
-0.000115195
8.60251e-05
-0.000133846
-9.90367e-05
0.00111586
-1.43279e-09
0.00111626
-7.54508e-09
0.00111714
-1.29589e-08
0.00111842
-1.65321e-08
0.00111991
-1.84269e-08
0.0011214
-2.01209e-08
0.00112267
-2.35194e-08
0.00112354
-3.03893e-08
0.00112387
-4.21786e-08
0.00112354
-6.1669e-08
0.00112245
-8.40669e-08
0.00112055
-1.09842e-07
0.00111783
-1.37145e-07
0.00111426
-1.63255e-07
0.00110986
-1.85383e-07
0.00110466
-2.00913e-07
0.00109868
-2.07634e-07
0.00109197
-2.03923e-07
0.00108458
-1.88869e-07
0.00107656
-1.623e-07
0.00106797
-1.24755e-07
0.00105887
-7.73909e-08
0.00104932
-2.18213e-08
0.00103939
3.98039e-08
0.00102916
1.05303e-07
0.00101868
1.72373e-07
0.00100803
2.38652e-07
0.000997272
3.01923e-07
0.000986482
3.60129e-07
0.000975722
4.11415e-07
0.000965056
4.5415e-07
0.000954543
4.86938e-07
0.000944238
5.08608e-07
0.000934194
5.18224e-07
0.000924456
5.1509e-07
0.000915066
4.98759e-07
0.00090606
4.69045e-07
0.000897467
4.26042e-07
0.000889312
3.70137e-07
0.000881616
3.02028e-07
0.000874392
2.22721e-07
0.00086765
1.33525e-07
0.000861395
3.59008e-08
0.000855626
-6.77604e-08
0.000850342
-1.75758e-07
0.000845534
-2.85986e-07
0.000841192
-3.95678e-07
0.000837304
-5.02338e-07
0.000833854
-6.03443e-07
0.000830824
-6.96462e-07
0.000828195
-7.78969e-07
0.000825945
-8.48674e-07
0.000824054
-9.0363e-07
0.000822498
-9.41786e-07
0.000821253
-9.63404e-07
0.000820292
-9.66787e-07
0.000819596
-9.44644e-07
0.000819139
-9.03201e-07
0.000818894
-8.40227e-07
0.000818838
-7.55972e-07
0.000818945
-6.4888e-07
0.000819192
-5.25418e-07
0.000819567
-3.96305e-07
0.000820021
-2.65882e-07
0.000820538
-1.29202e-07
0.000821095
1.29655e-08
0.000821666
1.53071e-07
0.000822226
2.90438e-07
0.000822744
4.20544e-07
0.000823193
5.42499e-07
0.00082354
6.51459e-07
0.000823752
7.50875e-07
0.000823791
8.24923e-07
0.000823612
8.71178e-07
0.000823171
8.88542e-07
0.000822437
8.79404e-07
0.000821331
8.50605e-07
0.000819783
7.94005e-07
0.000817725
7.15215e-07
0.000815068
6.20983e-07
0.000811708
5.15067e-07
0.000807521
4.01414e-07
0.000802361
2.8433e-07
0.000796053
1.68202e-07
0.000788385
5.71702e-08
0.000779095
-4.41349e-08
0.000767861
-1.32773e-07
0.000754278
-2.06369e-07
0.000737829
-2.62283e-07
0.000717846
-2.99427e-07
0.000693438
-3.18296e-07
0.000663458
-3.19353e-07
0.000626194
-3.05304e-07
0.000579785
-2.78919e-07
0.000520323
-2.43702e-07
0.000445905
-2.04182e-07
0.000347836
-1.6258e-07
0.000232766
-1.24865e-07
9.90038e-05
-8.39742e-08
-3.28223e-08
-0.000672411
0.00956646
-0.00944108
-0.000798033
0.00955169
-0.00942607
-0.000924377
0.00952815
-0.0094018
-0.001052
0.00950647
-0.00937885
-0.00118127
0.00948829
-0.00935902
-0.00131248
0.00947455
-0.00934333
-0.00144608
0.0094659
-0.0093323
-0.00158253
0.00946287
-0.00932642
-0.00172252
0.00946626
-0.00932627
-0.00186708
0.00947788
-0.00933332
-0.00201813
0.00950113
-0.00935009
-0.00217811
0.00954346
-0.00938347
-0.0023511
0.00961309
-0.0094401
-0.00253896
0.00972093
-0.00953307
-0.0027364
0.009856
-0.00965856
-0.00290419
0.00996997
-0.00980219
-0.00293608
0.00985586
-0.00982396
-0.00257652
0.00906746
-0.00942701
-0.0015084
0.00661511
-0.00768324
0.0021614
-0.0036698
-0.000679922
0.00969134
-0.000805307
0.00967708
-0.000931486
0.00965433
-0.00105901
0.009634
-0.00118811
0.00961739
-0.00131916
0.00960559
-0.0014525
0.00959924
-0.00158859
0.00959896
-0.00172808
0.00960576
-0.00187205
0.00962185
-0.00202233
0.00965141
-0.00218154
0.00970266
-0.00235256
0.00978412
-0.00253411
0.00990248
-0.00271068
0.0100326
-0.00282274
0.010082
-0.0027326
0.00976572
-0.00220151
0.00853636
-0.00107159
0.0054852
0.00108981
-0.00068715
0.00981576
-0.000812189
0.00980211
-0.000938159
0.0097803
-0.00106549
0.00976133
-0.00119439
0.0097463
-0.00132522
0.00973641
-0.00145829
0.00973231
-0.00159404
0.00973471
-0.00173312
0.00974484
-0.00187663
0.00976536
-0.00202644
0.00980122
-0.0021849
0.00986112
-0.00235339
0.00995261
-0.00252572
0.0100748
-0.00267443
0.0101813
-0.00272038
0.010128
-0.00250816
0.0095535
-0.00183664
0.00786484
-0.000694986
0.00434354
0.000394827
-0.000694061
0.00993972
-0.00081871
0.00992676
-0.000944394
0.00990598
-0.00107145
0.00988838
-0.00120009
0.00987494
-0.00133062
0.00986694
-0.00146335
0.00986504
-0.0015987
0.00987006
-0.00173731
0.00988345
-0.00188032
0.00990836
-0.00202951
0.0099504
-0.00218668
0.0100183
-0.00235106
0.010117
-0.00251029
0.010234
-0.00262406
0.0102951
-0.00259703
0.0101009
-0.00226776
0.00922423
-0.00147987
0.00707695
-0.000428953
0.00329263
-3.41259e-05
-0.00070063
0.0100632
-0.000824867
0.010051
-0.000950206
0.0100313
-0.00107692
0.0100151
-0.00120522
0.0100032
-0.00133538
0.0099971
-0.00146767
0.00999734
-0.0016025
0.0100049
-0.00174051
0.0100215
-0.00188284
0.0100507
-0.00203111
0.0100987
-0.0021862
0.0101734
-0.00234432
0.0102751
-0.0024858
0.0103755
-0.00255738
0.0103666
-0.00245255
0.00999612
-0.00201862
0.0087903
-0.00115559
0.00621393
-0.00024367
0.00238071
-0.000277796
-0.000706861
0.0101861
-0.000830669
0.0101748
-0.000955626
0.0101563
-0.00108197
0.0101414
-0.00120987
0.0101311
-0.00133958
0.0101268
-0.00147134
0.0101291
-0.00160553
0.0101391
-0.00174279
0.0101587
-0.00188417
0.0101921
-0.0020309
0.0102454
-0.0021825
0.010325
-0.00233147
0.0104241
-0.00245053
0.0104946
-0.00247483
0.0103909
-0.00229134
0.00981263
-0.0017699
0.00826885
-0.00087985
0.00532388
-0.000126002
0.00162686
-0.000403799
-0.000712729
0.0103085
-0.000836084
0.0102982
-0.000960615
0.0102808
-0.00108653
0.0102673
-0.00121397
0.0102586
-0.00134316
0.010256
-0.0014743
0.0102602
-0.00160775
0.0102725
-0.00174415
0.0102951
-0.00188446
0.0103324
-0.00202947
0.0103904
-0.00217703
0.0104725
-0.00231514
0.0105622
-0.00240821
0.0105876
-0.00238126
0.010364
-0.0021202
0.00955157
-0.00152534
0.00767399
-0.000659671
0.00445822
-6.24474e-05
0.00102964
-0.000466246
-0.000718284
0.0104303
-0.000841194
0.0104211
-0.000965292
0.0104049
-0.00109078
0.0103928
-0.00121775
0.0103856
-0.00134639
0.0103846
-0.00147689
0.0103907
-0.00160957
0.0104052
-0.00174501
0.0104306
-0.00188393
0.0104713
-0.00202622
0.0105327
-0.00216731
0.0106136
-0.00229017
0.0106851
-0.00235207
0.0106495
-0.0022725
0.0102844
-0.00194238
0.00922146
-0.0012961
0.00702771
-0.000494715
0.00365683
-3.80637e-05
0.000572984
-0.00050431
-0.000723369
0.0105514
-0.000845825