/*--------------------------------*- C++ -*----------------------------------*\
  =========                 |
  \\      /  F ield         | OpenFOAM: The Open Source CFD Toolbox
   \\    /   O peration     | Website:  https://openfoam.org
    \\  /    A nd           | Version:  7
     \\/     M anipulation  |
\*---------------------------------------------------------------------------*/
FoamFile
{
    version     2.0;
    format      ascii;
    class       volVectorField;
    location    "20";
    object      U;
}
// * * * * * * * * * * * * * * * * * * * * * * * * * * * * * * * * * * * * * //

dimensions      [0 1 -1 0 0 0 0];

internalField   nonuniform List<vector> 
125
(
(1.15749 -0.0978401 1.25003e-17)
(1.1625 -0.115937 3.52354e-19)
(1.16791 -0.122025 -3.47266e-18)
(1.17697 -0.13999 -4.4755e-17)
(1.19087 -0.154349 -4.69489e-18)
(1.20908 -0.178129 1.11025e-18)
(1.15653 -0.0977593 1.30331e-17)
(1.16129 -0.116502 5.14213e-19)
(1.16673 -0.123004 -3.87742e-18)
(1.17556 -0.141643 -4.78875e-17)
(1.18934 -0.156877 -4.19647e-18)
(1.20703 -0.181896 1.59196e-18)
(1.15554 -0.0976642 1.41089e-17)
(1.16003 -0.117057 7.30383e-19)
(1.16548 -0.123973 -9.07513e-18)
(1.17405 -0.143276 -4.56865e-17)
(1.18766 -0.159359 -3.58656e-18)
(1.20477 -0.185555 1.84344e-18)
(1.15451 -0.097553 1.06342e-17)
(1.15872 -0.1176 -4.01563e-18)
(1.16417 -0.124934 -9.29882e-18)
(1.17246 -0.144895 -4.83233e-17)
(1.18585 -0.161819 -3.22504e-18)
(1.20233 -0.189161 2.25702e-18)
(1.15344 -0.0974253 1.10444e-17)
(1.15734 -0.11813 1.89802e-19)
(1.16279 -0.125883 -5.11608e-18)
(1.17077 -0.146497 -5.19066e-17)
(1.1839 -0.164252 -3.29015e-18)
(1.1997 -0.192699 2.33632e-18)
(1.15235 -0.0972805 1.17943e-17)
(1.15594 -0.118645 4.58732e-18)
(1.16136 -0.126819 -4.95181e-18)
(1.16901 -0.148077 -5.49298e-17)
(1.18183 -0.166653 2.34133e-18)
(1.15132 -0.0971184 1.28282e-17)
(1.15458 -0.119144 1.10613e-18)
(1.16001 -0.12774 -4.71663e-18)
(1.16732 -0.149632 -5.83725e-17)
(1.17982 -0.169014 2.9711e-18)
(1.15033 -0.0969397 1.3491e-17)
(1.15328 -0.119631 6.39892e-19)
(1.15877 -0.128651 -5.06656e-18)
(1.16579 -0.151164 -5.74298e-17)
(1.17808 -0.171337 9.0187e-18)
(1.14908 -0.0967457 1.86716e-17)
(1.1517 -0.12011 5.54282e-19)
(1.15722 -0.129557 -9.73483e-18)
(1.164 -0.152686 -6.09193e-17)
(1.17615 -0.173639 5.41583e-18)
(1.14691 -0.0965347 2.40558e-17)
(1.14907 -0.120573 4.51099e-19)
(1.15431 -0.130454 -1.08009e-17)
(1.16058 -0.154198 -5.97822e-17)
(1.1722 -0.175923 6.6995e-18)
(1.16649 -0.09805 1.06797e-20)
(1.17369 -0.109303 -4.26496e-18)
(1.17928 -0.111532 -1.72007e-17)
(1.19069 -0.122609 -1.7062e-17)
(1.20575 -0.12776 6.02023e-18)
(1.22912 -0.140331 2.57458e-18)
(1.16579 -0.0981263 4.66908e-19)
(1.17284 -0.110035 1.07538e-18)
(1.17846 -0.112657 -1.28966e-17)
(1.18977 -0.124445 -1.82826e-17)
(1.2049 -0.130592 6.46294e-18)
(1.22817 -0.144339 2.5623e-18)
(1.16504 -0.0981816 2.39811e-19)
(1.17192 -0.110754 9.09448e-19)
(1.17754 -0.113768 -8.29351e-18)
(1.18869 -0.126265 -2.59156e-17)
(1.20381 -0.133395 7.38929e-18)
(1.22682 -0.148301 -4.45779e-18)
(1.16424 -0.0982169 6.03544e-19)
(1.17094 -0.111463 1.4303e-18)
(1.17655 -0.114869 -9.15302e-18)
(1.18752 -0.128076 -2.77786e-17)
(1.20258 -0.136183 1.70535e-18)
(1.22521 -0.152242 -3.99304e-18)
(1.1634 -0.0982311 8.46565e-19)
(1.1699 -0.112159 1.23145e-18)
(1.17549 -0.115958 -3.36734e-18)
(1.18624 -0.129872 -2.99578e-17)
(1.20121 -0.138944 2.8147e-18)
(1.22337 -0.156152 3.02712e-18)
(1.16252 -0.0982235 4.81109e-19)
(1.1688 -0.11284 8.06135e-19)
(1.17436 -0.117032 -3.76271e-18)
(1.18486 -0.13165 -2.58134e-17)
(1.19971 -0.141671 -3.7687e-18)
(1.2213 -0.160023 1.73007e-17)
(1.16158 -0.0981931 7.71131e-19)
(1.16763 -0.113506 -4.37243e-18)
(1.17315 -0.118088 -3.97339e-18)
(1.18338 -0.133404 -2.81186e-17)
(1.19805 -0.144355 -3.78071e-18)
(1.21897 -0.163842 1.05801e-17)
(1.16061 -0.0981392 5.98485e-18)
(1.1664 -0.114154 -4.53491e-18)
(1.17187 -0.119124 -3.5316e-18)
(1.18177 -0.13513 -3.6147e-17)
(1.1962 -0.146985 -4.11596e-18)
(1.21636 -0.167593 1.21992e-17)
(1.15958 -0.0980607 6.31058e-18)
(1.1651 -0.114782 3.21326e-19)
(1.17051 -0.120136 -4.01185e-18)
(1.18008 -0.136821 -3.83425e-17)
(1.19424 -0.149553 -4.29824e-18)
(1.21359 -0.17126 6.26371e-18)
(1.15851 -0.0979575 1.18146e-17)
(1.16377 -0.115389 3.77526e-19)
(1.16915 -0.121124 -3.69407e-18)
(1.17842 -0.138475 -3.62233e-17)
(1.19238 -0.152057 -4.40566e-18)
(1.21103 -0.17484 7.04821e-18)
(1.07081 -0.0272647 -2.49872e-17)
(1.09227 -0.0922515 -1.84526e-17)
(1.06295 -0.0353448 2.48204e-17)
(1.08301 -0.127893 9.3288e-19)
(1.05318 -0.0373203 4.03658e-19)
(1.0767 -0.145312 -2.30437e-17)
(1.03976 -0.0416117 -2.63543e-17)
(1.06814 -0.179549 3.07381e-17)
(1.02374 -0.0451681 -4.82219e-18)
(1.06089 -0.214205 2.90541e-17)
)
;

boundaryField
{
    inlet
    {
        type            uniformFixedValue;
        uniformValue    constant (1 0 0);
        value           nonuniform 0();
    }
    outlet
    {
        type            pressureInletOutletVelocity;
        value           nonuniform 0();
    }
    polygon
    {
        type            fixedValue;
        value           nonuniform 0();
    }
    top
    {
        type            symmetryPlane;
    }
    bottom
    {
        type            symmetryPlane;
    }
    outside
    {
        type            zeroGradient;
    }
    procBoundary1to0
    {
        type            processor;
        value           nonuniform List<vector> 5((1.0397 -0.0577261 4.00169e-18) (1.03621 -0.0730953 -6.04334e-18) (1.03221 -0.0776624 -1.32101e-17) (1.02672 -0.0873857 4.42974e-18) (1.01811 -0.0916123 1.06641e-17));
    }
    procBoundary1to2
    {
        type            processor;
        value           nonuniform List<vector> 6((1.16716 -0.0979848 4.88618e-18) (1.17448 -0.108605 -3.992e-18) (1.18003 -0.110504 -1.12171e-17) (1.19151 -0.120916 -1.60735e-17) (1.20642 -0.12516 -5.83263e-19) (1.22981 -0.13663 2.00338e-18));
    }
    procBoundary1to5
    {
        type            processor;
        value           nonuniform List<vector> 
23
(
(1.23371 -0.208678 1.69783e-17)
(1.23104 -0.214072 1.04448e-17)
(1.22786 -0.219137 1.12703e-17)
(1.22431 -0.224015 1.19194e-17)
(1.22037 -0.22868 1.24435e-17)
(1.19689 -0.196152 7.73697e-18)
(1.19689 -0.196152 7.73697e-18)
(1.19409 -0.199501 7.70496e-18)
(1.19167 -0.202734 8.40708e-18)
(1.18922 -0.205859 3.0225e-18)
(1.18442 -0.208889 9.19312e-18)
(1.25833 -0.148345 -1.76653e-17)
(1.25726 -0.155135 -1.89569e-17)
(1.25558 -0.161795 -2.04635e-17)
(1.25362 -0.168382 -2.22098e-17)
(1.25139 -0.174845 -1.54315e-17)
(1.24888 -0.181147 -1.76269e-17)
(1.24601 -0.18725 -1.17124e-17)
(1.24272 -0.193113 -5.28471e-18)
(1.23918 -0.198693 1.41113e-18)
(1.23601 -0.203973 1.69356e-17)
(1.00732 -0.0485673 -2.61236e-18)
(1.05049 -0.258785 2.0169e-17)
)
;
    }
}


// ************************************************************************* //
