/*--------------------------------*- C++ -*----------------------------------*\
  =========                 |
  \\      /  F ield         | OpenFOAM: The Open Source CFD Toolbox
   \\    /   O peration     | Website:  https://openfoam.org
    \\  /    A nd           | Version:  7
     \\/     M anipulation  |
\*---------------------------------------------------------------------------*/
FoamFile
{
    version     2.0;
    format      ascii;
    class       surfaceScalarField;
    location    "54";
    object      phi;
}
// * * * * * * * * * * * * * * * * * * * * * * * * * * * * * * * * * * * * * //

dimensions      [0 3 -1 0 0 0 0];

internalField   nonuniform List<scalar> 
14496
(
0.00253452
2.73669e-07
-6.32863e-07
0.00253529
5.96156e-07
-1.36386e-06
0.00253767
1.94814e-06
-4.32836e-06
0.00254131
2.99933e-06
-6.64639e-06
0.00254568
3.50856e-06
-7.87231e-06
0.00255015
3.44977e-06
-7.92503e-06
0.0025541
2.80659e-06
-6.75703e-06
0.002557
1.69304e-06
-4.59419e-06
0.00255848
2.62464e-07
-1.73787e-06
0.00255829
-1.38362e-06
1.57136e-06
0.00255626
-3.14919e-06
5.17654e-06
0.0025523
-4.98687e-06
8.94906e-06
0.00254632
-6.88964e-06
1.28727e-05
0.00253822
-8.86985e-06
1.69643e-05
0.00252792
-1.09453e-05
2.12511e-05
0.00251525
-1.31708e-05
2.5841e-05
0.00250003
-1.55872e-05
3.08031e-05
0.00248207
-1.82124e-05
3.61712e-05
0.00246117
-2.10593e-05
4.19662e-05
0.00243711
-2.41231e-05
4.8175e-05
0.00240975
-2.73793e-05
5.47469e-05
0.00237894
-3.07846e-05
6.15949e-05
0.00234461
-3.42799e-05
6.86015e-05
0.00230678
-3.77954e-05
7.56295e-05
0.0022655
-4.12565e-05
8.25327e-05
0.00222093
-4.45893e-05
8.91665e-05
0.00217326
-4.77241e-05
9.53948e-05
0.00212276
-5.05975e-05
0.000101094
0.00206976
-5.31521e-05
0.00010615
0.00201464
-5.53353e-05
0.000110461
0.0019578
-5.70977e-05
0.00011393
0.00189973
-5.83933e-05
0.000116464
0.00184093
-5.91801e-05
0.000117982
0.00178194
-5.94231e-05
0.000118414
0.00172332
-5.90977e-05
0.000117714
0.00166566
-5.81938e-05
0.000115862
0.0016095
-5.67186e-05
0.000112874
0.00155539
-5.46989e-05
0.000108806
0.00150382
-5.21812e-05
0.00010375
0.00145522
-4.9231e-05
9.78396e-05
0.00140991
-4.5929e-05
9.12356e-05
0.00136815
-4.23663e-05
8.41199e-05
0.00133011
-3.86381e-05
7.66823e-05
0.00129584
-3.48376e-05
6.91082e-05
0.00126532
-3.1051e-05
6.15683e-05
0.00123846
-2.73535e-05
5.42121e-05
0.00121511
-2.3808e-05
4.71641e-05
0.00119505
-2.04652e-05
4.05251e-05
0.00117804
-1.73634e-05
3.43734e-05
0.00116382
-1.45241e-05
2.87429e-05
0.00115212
-1.19541e-05
2.36537e-05
0.00114266
-9.66623e-06
1.91307e-05
0.00113514
-7.66071e-06
1.51716e-05
0.00112931
-5.92927e-06
1.17591e-05
0.00112491
-4.45766e-06
8.86379e-06
0.00112169
-3.22742e-06
6.4484e-06
0.00111944
-2.21676e-06
4.46883e-06
0.00111796
-1.40144e-06
2.87636e-06
0.0011171
-7.56104e-07
1.62059e-06
0.0011167
-2.53386e-07
6.49389e-07
0.00111666
1.25449e-07
-8.66878e-08
0.00111686
3.93983e-07
-5.9586e-07
0.00111723
5.80037e-07
-9.49384e-07
0.0011177
6.99963e-07
-1.16765e-06
0.00111822
7.65812e-07
-1.28127e-06
0.00111874
7.86281e-07
-1.30675e-06
0.00111923
7.68046e-07
-1.25772e-06
0.00111965
7.13802e-07
-1.13839e-06
0.00111997
6.26164e-07
-9.43976e-07
0.00112015
5.08402e-07
-6.86804e-07
0.00112016
3.53989e-07
-3.64103e-07
0.00111998
1.55671e-07
2.19314e-08
0.00111952
-8.01606e-08
5.37641e-07
0.00111877
-3.76842e-07
1.13253e-06
0.00111765
-7.26176e-07
1.84501e-06
0.0011161
-1.14318e-06
2.69309e-06
0.00111404
-1.63929e-06
3.69905e-06
0.00111138
-2.22774e-06
4.88912e-06
0.00110801
-2.92438e-06
6.29469e-06
0.0011038
-3.74805e-06
7.95312e-06
0.00109861
-4.72168e-06
9.90975e-06
0.00109227
-5.87331e-06
1.22201e-05
0.00108455
-7.2376e-06
1.49526e-05
0.00107522
-8.85793e-06
1.8193e-05
0.00106396
-1.0789e-05
2.20493e-05
0.0010504
-1.31011e-05
2.66599e-05
0.00103408
-1.58847e-05
3.22031e-05
0.00101442
-1.92585e-05
3.89123e-05
0.000990706
-2.33825e-05
4.7101e-05
0.000961998
-2.84576e-05
5.7166e-05
0.000927068
-3.48116e-05
6.97411e-05
0.000884447
-4.26797e-05
8.53008e-05
0.000831734
-5.30726e-05
0.000105785
0.000767086
-6.5389e-05
0.000130038
0.000684297
-8.41377e-05
0.000166926
0.000584912
-0.000101594
0.000200979
0.000451383
-0.000136601
0.00027013
0.000304603
-0.000152019
0.000298798
0.000127764
-0.000179971
0.00035681
-0.000131182
0.000258947
0.00256749
-1.60573e-12
0.00256809
-3.05e-11
0.00257004
-8.20912e-11
0.00257304
-1.51174e-10
0.00257655
-2.31731e-10
0.00258
-3.17806e-10
0.0025828
-4.04629e-10
0.0025845
-4.87026e-10
0.00258476
-5.59132e-10
0.00258338
-6.33898e-10
0.00258023
-6.9587e-10
0.00257524
-7.40789e-10
0.00256835
-7.72415e-10
0.00255949
-7.89796e-10
0.00254854
-7.93122e-10
0.00253537
-7.82596e-10
0.00251978
-7.58241e-10
0.00250157
-7.19492e-10
0.00248051
-6.66625e-10
0.00245639
-5.99687e-10
0.00242901
-5.19004e-10
0.00239823
-4.2556e-10
0.00236395
-3.19903e-10
0.00232615
-2.03024e-10
0.0022849
-7.64869e-11
0.00224031
5.8553e-11
0.00219258
1.99969e-10
0.00214199
3.45708e-10
0.00208883
4.93594e-10
0.0020335
6.41248e-10
0.0019764
7.8574e-10
0.00191801
9.24354e-10
0.00185882
1.05428e-09
0.0017994
1.17293e-09
0.0017403
1.27764e-09
0.00168211
1.36632e-09
0.00162539
1.43708e-09
0.00157069
1.48818e-09
0.0015185
1.51816e-09
0.00146927
1.52588e-09
0.00142334
1.51034e-09
0.00138097
1.471e-09
0.00134233
1.40779e-09
0.00130749
1.32105e-09
0.00127644
1.21171e-09
0.00124909
1.08135e-09
0.00122528
9.32155e-10
0.00120481
7.66792e-10
0.00118745
5.88127e-10
0.00117292
3.99252e-10
0.00116097
2.03713e-10
0.0011513
4.43228e-12
0.00114364
-1.93428e-10
0.00113771
-3.87443e-10
0.00113326
-5.73604e-10
0.00113003
-7.48517e-10
0.00112781
-9.0906e-10
0.00112641
-1.05216e-09
0.00112566
-1.1792e-09
0.00112541
-1.27232e-09
0.00112553
-1.29516e-09
0.00112593
-1.32252e-09
0.00112651
-1.31224e-09
0.00112721
-1.296e-09
0.00112798
-1.24578e-09
0.00112877
-1.1619e-09
0.00112953
-1.04989e-09
0.00113025
-9.38586e-10
0.00113088
-7.68176e-10
0.00113138
-5.86252e-10
0.00113174
-4.09773e-10
0.0011319
-2.36245e-10
0.00113182
-2.58042e-11
0.00113144
1.49865e-10
0.00113071
3.10421e-10
0.00112957
4.60252e-10
0.00112793
5.92381e-10
0.0011257
7.01272e-10
0.00112277
7.83004e-10
0.00111903
8.35261e-10
0.0011143
8.57209e-10
0.00110843
8.49503e-10
0.00110119
8.14215e-10
0.00109233
7.5459e-10
0.00108154
6.74728e-10
0.00106844
5.79364e-10
0.00105256
4.73564e-10
0.0010333
3.62715e-10
0.00100991
2.51824e-10
0.000981456
1.46363e-10
0.000946644
4.93889e-11
0.000903964
-3.28007e-11
0.000850892
-1.03065e-10
0.000785503
-1.52305e-10
0.000701366
-1.88996e-10
0.000599772
-2.06834e-10
0.000463172
-2.14873e-10
0.000311153
-2.1462e-10
0.000131182
-1.97607e-10
-1.34002e-10
0.00228775
1.17179e-06
-2.07787e-06
0.00228962
2.49647e-06
-4.36195e-06
0.00229441
7.54095e-06
-1.23345e-05
0.00230148
1.15062e-05
-1.85767e-05
0.00231013
1.38018e-05
-2.24477e-05
0.00231948
1.42432e-05
-2.36001e-05
0.00232865
1.27395e-05
-2.19053e-05
0.00233687
9.6313e-06
-1.78524e-05
0.00234358
5.36823e-06
-1.20781e-05
0.00234837
3.76741e-07
-5.16548e-06
0.00235104
-5.16216e-06
2.49537e-06
0.00235133
-1.09919e-05
1.07016e-05
0.00234913
-1.70924e-05
1.92933e-05
0.00234432
-2.34639e-05
2.82737e-05
0.00233679
-3.01384e-05
3.76645e-05
0.00232641
-3.72572e-05
4.76361e-05
0.00231305
-4.49093e-05
5.82712e-05
0.00229657
-5.31352e-05
6.96151e-05
0.00227685
-6.19563e-05
8.16798e-05
0.00225377
-7.13449e-05
9.44174e-05
0.00222728
-8.12216e-05
0.000107716
0.00219733
-9.14558e-05
0.000121401
0.00216396
-0.000101875
0.000135249
0.00212724
-0.000112281
0.000149004
0.0020873
-0.000122463
0.000162401
0.00204434
-0.000132213
0.000175175
0.00199859
-0.000141339
0.000187083
0.00195036
-0.000149661
0.000197898
0.00189996
-0.000157017
0.000207415
0.00184777
-0.000163259
0.000215442
0.00179422
-0.000168245
0.000221796
0.00173976
-0.000171844
0.000226309
0.00168487
-0.000173935
0.000228827
0.00163006
-0.00017442
0.000229226
0.00157587
-0.000173233
0.000227423
0.00152282
-0.00017035
0.000223396
0.00147143
-0.000165799
0.000217187
0.00142218
-0.000159666
0.000208918
0.00137549
-0.000152096
0.000198785
0.00133172
-0.000143285
0.000187053
0.00129116
-0.000133475
0.000174044
0.00125398
-0.000122936
0.000160114
0.0012203
-0.000111947
0.00014563
0.00119013
-0.000100781
0.000130948
0.00116342
-8.96865e-05
0.000116395
0.00114005
-7.8883e-05
0.000102254
0.00111984
-6.85515e-05
8.87603e-05
0.00110257
-5.88387e-05
7.61034e-05
0.001088
-4.98512e-05
6.44253e-05
0.00107587
-4.16486e-05
5.37826e-05
0.00106589
-3.42534e-05
4.42259e-05
0.00105781
-2.76983e-05
3.57846e-05
0.00105134
-2.19771e-05
2.8444e-05
0.00104624
-1.70615e-05
2.21629e-05
0.00104227
-1.2906e-05
1.68779e-05
0.00103921
-9.45354e-06
1.25107e-05
0.00103688
-6.63742e-06
8.97089e-06
0.0010351
-4.38453e-06
6.16022e-06
0.00103374
-2.61998e-06
3.9794e-06
0.00103268
-1.26842e-06
2.33127e-06
0.00103181
-2.5523e-07
1.12852e-06
0.00103107
4.41503e-07
2.9351e-07
0.00103039
9.03708e-07
-2.26062e-07
0.00102971
1.18004e-06
-4.94105e-07
0.00102898
1.30146e-06
-5.7496e-07
0.00102818
1.29491e-06
-4.93066e-07
0.00102727
1.17857e-06
-2.74889e-07
0.00102625
9.55815e-07
6.57917e-08
0.00102504
6.39947e-07
5.73309e-07
0.00102361
2.35797e-07
1.19079e-06
0.00102195
-2.82684e-07
1.94549e-06
0.00102003
-9.33273e-07
2.85348e-06
0.00101779
-1.70475e-06
3.94894e-06
0.00101517
-2.62957e-06
5.24327e-06
0.00101213
-3.72792e-06
6.76844e-06
0.0010086
-5.02792e-06
8.56169e-06
0.00100449
-6.56283e-06
1.0666e-05
0.000999734
-8.37125e-06
1.31317e-05
0.000994215
-1.04995e-05
1.60192e-05
0.000987817
-1.30026e-05
1.93999e-05
0.000980404
-1.59473e-05
2.33607e-05
0.000971812
-1.94151e-05
2.80073e-05
0.000961849
-2.35069e-05
3.34703e-05
0.000950285
-2.83485e-05
3.99125e-05
0.000936845
-3.40984e-05
4.75384e-05
0.000921195
-4.09596e-05
5.66093e-05
0.000902928
-4.91929e-05
6.746e-05
0.000881539
-5.91406e-05
8.05294e-05
0.000856402
-7.12577e-05
9.6395e-05
0.000826719
-8.61315e-05
0.000115815
0.000791495
-0.000104653
0.000139876
0.000749445
-0.000127606
0.000169656
0.000698823
-0.000157597
0.000208218
0.0006378
-0.000193393
0.000254417
0.000562247
-0.000246826
0.000322378
0.000473247
-0.000296649
0.00038565
0.000357311
-0.000396319
0.000512255
0.00023758
-0.000433182
0.000552914
8.48577e-05
-0.000517933
0.000670655
-0.00035228
0.000437137
0.00237556
0.00237669
0.0023799
0.00238476
0.00239069
0.00239701
0.00240299
0.00240803
0.00241166
0.00241361
0.00241362
0.00241158
0.00240736
0.00240086
0.00239197
0.00238056
0.00236645
0.00234949
0.0023295
0.00230633
0.00227985
0.00224999
0.00221672
0.00218007
0.00214014
0.00209709
0.00205114
0.00200258
0.00195171
0.00189891
0.0018446
0.00178922
0.00173326
0.00167726
0.00162174
0.00156725
0.00151433
0.00146347
0.00141512
0.00136968
0.00132744
0.00128862
0.00125336
0.00122168
0.00119357
0.0011689
0.00114751
0.00112919
0.00111372
0.00110081
0.00109021
0.00108164
0.00107484
0.00106954
0.00106549
0.00106249
0.00106032
0.00105881
0.00105781
0.00105719
0.00105685
0.0010567
0.00105665
0.00105666
0.00105668
0.00105667
0.00105659
0.00105641
0.00105611
0.00105566
0.00105501
0.0010541
0.00105293
0.00105143
0.00104955
0.00104722
0.00104435
0.00104087
0.00103666
0.00103162
0.00102558
0.00101838
0.00100983
0.000999673
0.000987624
0.000973324
0.000956334
0.000936106
0.000911949
0.000882984
0.000848072
0.000805767
0.000753956
0.0006906
0.0006107
0.000515029
0.00038884
0.000254456
9.3333e-05
0.00189343
3.50587e-06
-5.90709e-06
0.0018982
7.27493e-06
-1.20487e-05
0.00190809
1.90257e-05
-2.8921e-05
0.00192162
2.81226e-05
-4.1652e-05
0.00193744
3.39253e-05
-4.97401e-05
0.00195411
3.59331e-05
-5.26056e-05
0.00197036
3.40421e-05
-5.02929e-05
0.00198522
2.89465e-05
-4.38074e-05
0.00199803
2.15126e-05
-3.4319e-05
0.00200835
1.25177e-05
-2.28376e-05
0.00201591
2.5309e-06
-1.00913e-05
0.00202059
-8.20073e-06
3.51663e-06
0.00202221
-1.94728e-05
1.78617e-05
0.00202068
-3.12292e-05
3.27509e-05
0.00201595
-4.34981e-05
4.82327e-05
0.00200792
-5.64431e-05
6.44711e-05
0.00199655
-7.01464e-05
8.15139e-05
0.0019818
-8.46464e-05
9.94e-05
0.00196364
-9.99384e-05
0.0001181
0.00194207
-0.000115949
0.000137513
0.00191715
-0.000132533
0.000157454
0.00188896
-0.000149474
0.000177671
0.00185761
-0.000166504
0.000197852
0.00182327
-0.000183319
0.000217655
0.00178615
-0.000199608
0.000236728
0.00174649
-0.000215064
0.000254729
0.00170455
-0.000229401
0.000271338
0.00166064
-0.000242356
0.00028626
0.00161511
-0.000253686
0.000299221
0.00156831
-0.000263164
0.000309962
0.00152065
-0.000270575
0.000318236
0.00147255
-0.000275716
0.000323815
0.00142446
-0.000278408
0.000326495
0.00137685
-0.000278507
0.000326118
0.00133019
-0.000275923
0.000322591
0.00128491
-0.000270638
0.000315909
0.00124147
-0.000262718
0.000306164
0.00120023
-0.000252323
0.000293559
0.00116153
-0.000239702
0.000278402
0.00112563
-0.000225189
0.000261096
0.00109269
-0.000209182
0.000242114
0.00106284
-0.000192118
0.000221972
0.00103609
-0.000174443
0.000201195
0.00101239
-0.000156589
0.000180283
0.00099165
-0.000138946
0.00015969
0.000973697
-0.000121855
0.000139808
0.000958334
-0.0001056
0.000120963
0.000945316
-9.04025e-05
0.000103421
0.000934403
-7.64156e-05
8.73285e-05
0.000925344
-6.37286e-05
7.27874e-05
0.000917864
-5.23866e-05
5.98665e-05
0.000911711
-4.24146e-05
4.85675e-05
0.000906649
-3.37864e-05
3.88492e-05
0.000902457
-2.64452e-05
3.0637e-05
0.000898939
-2.0308e-05
2.3826e-05
0.000895921
-1.52746e-05
1.8292e-05
0.000893256
-1.12309e-05
1.38959e-05
0.00089082
-8.05421e-06
1.04904e-05
0.000888512
-5.62232e-06
7.93067e-06
0.000886249
-3.81799e-06
6.08085e-06
0.000883965
-2.53309e-06
4.81756e-06
0.000881614
-1.68723e-06
4.03791e-06
0.000879154
-1.19459e-06
3.65467e-06
0.000876547
-9.86277e-07
3.59303e-06
0.000873767
-1.00914e-06
3.78916e-06
0.000870789
-1.22493e-06
4.20302e-06
0.000867588
-1.60759e-06
4.80832e-06
0.000864144
-2.15206e-06
5.59641e-06
0.000860417
-2.85421e-06
6.58124e-06
0.000856376
-3.71408e-06
7.7547e-06
0.00085199
-4.74866e-06
9.13537e-06
0.000847221
-5.97982e-06
1.07486e-05
0.000842025
-7.4332e-06
1.26289e-05
0.000836352
-9.1357e-06
1.48087e-05
0.000830146
-1.11257e-05
1.73322e-05
0.000823342
-1.34476e-05
2.0251e-05
0.00081587
-1.61535e-05
2.36257e-05
0.000807648
-1.93045e-05
2.75268e-05
0.000798582
-2.29738e-05
3.20392e-05
0.000788568
-2.72479e-05
3.72623e-05
0.000777483
-3.22314e-05
4.33169e-05
0.000765185
-3.80524e-05
5.03497e-05
0.000751512
-4.4868e-05
5.85408e-05
0.000736273
-5.2874e-05
6.81135e-05
0.000719242
-6.23159e-05
7.93467e-05
0.000700154
-7.35066e-05
9.25947e-05
0.000678693
-8.68451e-05
0.000108306
0.000654479
-0.000102855
0.000127069
0.000627059
-0.000122216
0.000149635
0.000595875
-0.000145835
0.000177019
0.000560303
-0.000174938
0.00021051
0.000519457
-0.000210958
0.000251804
0.000472711
-0.000256968
0.000303714
0.000418415
-0.000312778
0.000367074
0.000356399
-0.000391911
0.000453927
0.000285481
-0.000467702
0.00053862
0.000204859
-0.00061213
0.000692751
0.000125877
-0.000652076
0.000731058
1.78773e-05
-0.000793356
0.000901355
-0.000463203
0.00048108
0.00200793
0.00201085
0.00201754
0.00202708
0.00203856
0.0020509
0.00206303
0.00207413
0.00208356
0.00209091
0.00209594
0.00209844
0.00209826
0.00209531
0.00208947
0.00208066
0.00206879
0.00205376
0.0020355
0.00201397
0.00198915
0.00196108
0.00192982
0.00189551
0.0018583
0.00181841
0.00177609
0.00173164
0.00168537
0.00163764
0.00158887
0.00153946
0.00148988
0.0014406
0.0013921
0.00134485
0.00129932
0.00125592
0.001215
0.00117687
0.00114173
0.00110972
0.00108091
0.00105527
0.00103272
0.00101312
0.000996278
0.000981979
0.000969989
0.000960043
0.000951882
0.000945252
0.00093991
0.000935627
0.000932197
0.000929433
0.000927173
0.000925279
0.000923637
0.00092215
0.000920745
0.000919352
0.000917931
0.00091645
0.000914866
0.000913148
0.000911266
0.00090918
0.000906899
0.000904375
0.000901572
0.000898446
0.000894962
0.000891069
0.000886712
0.000881826
0.000876339
0.000870166
0.000863211
0.000855363
0.000846492
0.000836447
0.00082505
0.000812088
0.000797311
0.000780413
0.000761028
0.000738703
0.000712882
0.000682862
0.0006478
0.000606498
0.000557748
0.000499387
0.000429855
0.000347803
0.000247928
0.000148766
2.60655e-05
0.00144339
9.31994e-06
-1.46772e-05
0.00145315
1.87185e-05
-2.84822e-05
0.00147009
4.13162e-05
-5.8252e-05
0.00149108
5.78831e-05
-7.88822e-05
0.00151388
6.80203e-05
-9.08135e-05
0.00153658
7.13424e-05
-9.40478e-05
0.00155783
6.81994e-05
-8.94462e-05
0.00157676
5.99815e-05
-7.89072e-05
0.00159288
4.81957e-05
-6.43149e-05
0.00160593
3.40799e-05
-4.71379e-05
0.0016158
1.85026e-05
-2.83694e-05
0.00162241
1.98538e-06
-8.59526e-06
0.00162577
-1.53881e-05
1.20286e-05
0.00162579
-3.33542e-05
3.33286e-05
0.00162246
-5.19659e-05
5.53005e-05
0.0016158
-7.13589e-05
7.80228e-05
0.00160581
-9.15745e-05
0.00010156
0.00159253
-0.000112639
0.000125921
0.00157601
-0.000134496
0.000151015
0.00155635
-0.000157015
0.000176679
0.00153366
-0.000179978
0.000202663
0.00150811
-0.000203095
0.000228644
0.00147989
-0.000226023
0.000254247
0.0014492
-0.000248385
0.00027907
0.0014163
-0.000269802
0.000302707
0.00138143
-0.000289905
0.00032477
0.00134489
-0.000308348
0.000344891
0.00130697
-0.000324813
0.000362731
0.001268
-0.000338998
0.000377968
0.00122833
-0.000350622
0.000390296
0.00118832
-0.000359415
0.000399423
0.00114836
-0.000365124
0.000405081
0.00110885
-0.000367531
0.000407041
0.00107019
-0.000366473
0.000405136
0.00103276
-0.000361862
0.000399289
0.000996934
-0.000353709
0.000389538
0.00096303
-0.000342141
0.000376045
0.000931325
-0.000327406
0.000359111
0.000902033
-0.000309872
0.000339164
0.000875299
-0.000290007
0.000316741
0.000851197
-0.000268357
0.000292459
0.000829732
-0.000245507
0.000266971
0.000810848
-0.000222048
0.000240932
0.000794429
-0.000198539
0.000214958
0.000780314
-0.000175485
0.000189599
0.000768307
-0.000153318
0.000165326
0.00075818
-0.000132394
0.000142521
0.000749703
-0.000112999
0.000121476
0.000742627
-9.53024e-05
0.000102379
0.00073669
-7.93956e-05
8.53323e-05
0.000731652
-6.53499e-05
7.03875e-05
0.000727302
-5.31455e-05
5.74954e-05
0.000723446
-4.27244e-05
4.65809e-05
0.000719911
-3.39919e-05
3.75271e-05
0.000716552
-2.68195e-05
3.01784e-05
0.000713249
-2.10594e-05
2.43621e-05
0.000709906
-1.65486e-05
1.98914e-05
0.000706449
-1.31173e-05
1.65745e-05
0.000702822
-1.06015e-05
1.4229e-05
0.000698982
-8.84934e-06
1.26893e-05
0.000694898
-7.72529e-06
1.1809e-05
0.000690548
-7.11743e-06
1.14672e-05
0.000685914
-6.93003e-06
1.15642e-05
0.000680978
-7.08336e-06
1.20191e-05
0.000675723
-7.51488e-06
1.27698e-05
0.000670131
-8.18447e-06
1.37773e-05
0.000664178
-9.06828e-06
1.50205e-05
0.000657843
-1.01607e-05
1.64961e-05
0.000651097
-1.14714e-05
1.82174e-05
0.000643908
-1.30011e-05
2.01906e-05
0.000636239
-1.47728e-05
2.24418e-05
0.00062805
-1.68158e-05
2.50043e-05
0.000619298
-1.91676e-05
2.79199e-05
0.000609932
-2.18671e-05
3.12332e-05
0.000599897
-2.49646e-05
3.49995e-05
0.000589132
-2.8518e-05
3.92827e-05
0.00057757
-3.25952e-05
4.4157e-05
0.000565137
-3.72753e-05
4.97089e-05
0.000551748
-4.26535e-05
5.60424e-05
0.000537311
-4.88404e-05
6.32771e-05
0.000521723
-5.59705e-05
7.15589e-05
0.000504866
-6.42072e-05
8.10639e-05
0.00048661
-7.37497e-05
9.20061e-05
0.000466805
-8.48449e-05
0.000104649
0.000445286
-9.77995e-05
0.000119319
0.000421864
-0.000113001
0.000136424
0.000396328
-0.000130939
0.000156474
0.000368447
-0.000152247
0.000180129
0.00033797
-0.000177735
0.000208212
0.000304645
-0.000208482
0.000241807
0.000268267
-0.000245809
0.000282187
0.000228541
-0.000291568
0.000331294
0.000185965
-0.000348185
0.000390761
0.000139651
-0.000417592
0.000463906
9.48357e-05
-0.000508143
0.000552959
4.62741e-05
-0.000600396
0.000648957
1.73435e-05
-0.000749421
0.000778351
-1.45842e-05
-0.000789796
0.000821724
-2.50956e-05
-0.000956966
0.000967478
-0.000437826
0.000412731
0.00155236
0.00155903
0.00157142
0.00158765
0.00160593
0.00162467
0.00164258
0.00165875
0.00167263
0.00168387
0.00169228
0.00169778
0.00170026
0.00169965
0.00169592
0.00168903
0.00167897
0.00166573
0.00164934
0.00162983
0.00160731
0.00158189
0.00155372
0.00152299
0.00148991
0.00145473
0.00141772
0.00137917
0.00133939
0.00129873
0.00125756
0.00121625
0.00117521
0.00113486
0.00109559
0.00105779
0.00102181
0.000987961
0.000956492
0.00092758
0.000901337
0.000877802
0.000856949
0.000838693
0.000822898
0.000809389
0.000797957
0.000788379
0.000780405
0.000773797
0.000768313
0.000763735
0.00075986
0.000756505
0.000753512
0.000750744
0.000748092
0.000745465
0.000742794
0.000740025
0.000737118
0.000734038
0.000730763
0.000727272
0.000723547
0.000719565
0.000715305
0.000710741
0.000705851
0.000700604
0.000694967
0.0006889
0.000682361
0.000675303
0.00066767
0.000659403
0.000650434
0.000640685
0.000630071
0.000618493
0.000605839
0.000591982
0.000576773
0.000560041
0.000541589
0.000521182
0.00049855
0.000473371
0.000445271
0.000413808
0.000378509
0.000338746
0.000294275
0.000243756
0.00018954
0.000127765
7.10954e-05
1.23577e-05
-4.32537e-05
-0.000887481
0.010534
-0.0103036
-0.00111856
0.0105251
-0.010294
-0.00135049
0.010512
-0.0102801
-0.00158368
0.0105025
-0.0102693
-0.00181825
0.0104983
-0.0102638
-0.0020546
0.0105005
-0.0102641
-0.00229319
0.0105102
-0.0102716
-0.0025346
0.010529
-0.0102876
-0.00277961
0.010559
-0.010314
-0.00302886
0.0106022
-0.0103529
-0.0032814
0.010658
-0.0104055
-0.00352919
0.0107154
-0.0104677
-0.00374281
0.0107303
-0.0105167
-0.00384428
0.0105789
-0.0104775
-0.00368351
0.010006
-0.0101667
-0.00307787
0.00864132
-0.00924696
-0.0019872
0.0061551
-0.00724577
-0.000772965
0.00279918
-0.00401342
-0.000100344
0.000219623
-0.000892244
-0.000521438
0.000421093
-0.000893268
0.0107631
-0.00112559
0.0107574
-0.00135774
0.0107441
-0.00159167
0.0107364
-0.00182678
0.0107334
-0.00206377
0.0107375
-0.00230291
0.0107493
-0.00254473
0.0107708
-0.00278949
0.0108038
-0.00303609
0.0108488
-0.00327852
0.0109005
-0.00349709
0.010934
-0.00364241
0.0108757
-0.00361873
0.0105552
-0.00328729
0.00967453
-0.00253855
0.00789258
-0.00144847
0.00506503
-0.000479963
0.00183067
-3.54449e-05
-0.000224895
-0.000556883
-0.000916761
0.01012
-0.00993578
-0.00110128
0.0101102
-0.00992566
-0.00128694
0.0100948
-0.00990915
-0.00147401
0.0100828
-0.00989569
-0.0016627
0.0100756
-0.00988689
-0.00185336
0.0100741
-0.00988343
-0.00204638
0.0100794
-0.00988634
-0.0022423
0.0100927
-0.00989682
-0.00244185
0.0101161
-0.00991658
-0.00264589
0.010152
-0.00994794
-0.00285485
0.0102026
-0.00999367
-0.00306658
0.010268
-0.0100562
-0.00327023
0.0103358
-0.0101321
-0.00343021
0.0103593
-0.0101993
-0.00346375
0.0102112
-0.0101776
-0.00322293
0.00961732
-0.00985814
-0.00252618
0.00808326
-0.00878001
-0.00131544
0.00518873
-0.00639947
-0.000272674
0.0016707
-0.00271347
-0.000280733
8.05934e-06
-0.000925034
-0.00110885
-0.0012941
-0.00148062
-0.00166879
-0.00185881
-0.00205105
-0.00224589
-0.00244374
-0.0026447
-0.00284757
-0.00304726
-0.00322823
-0.00334641
-0.00330198
-0.00293163
-0.00209413
-0.000918817
-0.00014036
-0.000904866
0.00980471
-0.00967256
-0.00103752
0.00979424
-0.00966159
-0.00117146
0.00977625
-0.00964231
-0.00130712
0.00976136
-0.0096257
-0.00144467
0.00975065
-0.0096131
-0.00158447
0.00974514
-0.00960534
-0.00172691
0.00974563
-0.00960319
-0.00187247
0.00975336
-0.0096078
-0.0020218
0.00976992
-0.00962059
-0.00217567
0.00979761
-0.00964375
-0.00233478
0.00983929
-0.00968018
-0.00249905
0.00989791
-0.00973363
-0.00266587
0.00997274
-0.00980592
-0.0028239
0.0100553
-0.00989723
-0.00294125
0.0100974
-0.00998006
-0.00292645
0.0099562
-0.009971
-0.00260362
0.0092384
-0.00956123
-0.001758
0.00734826
-0.00819389
-0.000572053
0.00373281
-0.00491875
0.000333135
-0.000905188
-0.000915113
-0.00104653
-0.00117943
-0.00131375
-0.00145
-0.00158829
-0.001729
-0.00187246
-0.00201912
-0.00216944
-0.00232382
-0.00248216
-0.00264151
-0.00278556
-0.00286577
-0.00276771
-0.00230933
-0.00136053
-0.000341194
-0.000853688
0.00959762
-0.00952104
-0.000931218
0.00958582
-0.00950829
-0.00101041
0.0095648
-0.00948561
-0.00109146
0.00954663
-0.00946558
-0.00117485
0.00953175
-0.00944836
-0.0012609
0.00952161
-0.00943557
-0.00135002
0.0095167
-0.00942758
-0.00144267
0.00951822
-0.00942557
-0.00153948
0.00952742
-0.0094306
-0.00164126
0.00954637
-0.00944459
-0.00174894
0.00957779
-0.00947011
-0.00186315
0.00962544
-0.00951122
-0.00198461
0.00969144
-0.00956998
-0.00211109
0.00978027
-0.00965378
-0.00223622
0.0098749
-0.00974978
-0.00231539
0.00993729
-0.00985811
-0.00224785
0.00972017
-0.00978771
-0.00179554
0.00874134
-0.00919364
-0.000836426
0.00584912
-0.00680824
0.00147888
-0.00231531
-0.000865504
-0.000941276
-0.00101878
-0.00109785
-0.00117919
-0.00126292
-0.0013494
-0.00143899
-0.00153216
-0.00162954
-0.00173194
-0.00184013
-0.00195462
-0.00207158
-0.00217674
-0.00221045
-0.00205151
-0.00150406
-0.000573694
-0.00076737
0.00950356
-0.009484
-0.000788582
0.00948928
-0.00946807
-0.000811957
0.00946461
-0.00944123
-0.000837729
0.00944232
-0.00941654
-0.000866236
0.00942268
-0.00939417
-0.000897875
0.00940702
-0.00937538
-0.000933124
0.00939581
-0.00936056
-0.000972519
0.00939019
-0.0093508
-0.00101672
0.00939108
-0.00934687
-0.00106665
0.00940016
-0.00935022
-0.00112353
0.00941989
-0.00936301
-0.00118849
0.00945417
-0.00938921
-0.00126348
0.00950501
-0.00943002
-0.0013491
0.00958013
-0.00949451
-0.00144774
0.00966951
-0.00957087
-0.00154537
0.00978752
-0.0096899
-0.00160569
0.00978109
-0.00972077
-0.00144819
0.00942025
-0.00957775
-0.000855453
0.00739886
-0.00799159
0.00295011
-0.00380556
-0.000780038
-0.000799042
-0.000820046
-0.000843315
-0.000868996
-0.00089754
-0.000929308
-0.000964691
-0.00100422
-0.00104865
-0.00109887
-0.00115593
-0.0012209
-0.00129455
-0.00137482
-0.00144541
-0.00145203
-0.00122543
-0.000634805
-0.000652191
0.00952348
-0.00956063
-0.000617676
0.00950507
-0.00953959
-0.000585459
0.0094763
-0.00950852
-0.000556282
0.00944857
-0.00947775
-0.000530201
0.00942355
-0.00944963
-0.0005079
0.0094013
-0.0094236
-0.000490042
0.00938272
-0.00940058
-0.000476787
0.00936879
-0.00938205
-0.000469099
0.00936011
-0.0093678
-0.000468325
0.00935769
-0.00935847
-0.000475686
0.00936388
-0.00935651
-0.000492971
0.00938173
-0.00936445
-0.000522003
0.00941358
-0.00938455
-0.000567177
0.00946421
-0.00941904
-0.000630213
0.00952861
-0.00946558
-0.000721295
0.00962322
-0.00953214
-0.000820906
0.00966027
-0.00956065
-0.000863943
0.00958168
-0.00953865
-0.000623195
0.00822617
-0.00846692
0.00423423
-0.00485743
-0.000664663
-0.000627663
-0.000592596
-0.000560567
-0.000531182
-0.00050527
-0.00048311
-0.000465112
-0.000451877
-0.000444406
-0.000443544
-0.000451018
-0.000467453
-0.000497743
-0.000539997
-0.000606678
-0.000667183
-0.000663251
-0.000428669
-0.000516126
0.00965489
-0.00974666
-0.000428372
0.00963016
-0.00971791
-0.000342915
0.00959746
-0.00968292
-0.00026083
0.00956314
-0.00964522
-0.000181473
0.00953238
-0.00961173
-0.000106224
0.0095025
-0.00957775
-3.55736e-05
0.00947546
-0.00954611
2.89306e-05
0.00945073
-0.00951523
8.57377e-05
0.00943027
-0.00948708
0.000134811
0.00941411
-0.00946318
0.000174548
0.00940432
-0.00944406
0.000202691
0.00940254
-0.00943069
0.000216628
0.00941176
-0.00942569
0.000210915
0.00942958
-0.00942386
0.000181925
0.00945976
-0.00943077
0.000109919
0.00948542
-0.00941341
1.21859e-05
0.00949271
-0.00939497
-0.000179209
0.00938639
-0.00919499
-0.00019886
0.00844054
-0.00842089
0.0048718
-0.00507066
-0.000527106
-0.000436538
-0.000347595
-0.000262209
-0.000179465
-0.000100567
-2.5692e-05
4.29904e-05
0.000105463
0.000161108
0.000208914
0.000247009
0.000274215
0.000284751
0.000278931
0.000232217
0.000164268
1.20057e-05
-1.43722e-05
-0.000369013
0.00989185
-0.0100313
-0.000232313
0.00985719
-0.00999389
-9.59178e-05
0.00982227
-0.00995866
3.50564e-05
0.00977971
-0.00991069
0.000159694
0.00974136
-0.00986599
0.000279368
0.00970305
-0.00982272
0.000393016
0.00966629
-0.00977994
0.000500133
0.00963012
-0.00973724
0.000599721
0.00959581
-0.00969539
0.000690247
0.00956435
-0.00965487
0.000770058
0.0095363
-0.00961611
0.000836846
0.00951205
-0.00957883
0.000886915
0.00949278
-0.00954285
0.000914568
0.00947172
-0.00949937
0.000909457
0.00944907
-0.00944395
0.000853906
0.00938616
-0.00933061
0.000720416
0.00929576
-0.00916227
0.000449433
0.00895745
-0.00868647
0.000128634
0.00813516
-0.00781436
0.0046766
-0.00454796
-0.000376048
-0.000236767
-9.74196e-05
3.70701e-05
0.000166693
0.000291993
0.000412173
0.000527062
0.000635791
0.000736953
0.000829195
0.000910554
0.000977641
0.0010255
0.0010438
0.00101655
0.000917332
0.000679794
0.000394066
0.00378759
3.71264e-06
-2.8851e-06
0.00378837
-1.08434e-07
-6.72548e-07
0.0037858
1.2529e-05
-9.96326e-06
0.0037857
1.00621e-05
-9.95885e-06
0.00378171
2.05293e-05
-1.6542e-05
0.00377957
2.95102e-05
-2.73695e-05
0.00377283
3.63808e-05
-2.96384e-05
0.00376628
6.82518e-05
-6.17022e-05
0.00375409
6.87723e-05
-5.65837e-05
0.00373806
0.000146587
-0.000130555
0.00371439
0.000138162
-0.000114493
0.00367786
0.000308995
-0.000272465
0.00362827
0.000294004
-0.000244412
0.0035454
0.000666564
-0.000583697
0.00343071
0.000675055
-0.000560359
0.00323128
0.00155566
-0.00135624
0.00292085
0.00177897
-0.00146854
0.00236625
0.00431921
-0.00376461
0.00136255
0.00607811
-0.00507441
0.015356
-0.0139934
0.0037876
4.52401e-06
0.0037883
-8.01338e-07
0.00378585
1.49787e-05
0.00378565
1.02614e-05
0.00378175
2.44261e-05
0.00377953
3.17271e-05
0.0037728
4.31141e-05
0.0037662
7.48471e-05
0.00375379
8.11828e-05
0.00373777
0.000162609
0.00371326
0.000162674
0.00367684
0.00034541
0.00362478
0.00034607
0.00354226
0.000749079
0.00342082
0.000796497
0.0032231
0.00175339
0.00289591
0.00210615
0.00235802
0.0048571
0.00135196
0.00708418
0.0167079
0.00432155
2.14501e-06
-1.52741e-06
0.00432178
1.13598e-06
-1.36451e-06
0.00431977
7.65266e-06
-5.64405e-06
0.0043187
9.23713e-06
-8.16308e-06
0.00431548
1.28899e-05
-9.67032e-06
0.00431181
2.41928e-05
-2.05271e-05
0.00430622
2.33786e-05
-1.77844e-05
0.0042973
5.34484e-05
-4.45311e-05
0.0042869
4.51169e-05
-3.47122e-05
0.00426724
0.000111763
-9.21048e-05
0.00424654
9.19912e-05
-7.12914e-05
0.00420449
0.000231503
-0.00018945
0.00416049
0.000197061
-0.00015306
0.00406911
0.000493783
-0.000402405
0.00396721
0.000451399
-0.0003495
0.00375364
0.00114612
-0.000932554
0.00348193