/*--------------------------------*- C++ -*----------------------------------*\
  =========                 |
  \\      /  F ield         | OpenFOAM: The Open Source CFD Toolbox
   \\    /   O peration     | Website:  https://openfoam.org
    \\  /    A nd           | Version:  7
     \\/     M anipulation  |
\*---------------------------------------------------------------------------*/
FoamFile
{
    version     2.0;
    format      ascii;
    class       volVectorField;
    location    "120";
    object      U;
}
// * * * * * * * * * * * * * * * * * * * * * * * * * * * * * * * * * * * * * //

dimensions      [0 1 -1 0 0 0 0];

internalField   nonuniform List<vector> 
175
(
(1.25309 0.232588 5.59599e-18)
(1.25254 0.244827 1.04847e-17)
(1.25299 0.257704 4.22846e-18)
(1.25465 0.271554 6.20936e-18)
(1.25787 0.28649 5.76562e-18)
(1.25602 0.232986 3.7277e-18)
(1.25566 0.245032 8.02183e-18)
(1.25632 0.257683 3.8126e-18)
(1.25822 0.271266 4.6936e-18)
(1.26171 0.28587 5.07803e-18)
(1.25891 0.233333 3.94621e-18)
(1.25875 0.245179 7.42545e-18)
(1.25964 0.257594 4.8161e-18)
(1.26182 0.270901 2.01702e-18)
(1.26563 0.285159 3.45694e-18)
(1.26175 0.233628 2.39247e-18)
(1.26179 0.245267 6.58141e-18)
(1.2629 0.257438 4.26529e-18)
(1.26535 0.270458 1.91016e-18)
(1.26946 0.284355 3.87916e-18)
(1.26454 0.233873 3.82382e-18)
(1.26476 0.245299 7.39246e-18)
(1.26609 0.25722 4.9813e-18)
(1.26877 0.269944 1.87121e-18)
(1.27316 0.28347 3.39603e-18)
(1.2678 0.223817 2.86742e-19)
(1.26727 0.234071 3.67202e-18)
(1.26767 0.24528 6.99138e-18)
(1.26919 0.256945 4.53916e-18)
(1.2721 0.269364 1.87615e-18)
(1.27674 0.28251 3.09151e-18)
(1.27032 0.224168 3.49733e-19)
(1.26995 0.234224 3.79378e-18)
(1.27051 0.245211 6.26362e-18)
(1.27223 0.256615 4.05473e-18)
(1.27534 0.268725 9.06178e-19)
(1.2802 0.281483 2.11457e-18)
(1.27279 0.224478 1.66739e-18)
(1.27257 0.234333 2.70297e-18)
(1.27329 0.245095 6.6721e-18)
(1.27518 0.256233 3.65138e-18)
(1.2785 0.268029 9.08612e-19)
(1.28356 0.280393 1.82731e-18)
(1.2752 0.224752 7.41667e-19)
(1.27513 0.234404 2.74114e-18)
(1.27601 0.24494 7.19417e-18)
(1.27807 0.255811 3.32438e-18)
(1.28156 0.26729 8.11636e-19)
(1.2868 0.279256 1.18848e-18)
(1.27757 0.224952 7.48277e-19)
(1.27764 0.234391 2.71187e-18)
(1.27865 0.244689 5.7997e-18)
(1.28086 0.255281 2.28624e-18)
(1.2845 0.26643 1.28837e-18)
(1.28987 0.277988 6.12305e-19)
(1.22334 0.216243 -4.51205e-18)
(1.22004 0.229636 1.37274e-17)
(1.21728 0.244372 2.04078e-17)
(1.21521 0.26012 5.01364e-18)
(1.21395 0.277336 1.93364e-18)
(1.21375 0.296324 5.49471e-18)
(1.22667 0.216928 -3.86767e-18)
(1.22358 0.230128 1.0618e-17)
(1.22107 0.24464 1.84091e-17)
(1.21928 0.260133 4.95056e-18)
(1.21835 0.277054 1.94602e-18)
(1.21855 0.295693 7.09149e-18)
(1.22996 0.217568 -2.97214e-18)
(1.22709 0.230564 1.01694e-17)
(1.22483 0.244843 1.89622e-17)
(1.22335 0.26007 2.29801e-18)
(1.22279 0.27668 4.51751e-18)
(1.22343 0.29495 8.55204e-18)
(1.2332 0.218161 -2.28888e-18)
(1.23054 0.230943 9.65582e-18)
(1.22854 0.24498 1.74113e-17)
(1.22736 0.259929 2.57353e-18)
(1.22715 0.276214 4.6091e-18)
(1.22822 0.294095 9.82578e-18)
(1.2364 0.218709 -1.53245e-18)
(1.23395 0.231269 9.38404e-18)
(1.23219 0.245056 1.56337e-17)
(1.23129 0.259716 2.38918e-18)
(1.23141 0.275663 2.69743e-18)
(1.23287 0.293138 9.2485e-18)
(1.2373 0.231544 8.89384e-18)
(1.23577 0.245073 1.40709e-17)
(1.23514 0.259436 2.51573e-18)
(1.23557 0.275034 2.38249e-18)
(1.23739 0.29209 4.95462e-18)
(1.24059 0.231771 1.0558e-17)
(1.23929 0.245034 1.48256e-17)
(1.2389 0.259093 2.51732e-18)
(1.23962 0.274333 4.13032e-18)
(1.24178 0.290957 6.15833e-18)
(1.24382 0.23195 9.88806e-18)
(1.24273 0.244943 1.35916e-17)
(1.24258 0.25869 2.60957e-18)
(1.24358 0.273563 5.56702e-18)
(1.24606 0.289745 7.32078e-18)
(1.24699 0.232088 9.57433e-18)
(1.2461 0.244806 1.23458e-17)
(1.24618 0.258237 2.73318e-18)
(1.24744 0.272738 6.83543e-18)
(1.2502 0.288471 6.80856e-18)
(1.25011 0.232144 7.34253e-18)
(1.2494 0.244573 1.13703e-17)
(1.24968 0.257673 2.54802e-18)
(1.25117 0.271783 6.45807e-18)
(1.25418 0.287044 6.41123e-18)
(1.19101 0.211782 -9.89201e-18)
(1.18552 0.227594 1.05032e-17)
(1.18 0.244871 4.03107e-17)
(1.1748 0.263636 5.77146e-18)
(1.16981 0.284346 -9.20485e-18)
(1.19502 0.212343 -9.05227e-18)
(1.18992 0.227913 1.32704e-17)
(1.18486 0.244961 3.70557e-17)
(1.18021 0.263446 2.77769e-18)
(1.17586 0.283838 -8.11103e-18)
(1.19837 0.212862 -8.10608e-18)
(1.1935 0.228187 1.53124e-17)
(1.18871 0.244999 3.43063e-17)
(1.18437 0.263196 3.1016e-18)
(1.18038 0.283262 -6.98367e-18)
(1.20149 0.21335 -7.21876e-18)
(1.19682 0.228431 1.43172e-17)
(1.19228 0.245001 3.15897e-17)
(1.18823 0.262905 3.64008e-18)
(1.18457 0.282636 -3.11151e-18)
(1.20463 0.213806 -6.29383e-18)
(1.20018 0.228641 1.66027e-17)
(1.19591 0.244959 2.94341e-17)
(1.19217 0.262561 4.04739e-18)
(1.18891 0.281946 -2.8489e-18)
(1.2078 0.214228 -5.51956e-18)
(1.20356 0.228811 1.56701e-17)
(1.19958 0.244868 2.72437e-17)
(1.19616 0.262161 4.31719e-18)
(1.19329 0.281185 -2.15773e-18)
(1.21095 0.214613 -4.6202e-18)
(1.20692 0.228943 1.45386e-17)
(1.20321 0.244732 2.50595e-17)
(1.2001 0.261706 4.5365e-18)
(1.1976 0.280359 -1.49014e-18)
(1.21405 0.214965 -3.92095e-18)
(1.21023 0.22904 1.32433e-17)
(1.20677 0.244552 2.6081e-17)
(1.20395 0.261201 4.69991e-18)
(1.20179 0.279473 -1.15717e-18)
(1.21712 0.215282 -3.50857e-18)
(1.21348 0.229103 1.2431e-17)
(1.21026 0.244332 2.43229e-17)
(1.20772 0.26065 5.1572e-18)
(1.20588 0.278535 -9.09405e-19)
(1.22016 0.215569 -3.0306e-18)
(1.2167 0.229136 1.16456e-17)
(1.21372 0.244072 2.2256e-17)
(1.21143 0.26005 5.1083e-18)
(1.2099 0.277531 -6.42524e-19)
(1.03321 0.189747 5.43964e-18)
(1.07819 0.174082 -1.22083e-18)
(1.10267 0.287328 1.15385e-17)
(1.04505 0.179141 2.12604e-18)
(1.09161 0.166983 -4.99299e-19)
(1.11607 0.264032 2.61916e-18)
(1.05597 0.168137 5.93103e-17)
(1.10327 0.15958 7.04774e-18)
(1.12835 0.242952 3.78546e-17)
(1.0662 0.156925 1.59337e-17)
(1.11352 0.151828 3.44123e-18)
(1.1397 0.22378 1.48241e-17)
(1.07583 0.145585 6.04364e-18)
(1.12268 0.14383 -4.1606e-18)
(1.15014 0.205896 1.19072e-17)
)
;

boundaryField
{
    inlet
    {
        type            uniformFixedValue;
        uniformValue    constant (1 0 0);
        value           nonuniform 0();
    }
    outlet
    {
        type            pressureInletOutletVelocity;
        value           nonuniform 0();
    }
    polygon
    {
        type            fixedValue;
        value           nonuniform 0();
    }
    top
    {
        type            symmetryPlane;
    }
    bottom
    {
        type            symmetryPlane;
    }
    outside
    {
        type            zeroGradient;
    }
    procBoundary49to41
    {
        type            processor;
        value           nonuniform List<vector> 
34
(
(1.26303 0.302454 6.2705e-19)
(1.26718 0.301423 2.57757e-19)
(1.27146 0.300282 -5.44961e-20)
(1.27563 0.299029 -2.56171e-19)
(1.27961 0.297676 -5.01366e-19)
(1.28344 0.296236 -7.01728e-19)
(1.28711 0.294717 -8.43728e-19)
(1.29063 0.293126 -1.21689e-18)
(1.294 0.291481 -1.17184e-18)
(1.29713 0.289699 -1.23896e-18)
(1.2149 0.317298 4.29438e-18)
(1.20939 0.296833 8.34079e-18)
(1.22018 0.316237 3.58289e-18)
(1.22559 0.315039 5.08076e-18)
(1.23091 0.313703 4.41941e-18)
(1.23603 0.312243 5.5943e-18)
(1.24098 0.310673 4.82061e-18)
(1.24577 0.309004 5.70037e-18)
(1.25041 0.307244 3.77984e-18)
(1.25489 0.305416 3.45165e-18)
(1.25914 0.303406 2.14254e-18)
(1.16519 0.30744 2.08146e-17)
(1.172 0.306566 2.20664e-17)
(1.17694 0.305613 2.00297e-17)
(1.18155 0.304596 1.83399e-17)
(1.18636 0.303498 1.38392e-17)
(1.19121 0.302313 1.23846e-17)
(1.19596 0.301049 1.12204e-17)
(1.20056 0.299715 1.02575e-17)
(1.20503 0.298317 9.21917e-18)
(1.20939 0.296833 8.34079e-18)
(1.01997 0.19965 2.52835e-17)
(1.06268 0.180913 2.1786e-18)
(1.08812 0.313379 7.95932e-18)
)
;
    }
    procBoundary49to50
    {
        type            processor;
        value           nonuniform List<vector> 3((1.28333 0.25531 2.01407e-18) (1.2871 0.266247 1.16393e-18) (1.29258 0.277508 6.32201e-19));
    }
    procBoundary49to56
    {
        type            processor;
        value           nonuniform List<vector> 5((1.02109 0.0935663 -1.37124e-17) (1.03153 0.0904722 -9.52436e-18) (1.04143 0.0871862 -2.42564e-17) (1.05056 0.0835672 -1.4687e-17) (1.05886 0.0795572 -8.64657e-18));
    }
    procBoundary49to57
    {
        type            processor;
        value           nonuniform List<vector> 
35
(
(1.25445 0.221402 -8.23077e-19)
(1.25722 0.221977 -2.16946e-18)
(1.25994 0.222506 -1.74327e-18)
(1.26261 0.222987 -1.55508e-18)
(1.26523 0.223424 1.08145e-19)
(1.26523 0.223424 1.08145e-19)
(1.26915 0.213452 1.79771e-18)
(1.27153 0.21398 4.97805e-19)
(1.27386 0.21447 -5.07703e-19)
(1.27614 0.214924 -5.73564e-19)
(1.27839 0.215314 4.97175e-19)
(1.22714 0.203 -9.46164e-19)
(1.2303 0.20387 -9.28095e-19)
(1.23341 0.204702 -8.85329e-19)
(1.23647 0.205495 -8.17121e-19)
(1.23949 0.206248 -2.59747e-18)
(1.23955 0.219213 -1.23197e-18)
(1.23955 0.219213 -1.23197e-18)
(1.24264 0.219675 -6.15249e-19)
(1.24569 0.220093 -1.41924e-19)
(1.24868 0.220474 -1.69063e-18)
(1.25162 0.220785 -1.33674e-18)
(1.19724 0.196649 -5.47747e-18)
(1.20089 0.197366 -5.08201e-18)
(1.204 0.198048 -4.82337e-18)
(1.2069 0.198709 -1.60325e-18)
(1.20982 0.199347 -1.19065e-18)
(1.21275 0.19996 -1.03715e-18)
(1.21566 0.200546 -7.90943e-19)
(1.21853 0.201108 -8.75106e-19)
(1.22136 0.201645 -8.93908e-19)
(1.22416 0.202161 -6.69912e-19)
(1.08491 0.134242 1.69147e-17)
(1.13085 0.135451 -4.3788e-17)
(1.16018 0.18948 -9.51714e-18)
)
;
    }
    procBoundary49to58
    {
        type            processor;
        value           nonuniform List<vector> 3((1.27968 0.225417 7.77362e-19) (1.27986 0.234729 2.84801e-18) (1.28099 0.244892 5.28531e-18));
    }
}


// ************************************************************************* //
