/*--------------------------------*- C++ -*----------------------------------*\
  =========                 |
  \\      /  F ield         | OpenFOAM: The Open Source CFD Toolbox
   \\    /   O peration     | Website:  https://openfoam.org
    \\  /    A nd           | Version:  7
     \\/     M anipulation  |
\*---------------------------------------------------------------------------*/
FoamFile
{
    version     2.0;
    format      ascii;
    class       volScalarField;
    location    "120";
    object      p;
}
// * * * * * * * * * * * * * * * * * * * * * * * * * * * * * * * * * * * * * //

dimensions      [0 2 -2 0 0 0 0];

internalField   nonuniform List<scalar> 
4000
(
0.00209445
0.0120392
0.0155726
0.0217208
0.0250267
0.0288293
0.0309542
0.0329477
0.0330628
0.0328686
0.0293858
0.0261914
0.0156286
0.00730392
-0.0178408
-0.045938
-0.108848
-0.222509
-0.38692
-0.906106
-0.00778618
0.00178805
0.00506807
0.0105726
0.0133702
0.0164047
0.0177302
0.0185438
0.0172793
0.0151024
0.00944294
0.00255834
-0.0122106
-0.0299251
-0.0634691
-0.0983052
-0.153593
-0.167685
-0.252388
-0.0313043
-0.017036
-0.00760433
-0.00454981
0.000531809
0.00280625
0.00513068
0.00548241
0.00495336
0.00199607
-0.00264009
-0.01124
-0.0231178
-0.0435218
-0.0698771
-0.110024
-0.151078
-0.205579
-0.257526
-0.306079
-0.446048
-0.0258882
-0.0166898
-0.0139332
-0.00930402
-0.00762945
-0.00611948
-0.00685153
-0.00881637
-0.0134702
-0.0205944
-0.0325296
-0.0492347
-0.0744724
-0.106
-0.145933
-0.179145
-0.215134
-0.211817
-0.269538
-0.154772
-0.0344858
-0.0256387
-0.0232513
-0.0191328
-0.01809
-0.017404
-0.0191604
-0.0224702
-0.0288347
-0.0384221
-0.0534459
-0.074264
-0.103249
-0.137196
-0.173179
-0.197498
-0.220665
-0.246289
-0.250531
-0.271391
-0.0428274
-0.0343946
-0.0324111
-0.0288506
-0.0284837
-0.0286949
-0.0315292
-0.0363737
-0.0449115
-0.0573157
-0.0753847
-0.0993559
-0.129875
-0.162227
-0.189557
-0.203051
-0.221929
-0.215194
-0.235311
-0.185564
-0.0508767
-0.0428943
-0.0413214
-0.0383365
-0.0386278
-0.039692
-0.0435251
-0.049617
-0.0595702
-0.0736103
-0.0933857
-0.119073
-0.149808
-0.178953
-0.19881
-0.208672
-0.219914
-0.224661
-0.221626
-0.213586
-0.0586061
-0.0511074
-0.0499456
-0.04757
-0.0485214
-0.0504488
-0.0554401
-0.0631403
-0.0751862
-0.0917478
-0.113894
-0.141095
-0.170464
-0.194029
-0.207156
-0.213432
-0.219961
-0.209434
-0.210907
-0.184284
-0.0660114
-0.0590412
-0.0582715
-0.0565313
-0.058081
-0.0608153
-0.0666457
-0.0751414
-0.0876456
-0.104088
-0.125295
-0.150938
-0.178388
-0.198726
-0.209801
-0.213776
-0.214806
-0.2067
-0.202385
-0.185594
-0.0730657
-0.0666717
-0.0662533
-0.0651941
-0.0673107
-0.0709278
-0.07772
-0.0875525
-0.101965
-0.120945
-0.145134
-0.174136
-0.203073
-0.223781
-0.230634
-0.223747
-0.212618
-0.196281
-0.189559
-0.1673
0.105221
0.122915
0.129446
0.144396
0.154465
0.169491
0.182833
0.199816
0.217797
0.239793
0.264826
0.295586
0.330601
0.374309
0.42187
0.482536
0.538709
0.624701
0.670458
0.812489
0.0949785
0.112216
0.118176
0.132443
0.141492
0.155437
0.167262
0.182463
0.197994
0.217077
0.238169
0.264728
0.293921
0.331865
0.369155
0.425044
0.462905
0.54924
0.565123
0.701913
0.0848045
0.101317
0.106826
0.120093
0.128223
0.140859
0.151217
0.164616
0.177926
0.194527
0.212483
0.235978
0.261242
0.297025
0.330737
0.386694
0.423347
0.509205
0.530325
0.650223
0.0746799
0.0904101
0.0955417
0.107875
0.115189
0.126629
0.135643
0.147385
0.158589
0.172751
0.187364
0.207324
0.227151
0.25869
0.283533
0.336791
0.359413
0.449743
0.456297
0.588175
0.0644649
0.0794067
0.0841673
0.0956005
0.102119
0.112369
0.120034
0.130067
0.13907
0.150613
0.161638
0.177782
0.192099
0.218922
0.236667
0.284
0.302494
0.379643
0.395485
0.502874
0.054124
0.068263
0.0726653
0.0831887
0.0889402
0.0979851
0.104332
0.112657
0.119491
0.128419
0.135949
0.148196
0.157254
0.178947
0.189638
0.231695
0.240334
0.322284
0.324661
0.478009
0.0437112
0.057029
0.0611143
0.0707233
0.0757702
0.0836273
0.0887516
0.0954235
0.100219
0.106513
0.110703
0.118832
0.122622
0.137684
0.141504
0.171603
0.17429
0.220806
0.233542
0.307117
0.0332707
0.0457524
0.0495827
0.0582951
0.0627345
0.0694473
0.07349
0.0786115
0.0815872
0.0857432
0.0870357
0.0918551
0.0903598
0.100711
0.096444
0.125765
0.117156
0.196965
0.176289
0.418919
0.0228646
0.034502
0.0381609
0.0459898
0.0499186
0.0555384
0.0586754
0.0624153
0.0640537
0.0663879
0.0653293
0.0667203
0.0607941
0.0632689
0.0504021
0.0593138
0.0373096
0.0247085
-0.0124066
-0.063586
0.0124597
0.0232444
0.0268239
0.0338059
0.037372
0.0419839
0.0444494
0.0471362
0.0477763
0.0486577
0.0458471
0.0450022
0.036213
0.0359518
0.0209508
0.0379395
0.0373224
0.130893
0.137633
0.470623
0.0124595
0.0232443
0.0268237
0.0338057
0.0373718
0.0419838
0.0444493
0.047136
0.0477762
0.0486576
0.045847
0.0450021
0.036213
0.0359518
0.0209507
0.0379395
0.0373224
0.130893
0.137633
0.470623
0.0228644
0.0345018
0.0381608
0.0459896
0.0499185
0.0555383
0.0586753
0.0624152
0.0640536
0.0663878
0.0653292
0.0667202
0.0607941
0.0632689
0.050402
0.0593138
0.0373096
0.0247085
-0.0124066
-0.063586
0.0332706
0.0457523
0.0495826
0.0582949
0.0627344
0.0694472
0.0734899
0.0786114
0.0815871
0.0857431
0.0870356
0.091855
0.0903598
0.100711
0.0964439
0.125765
0.117156
0.196965
0.176289
0.418919
0.043711
0.0570288
0.0611142
0.0707231
0.0757701
0.0836272
0.0887515
0.0954234
0.100219
0.106513
0.110703
0.118832
0.122622
0.137684
0.141503
0.171603
0.17429
0.220806
0.233542
0.307117
0.0541238
0.0682628
0.0726651
0.0831885
0.0889401
0.097985
0.104332
0.112656
0.119491
0.128419
0.135949
0.148196
0.157254
0.178947
0.189638
0.231695
0.240334
0.322284
0.324661
0.478009
0.0644648
0.0794066
0.0841672
0.0956004
0.102119
0.112369
0.120034
0.130067
0.13907
0.150613
0.161638
0.177782
0.192099
0.218922
0.236667
0.284
0.302494
0.379643
0.395485
0.502874
0.0746798
0.09041
0.0955415
0.107875
0.115189
0.126629
0.135643
0.147385
0.158589
0.172751
0.187364
0.207324
0.227151
0.25869
0.283533
0.336791
0.359413
0.449743
0.456297
0.588175
0.0848044
0.101317
0.106826
0.120093
0.128223
0.140859
0.151217
0.164616
0.177925
0.194527
0.212483
0.235978
0.261242
0.297025
0.330737
0.386694
0.423347
0.509205
0.530325
0.650223
0.0949784
0.112216
0.118176
0.132442
0.141492
0.155437
0.167261
0.182463
0.197994
0.217077
0.238169
0.264728
0.293921
0.331865
0.369155
0.425044
0.462905
0.54924
0.565123
0.701913
0.105221
0.122915
0.129446
0.144396
0.154465
0.169491
0.182833
0.199816
0.217797
0.239793
0.264826
0.295586
0.330601
0.374309
0.42187
0.482536
0.538709
0.624701
0.670458
0.812489
-0.0730659
-0.066672
-0.0662536
-0.0651944
-0.067311
-0.0709281
-0.0777202
-0.0875527
-0.101966
-0.120945
-0.145134
-0.174136
-0.203073
-0.223781
-0.230634
-0.223747
-0.212618
-0.196281
-0.189559
-0.1673
-0.0660117
-0.0590414
-0.0582717
-0.0565315
-0.0580812
-0.0608155
-0.0666459
-0.0751415
-0.0876457
-0.104088
-0.125295
-0.150938
-0.178388
-0.198726
-0.209801
-0.213776
-0.214806
-0.206699
-0.202385
-0.185594
-0.0586063
-0.0511076
-0.0499458
-0.0475702
-0.0485216
-0.050449
-0.0554403
-0.0631404
-0.0751863
-0.0917479
-0.113894
-0.141095
-0.170464
-0.194029
-0.207156
-0.213432
-0.219961
-0.209434
-0.210907
-0.184284
-0.050877
-0.0428946
-0.0413216
-0.0383367
-0.038628
-0.0396922
-0.0435253
-0.0496171
-0.0595704
-0.0736104
-0.0933857
-0.119073
-0.149808
-0.178953
-0.19881
-0.208671
-0.219914
-0.224661
-0.221626
-0.213586
-0.0428277
-0.0343948
-0.0324113
-0.0288508
-0.0284839
-0.0286951
-0.0315294
-0.0363738
-0.0449116
-0.0573158
-0.0753848
-0.099356
-0.129875
-0.162227
-0.189557
-0.203051
-0.221929
-0.215194
-0.235311
-0.185564
-0.034486
-0.0256389
-0.0232515
-0.019133
-0.0180902
-0.0174042
-0.0191606
-0.0224704
-0.0288348
-0.0384222
-0.053446
-0.074264
-0.10325
-0.137196
-0.173179
-0.197498
-0.220665
-0.246289
-0.250531
-0.271391
-0.0258884
-0.01669
-0.0139334
-0.0093042
-0.00762962
-0.00611964
-0.00685168
-0.00881651
-0.0134704
-0.0205945
-0.0325297
-0.0492347
-0.0744725
-0.106
-0.145933
-0.179145
-0.215134
-0.211817
-0.269538
-0.154772
-0.0170362
-0.00760451
-0.00454999
0.000531637
0.00280608
0.00513052
0.00548226
0.00495322
0.00199595
-0.00264019
-0.0112401
-0.0231179
-0.0435219
-0.0698772
-0.110024
-0.151078
-0.205579
-0.257526
-0.306079
-0.446048
-0.00778637
0.00178787
0.0050679
0.0105725
0.01337
0.0164046
0.01773
0.0185437
0.0172792
0.0151023
0.00944284
0.00255826
-0.0122107
-0.0299251
-0.0634692
-0.0983052
-0.153593
-0.167685
-0.252388
-0.0313043
0.00209427
0.012039
0.0155724
0.0217206
0.0250266
0.0288292
0.0309541
0.0329475
0.0330627
0.0328685
0.0293857
0.0261914
0.0156285
0.00730386
-0.0178409
-0.045938
-0.108848
-0.222509
-0.38692
-0.906106
0.138137
0.156381
0.164984
0.179573
0.192235
0.207059
0.222473
0.23961
0.258559
0.279859
0.303959
0.331567
0.363349
0.400002
0.441556
0.48828
0.538251
0.592731
0.642886
0.691793
0.181313
0.197627
0.206251
0.220094
0.233177
0.248199
0.264511
0.282476
0.302175
0.323782
0.347365
0.372946
0.400393
0.429466
0.459714
0.490558
0.520423
0.55018
0.57198
0.593584
0.217646
0.231989
0.239538
0.251432
0.262563
0.274985
0.288124
0.302165
0.317152
0.333134
0.350112
0.368025
0.386754
0.406046
0.425546
0.444564
0.462622
0.478225
0.490477
0.498077
0.244967
0.256889
0.263399
0.273658
0.283359
0.294174
0.305567
0.317597
0.330199
0.343281
0.356725
0.370379
0.384036
0.397453
0.410304
0.422266
0.432816
0.441636
0.447904
0.451495
0.265879
0.275186
0.280181
0.28801
0.29529
0.303318
0.311672
0.320381
0.329394
0.33864
0.348029
0.357447
0.366749
0.375753
0.384252
0.391979
0.3987
0.404077
0.407905
0.409908
0.281679
0.289118
0.293164
0.299509
0.305426
0.311924
0.318627
0.325536
0.332575
0.339663
0.346706
0.353603
0.360239
0.366493
0.372231
0.377323
0.381618
0.384999
0.387325
0.388521
0.293002
0.298398
0.301321
0.305897
0.310148
0.314796
0.319569
0.324468
0.329438
0.334421
0.339353
0.344161
0.348766
0.353082
0.357019
0.360483
0.363389
0.36565
0.367204
0.367995
0.301668
0.305943
0.308253
0.311872
0.315214
0.318853
0.322559
0.326328
0.330111
0.333856
0.337512
0.341024
0.344338
0.347399
0.35015
0.352541
0.354521
0.356048
0.357087
0.357613
0.307672
0.310643
0.312262
0.314794
0.317142
0.319697
0.322302
0.324952
0.327612
0.330246
0.332818
0.335289
0.337619
0.33977
0.341701
0.343376
0.344761
0.345828
0.346553
0.346919
0.312325
0.314687
0.315958
0.317946
0.319772
0.32175
0.323751
0.325771
0.327782
0.329756
0.331665
0.333482
0.33518
0.336734
0.338117
0.339309
0.340289
0.341039
0.341547
0.341803
0.315482
0.317081
0.317952
0.319318
0.320582
0.321954
0.323348
0.324759
0.326168
0.327555
0.3289
0.330183
0.331384
0.332484
0.333465
0.33431
0.335006
0.335538
0.335899
0.336081
0.317965
0.319251
0.319939
0.321016
0.322001
0.323064
0.324136
0.325214
0.326283
0.327327
0.328332
0.329285
0.330171
0.330978
0.331693
0.332307
0.33281
0.333194
0.333454
0.333584
0.319617
0.320473
0.320934
0.321666
0.322339
0.323071
0.323812
0.324561
0.325306
0.326038
0.326745
0.327418
0.328045
0.328618
0.329127
0.329564
0.329923
0.330197
0.330383
0.330476
0.320945
0.321645
0.322017
0.322601
0.323132
0.323706
0.324282
0.324861
0.325432
0.32599
0.326526
0.327032
0.327502
0.327929
0.328306
0.32863
0.328895
0.329097
0.329233
0.329301
0.321805
0.322266
0.32251
0.322905
0.323264
0.323657
0.324054
0.324455
0.324854
0.325245
0.325622
0.32598
0.326314
0.326618
0.326888
0.327119
0.327309
0.327454
0.327552
0.327601
0.322518
0.322906
0.323109
0.323432
0.323724
0.32404
0.324356
0.324673
0.324987
0.325292
0.325585
0.325862
0.326118
0.326351
0.326557
0.326734
0.326878
0.326987
0.327062
0.327099
0.322958
0.323215
0.323347
0.323569
0.323767
0.323987
0.324208
0.324432
0.324655
0.324873
0.325084
0.325284
0.325471
0.32564
0.325791
0.325921
0.326027
0.326107
0.326162
0.32619
0.323323
0.323548
0.323665
0.323856
0.324026
0.324212
0.324399
0.324587
0.324773
0.324955
0.325129
0.325293
0.325446
0.325585
0.325708
0.325813
0.325899
0.325965
0.326009
0.326031
0.323512
0.323662
0.323734
0.323872
0.323987
0.324125
0.324261
0.324402
0.324542
0.324681
0.324816
0.324944
0.325064
0.325173
0.325271
0.325354
0.325423
0.325475
0.325511
0.325528
0.323701
0.323841
0.323924
0.324054
0.324177
0.324313
0.324451
0.324592
0.324732
0.324869
0.325002
0.325128
0.325245
0.325352
0.325446
0.325527
0.325593
0.325644
0.325678
0.325695
-0.000908036
-0.00153427
-0.0018256
-0.00190709
-0.00177375
-0.00135229
-0.000584513
0.000577144
0.00217107
0.00421597
0.00670489
0.00960231
0.0128454
0.0163478
0.0200013
0.0236715
0.0271842
0.0303041
0.0327154
0.0340552
-0.00372005
-0.00516199
-0.00598844
-0.00669084
-0.00734841
-0.00795864
-0.00853492
-0.00908715
-0.0096063
-0.0100626
-0.0104085
-0.0105828
-0.0105179
-0.0101497
-0.00943148
-0.00835145
-0.00695049
-0.00537294
-0.00391727
-0.00301429
-0.00752369
-0.00956289
-0.0106205
-0.0113587
-0.0117438
-0.011675
-0.011104
-0.00999058
-0.00830272
-0.0060315
-0.00319726
0.000142689
0.0038922
0.00791785
0.0120508
0.0160907
0.0198105
0.0229671
0.0252986
0.0265604
-0.0123305
-0.0152234
-0.0168704
-0.0183766
-0.0196688
-0.0206725
-0.0213693
-0.0217283
-0.0217018
-0.0212419
-0.020312
-0.0188983
-0.017016
-0.0147206
-0.0121148
-0.00935012
-0.00663069
-0.0042111
-0.002367
-0.00134237
-0.0182204
-0.0218619
-0.0237862
-0.0255466
-0.0269046
-0.0277447
-0.0280309
-0.0277209
-0.0267832
-0.0252139
-0.0230418
-0.0203328
-0.0171862
-0.0137299
-0.0101197
-0.00653394
-0.00317891
-0.000272171
0.00186357
0.00301753
-0.0253488
-0.0300604
-0.0326209
-0.0352539
-0.0375419
-0.0393924
-0.0407666
-0.0415934
-0.0418014
-0.0413451
-0.0402162
-0.0384484
-0.0361276
-0.0333879
-0.0304078
-0.0273948
-0.0246114
-0.0222179
-0.0204906
-0.019602
-0.0337646
-0.0394915
-0.0425098
-0.0457696
-0.0485726
-0.0508516
-0.0525618
-0.0536233
-0.0539789
-0.053609
-0.0525287
-0.0507929
-0.0484914
-0.0457462
-0.0427096
-0.0395699
-0.0365379
-0.0339523
-0.0319685
-0.0309035
-0.0435511
-0.0504852
-0.0541567
-0.0583837
-0.0621309
-0.0653715
-0.068036
-0.0699926
-0.0711494
-0.071467
-0.0709545
-0.069677
-0.0677523
-0.0653405
-0.0626316
-0.0598504
-0.0571832
-0.0548963
-0.05321
-0.0523116
-0.0546822
-0.0627623
-0.0669987
-0.0720936
-0.0766203
-0.0806038
-0.0839645
-0.0865488
-0.0882701
-0.0890994
-0.0890518
-0.088189
-0.0866129
-0.0844605
-0.0818998
-0.0791483
-0.0764552
-0.0740705
-0.0722716
-0.0712992
-0.0671041
-0.0763419
-0.0811937
-0.0872551
-0.0926599
-0.0974907
-0.101628
-0.104877
-0.107144
-0.108405
-0.108694
-0.108101
-0.106759
-0.104829
-0.1025
-0.0999727
-0.097467
-0.0952415
-0.0935554
-0.092641
-0.0806499
-0.0908857
-0.0962494
-0.103147
-0.109263
-0.114767
-0.119505
-0.123271
-0.125989
-0.127651
-0.1283
-0.128027
-0.126957
-0.125244
-0.12307
-0.12064
-0.118208
-0.116028
-0.114368
-0.113467
-0.0950936
-0.106177
-0.111991
-0.119629
-0.126337
-0.132374
-0.137543
-0.141638
-0.144608
-0.146468
-0.147291
-0.147185
-0.146286
-0.144745
-0.142757
-0.140497
-0.138205
-0.136134
-0.134548
-0.133684
-0.110108
-0.121784
-0.127904
-0.13607
-0.143145
-0.149503
-0.154906
-0.159178
-0.162294
-0.164292
-0.165255
-0.165298
-0.164552
-0.163174
-0.161314
-0.159191
-0.157019
-0.155048
-0.153536
-0.15271
-0.125314
-0.13733
-0.143622
-0.152099
-0.159321
-0.165776
-0.171196
-0.175449
-0.178541
-0.180535
-0.181531
-0.181646
-0.181009
-0.179763
-0.178065
-0.176099
-0.174076
-0.172232
-0.170814
-0.17004
-0.140288
-0.152364
-0.158666
-0.167212
-0.174361
-0.180713
-0.185984
-0.190094
-0.193073
-0.195004
-0.195991
-0.196149
-0.195599
-0.194469
-0.192908
-0.191089
-0.189208
-0.187489
-0.186166
-0.185444
-0.15461
-0.166496
-0.172662
-0.181059
-0.187941
-0.194016
-0.198994
-0.202847
-0.205629
-0.207435
-0.20837
-0.208541
-0.208058
-0.207039
-0.205617
-0.203948
-0.202217
-0.200632
-0.199411
-0.198744
-0.167887
-0.179367
-0.185269
-0.193334
-0.199803
-0.205482
-0.210086
-0.213622
-0.216169
-0.217825
-0.218688
-0.218856
-0.218426
-0.2175
-0.216202
-0.214673
-0.213084
-0.211628
-0.210507
-0.209894
-0.179786
-0.190706
-0.196247
-0.203851
-0.209807
-0.215016
-0.219193
-0.22238
-0.224673
-0.226164
-0.226945
-0.2271
-0.226712
-0.225874
-0.224692
-0.223296
-0.221842
-0.22051
-0.219484
-0.218923
-0.190053
-0.200323
-0.205439
-0.212511
-0.217908
-0.222624
-0.226361
-0.229202
-0.231243
-0.232571
-0.233266
-0.233402
-0.233047
-0.232283
-0.231204
-0.229927
-0.228597
-0.227378
-0.22644
-0.225927
-0.19851
-0.208112
-0.212774
-0.219299
-0.224126
-0.22836
-0.231668
-0.234181
-0.235983
-0.237157
-0.237771
-0.237885
-0.237558
-0.236859
-0.235871
-0.234702
-0.233485
-0.232368
-0.231511
-0.231044
-0.205063
-0.214046
-0.218255
-0.224269
-0.22855
-0.232345
-0.235256
-0.237475
-0.239059
-0.240093
-0.24063
-0.240723
-0.240416
-0.239771
-0.238862
-0.237785
-0.236668
-0.235645
-0.234861
-0.234432
-0.209677
-0.218158
-0.221933
-0.22752
-0.231293
-0.234716
-0.237268
-0.239233
-0.240624
-0.241535
-0.242003
-0.242075
-0.241782
-0.241183
-0.240342
-0.239351
-0.238321
-0.23738
-0.236658
-0.236265
-0.212372
-0.220531
-0.223908
-0.229194
-0.232507
-0.235646
-0.237878
-0.239632
-0.240854
-0.24166
-0.242064
-0.242112
-0.241833
-0.241272
-0.24049
-0.239571
-0.238618
-0.237749
-0.237084
-0.236722
-0.213215
-0.22129
-0.224302
-0.229456
-0.232342
-0.235309
-0.237238
-0.23885
-0.239905
-0.240634
-0.240975
-0.241005
-0.240734
-0.240205
-0.239474
-0.238619
-0.237735
-0.236932
-0.236318
-0.235985
-0.212282
-0.220578
-0.223253
-0.228488
-0.230959
-0.233897
-0.235511
-0.23707
-0.237944
-0.238619
-0.238904
-0.238914
-0.238649
-0.238148
-0.237463
-0.236666
-0.235845
-0.235102
-0.234536
-0.234229
-0.20958
-0.218524
-0.220868
-0.226473
-0.228503
-0.231596
-0.232852
-0.234435
-0.235143
-0.23577
-0.236005
-0.235995
-0.235735
-0.235259
-0.234617
-0.233875
-0.233116
-0.23243
-0.23191
-0.231628
-0.205043
-0.215302
-0.217246
-0.223631
-0.225129
-0.228575
-0.22947
-0.231088
-0.231661
-0.232238
-0.232428
-0.232401
-0.232145
-0.231694
-0.231095
-0.230408
-0.229709
-0.229081
-0.228606
-0.228349
-0.198827
-0.211292
-0.212655
-0.220188
-0.22113
-0.224916
-0.225584
-0.22717
-0.227657
-0.228169
-0.228322
-0.228276
-0.228027
-0.227603
-0.227049
-0.226419
-0.225783
-0.225214
-0.224784
-0.224553
-0.192839
-0.2068
-0.208039
-0.216102
-0.216977
-0.220741
-0.221378
-0.222834
-0.223276
-0.223708
-0.223828
-0.223766
-0.223525
-0.223133
-0.222628
-0.22206
-0.22149
-0.220983
-0.220602
-0.220397
-0.18717
-0.201984
-0.203461
-0.211627
-0.212679
-0.216267
-0.216948
-0.218237
-0.218648
-0.218996
-0.219086
-0.21901
-0.218783
-0.218427
-0.217977
-0.217477
-0.216978
-0.216537
-0.216207
-0.21603
-0.181791
-0.197156
-0.198949
-0.207049
-0.208317
-0.211684
-0.212412
-0.213532
-0.213904
-0.214175
-0.214234
-0.214149
-0.21394
-0.213626
-0.213238
-0.212811
-0.212388
-0.212017
-0.211739
-0.211591
-0.176652
-0.192399
-0.194484
-0.20248
-0.20395
-0.207111
-0.207871
-0.208841
-0.209168
-0.209371
-0.209401
-0.209314
-0.209128
-0.208863
-0.208542
-0.208193
-0.20785
-0.20755
-0.207328
-0.207209
-0.171825
-0.18783
-0.190166
-0.198044
-0.199689
-0.202668
-0.203447
-0.204286
-0.204564
-0.204709
-0.204714
-0.204629
-0.204472
-0.20426
-0.204009
-0.203741
-0.20348
-0.203253
-0.203086
-0.202997
-0.167405
-0.183499
-0.186062
-0.1938
-0.195613
-0.198434
-0.199231
-0.199961
-0.200193
-0.200293
-0.200279
-0.200202
-0.200079
-0.199923
-0.199745
-0.199558
-0.199378
-0.199223
-0.199109
-0.199048
-0.163556
-0.179517
-0.182292
-0.189838
-0.191819
-0.194495
-0.195317
-0.195956
-0.196152
-0.196216
-0.19619
-0.196126
-0.19604
-0.195941
-0.195834
-0.195726
-0.195624
-0.195537
-0.195473
-0.19544
-0.160408
-0.175959
-0.178932
-0.186213
-0.188366
-0.190908
-0.191764
-0.192337
-0.192507
-0.192547
-0.192517
-0.19247
-0.192422
-0.192379
-0.19234
-0.192306
-0.192276
-0.192251
-0.192234
-0.192225
-0.158088
-0.172925
-0.176075
-0.182996
-0.185317
-0.187727
-0.188625
-0.189156
-0.189312
-0.189339
-0.189313
-0.189286
-0.189275
-0.189283
-0.189306
-0.189338
-0.189372
-0.189402
-0.189425
-0.189438
-0.156655
-0.170478
-0.173764
-0.180232
-0.182702
-0.184982
-0.185928
-0.186441
-0.186595
-0.186622
-0.186605
-0.1866
-0.186624
-0.186677
-0.186753
-0.186841
-0.186928
-0.187005
-0.187061
-0.187092
-0.156127
-0.168681
-0.172041
-0.177969
-0.180546
-0.182696
-0.183692
-0.1842
-0.184368
-0.184404
-0.184403
-0.18442
-0.184474
-0.184565
-0.184684
-0.184817
-0.184946
-0.185059
-0.185142
-0.185186
-0.156455
-0.167551
-0.170905
-0.176228
-0.17885
-0.180873
-0.181912
-0.182428
-0.182622
-0.182677
-0.182696
-0.182735
-0.182814
-0.182935
-0.183085
-0.18325
-0.18341
-0.183549
-0.18365
-0.183704
-0.157553
-0.167083
-0.17034
-0.175018
-0.177607
-0.179506
-0.18057
-0.181108
-0.181335
-0.181418
-0.181461
-0.181522
-0.181622
-0.181762
-0.181934
-0.182119
-0.182298
-0.182452
-0.182565
-0.182625
-0.15928
-0.167227
-0.170293
-0.174318
-0.176793
-0.178573
-0.179638
-0.180204
-0.180469
-0.180587
-0.180658
-0.180739
-0.180855
-0.181007
-0.181189
-0.181383
-0.181569
-0.181729
-0.181846
-0.181908
-0.161476
-0.167904
-0.1707
-0.174087
-0.176382
-0.178037
-0.179083
-0.179676
-0.179984
-0.180143
-0.180247
-0.180352
-0.180479
-0.180638
-0.180821
-0.181015
-0.181199
-0.181358
-0.181473
-0.181535
-0.163964
-0.169002
-0.17147
-0.174265
-0.17633
-0.177846
-0.178858
-0.179474
-0.179825
-0.180027
-0.180164
-0.180287
-0.180425
-0.180585
-0.180762
-0.180946
-0.18112
-0.181269
-0.181378
-0.181435
-0.166566
-0.170392
-0.172502
-0.174772
-0.176577
-0.177949
-0.178916
-0.179549
-0.179946
-0.180197
-0.180377
-0.180532
-0.180684
-0.180844
-0.181014
-0.181185
-0.181346
-0.181482
-0.181581
-0.181634
-0.16911
-0.171924
-0.17368
-0.175503
-0.177048
-0.178279
-0.179197
-0.179841
-0.18028
-0.180577
-0.180791
-0.180962
-0.181117
-0.181275
-0.181431
-0.181583
-0.181723
-0.181841
-0.181926
-0.18197
-0.171437
-0.173447
-0.174879
-0.176339
-0.177658
-0.178767
-0.179648
-0.180311
-0.180803
-0.181167
-0.181445
-0.181672
-0.181869
-0.182029
-0.182178
-0.182316
-0.182438
-0.182539
-0.182611
-0.182649
-0.173405
-0.174804
-0.175961
-0.177148
-0.178297
-0.179319
-0.18018
-0.180868
-0.181404
-0.181811
-0.182112
-0.182337
-0.182505
-0.182662
-0.182797
-0.182912
-0.183008
-0.183085
-0.18314
-0.183168
-0.174879
-0.175836
-0.176781
-0.17779
-0.17884
-0.179839
-0.180739
-0.181503
-0.182143
-0.182672
-0.1831
-0.183444
-0.18372
-0.183918
-0.184055
-0.184162
-0.184245
-0.184306
-0.184348
-0.184369
-0.175719
-0.17637
-0.17717
-0.178089
-0.179122
-0.180166
-0.181159
-0.182025
-0.182742
-0.183309
-0.183726
-0.184013
-0.184201
-0.184336
-0.184455
-0.184532
-0.184582
-0.184613
-0.184632
-0.184641
-0.175762
-0.176212
-0.176949
-0.177868
-0.178983
-0.18018
-0.181393
-0.182514
-0.183503
-0.184355
-0.185066
-0.185628
-0.186059
-0.186376
-0.186513
-0.186602
-0.186644
-0.186661
-0.186667
-0.186668
-0.17482
-0.175157
-0.175893
-0.176876
-0.178149
-0.179574
-0.181075
-0.182473
-0.183652
-0.184553
-0.185188
-0.185579
-0.185796
-0.185871
-0.185973
-0.186003
-0.185993
-0.185965
-0.185935
-0.185916
-0.172702
-0.17294
-0.173731
-0.174851
-0.176396
-0.178207
-0.180222
-0.182237
-0.184099
-0.185701
-0.187028
-0.188063
-0.188813
-0.189339
-0.189578
-0.189644
-0.189635
-0.189583
-0.189528
-0.189493
-0.169075
-0.169184
-0.170063
-0.17135
-0.173212
-0.17545
-0.178006
-0.180576
-0.182875
-0.184625
-0.18579
-0.186451
-0.18674
-0.186801
-0.186799
-0.186779
-0.186672
-0.186538
-0.186418
-0.186346
-0.163504
-0.163472
-0.1645
-0.166031
-0.168348
-0.171235
-0.174694
-0.178454
-0.182226
-0.185616
-0.1884
-0.19054
-0.192034
-0.192972
-0.19349
-0.193492
-0.193367
-0.193122
-0.192899
-0.192752
-0.155503
-0.155216
-0.156369
-0.158089
-0.160818
-0.164273
-0.16846
-0.173015
-0.177509
-0.181267
-0.183851
-0.185265
-0.18589
-0.186055
-0.185942
-0.185965
-0.185738
-0.185415
-0.185093
-0.184873
-0.144683
-0.143961
-0.145189
-0.147053
-0.150324
-0.154724
-0.160376
-0.167019
-0.174307
-0.181526
-0.187837
-0.192678
-0.19606
-0.198013
-0.199008
-0.198919
-0.198356
-0.197363
-0.19647
-0.195747
-0.130505
-0.129064
-0.130172
-0.131843
-0.135156
-0.139711
-0.145683
-0.152805
-0.160673
-0.16826
-0.174231
-0.177844
-0.179483
-0.180404
-0.180935
-0.181477
-0.181646
-0.181118
-0.180404
-0.179581
-0.112309
-0.109909
-0.111059
-0.112877
-0.116937
-0.122835
-0.130969
-0.141306
-0.15378
-0.167784
-0.182126
-0.194657
-0.203476
-0.20831
-0.210104
-0.209475
-0.207267
-0.20266
-0.19883
-0.194156
-0.0893268
-0.08462
-0.0847819
-0.0853156
-0.0884583
-0.0937193
-0.101563
-0.111752
-0.123905
-0.136465
-0.145935
-0.149792
-0.149653
-0.151906
-0.159146
-0.16575
-0.170974
-0.173192
-0.174048
-0.171543
0.323701
0.323841
0.323924
0.324054
0.324177
0.324313
0.324451
0.324592
0.324732
0.324869
0.325002
0.325128
0.325245
0.325352
0.325446
0.325527
0.325593
0.325644
0.325678
0.325695
0.323512
0.323662
0.323734
0.323872
0.323987
0.324125
0.324261
0.324402
0.324542
0.324681
0.324816
0.324944
0.325064
0.325173
0.325271
0.325354
0.325423
0.325475
0.325511
0.325528
0.323323
0.323548
0.323665
0.323856
0.324026
0.324212
0.324399
0.324587
0.324773
0.324955
0.325129
0.325293
0.325446
0.325585
0.325708
0.325813
0.325899
0.325965
0.326009
0.326031
0.322958
0.323215
0.323347
0.323569
0.323767
0.323987
0.324208
0.324432
0.324655
0.324873
0.325084
0.325284
0.325471
0.32564
0.325791
0.325921
0.326027
0.326107
0.326162
0.32619
0.322518
0.322906
0.323109
0.323432
0.323724
0.32404
0.324356
0.324673
0.324987
0.325292
0.325585
0.325862
0.326118
0.326351
0.326557
0.326734
0.326878
0.326987
0.327062
0.327099
0.321805
0.322266
0.32251
0.322905
0.323264
0.323657
0.324054
0.324455
0.324854
0.325245
0.325622
0.32598
0.326314
0.326618
0.326888
0.327119
0.327309
0.327454
0.327552
0.327601
0.320945
0.321645
0.322017
0.322601
0.323132
0.323706
0.324282
0.324861
0.325432
0.32599
0.326526
0.327032
0.327502
0.327929
0.328306
0.32863
0.328895
0.329097
0.329233
0.329301
0.319617
0.320473
0.320934
0.321666
0.322339
0.323071
0.323812
0.324561
0.325306
0.326038
0.326745
0.327418
0.328045
0.328618
0.329127
0.329564
0.329923
0.330197
0.330383
0.330476
0.317965
0.319251
0.319939
0.321016
0.322001
0.323064
0.324136
0.325214
0.326283
0.327327
0.328332
0.329285
0.330171
0.330978
0.331693
0.332307
0.33281
0.333194
0.333454
0.333584
0.315482
0.317081
0.317952
0.319318
0.320582
0.321954
0.323348
0.324759
0.326168
0.327555
0.3289
0.330183
0.331384
0.332484
0.333465
0.33431
0.335006
0.335538
0.335899
0.336081
0.312325
0.314687
0.315958
0.317946
0.319772
0.32175
0.323751
0.325771
0.327782
0.329756
0.331665
0.333482
0.335181
0.336734
0.338117
0.339309
0.340289
0.341039
0.341547
0.341803
0.307672
0.310643
0.312262
0.314794
0.317142
0.319697
0.322302
0.324952
0.327612
0.330246
0.332818
0.335289
0.337619
0.33977
0.341701
0.343376
0.344761
0.345828
0.346553
0.346919
0.301668
0.305943
0.308253
0.311872
0.315214
0.318853
0.322559
0.326328
0.330111
0.333856
0.337512
0.341024
0.344338
0.347399
0.35015
0.352541
0.354521
0.356048
0.357087
0.357613
0.293002
0.298398
0.301321
0.305897
0.310148
0.314796
0.319569
0.324468
0.329438
0.334421
0.339353
0.344161
0.348766
0.353082
0.357019
0.360483
0.363389
0.36565
0.367204
0.367995
0.281679
0.289118
0.293164
0.299509
0.305426
0.311924
0.318627
0.325536
0.332575
0.339663
0.346706
0.353603
0.360239
0.366493
0.372231
0.377323
0.381618
0.384999
0.387325
0.388521
0.265879
0.275186
0.280181
0.28801
0.29529
0.303318
0.311672
0.320381
0.329394
0.33864
0.34803
0.357447
0.366749
0.375753
0.384252
0.391979
0.3987
0.404077
0.407905
0.409908
0.244967
0.256889
0.263399
0.273658
0.283359
0.294174
0.305567
0.317597
0.330199
0.343281
0.356725
0.370379
0.384036
0.397453
0.410304
0.422266
0.432816
0.441636
0.447904
0.451495
0.217646
0.231989
0.239538
0.251433
0.262563
0.274985
0.288124
0.302165
0.317152
0.333134
0.350112
0.368025
0.386754
0.406046
0.425547
0.444564
0.462622
0.478225
0.490477
0.498077
0.181313
0.197627
0.206251
0.220094
0.233177
0.248199
0.264511
0.282476
0.302176
0.323782
0.347365
0.372946
0.400393
0.429466
0.459714
0.490558
0.520423
0.55018
0.57198
0.593584
0.138137
0.156381
0.164984
0.179573
0.192235
0.207059
0.222473
0.23961
0.258559
0.279859
0.303959
0.331567
0.363349
0.400002
0.441556
0.48828
0.538251
0.592731
0.642886
0.691793
-0.0893265
-0.0846197
-0.0847817
-0.0853153
-0.0884581
-0.093719
-0.101563
-0.111752
-0.123905
-0.136465
-0.145935
-0.149792
-0.149653
-0.151906
-0.159146
-0.165751
-0.170974
-0.173192
-0.174048
-0.171543
-0.112309
-0.109909
-0.111058
-0.112877
-0.116937
-0.122834
-0.130969
-0.141306
-0.153779
-0.167783
-0.182125
-0.194657
-0.203476
-0.20831
-0.210104
-0.209475
-0.207267
-0.20266
-0.19883
-0.194156
-0.130505
-0.129064
-0.130172
-0.131843
-0.135156
-0.13971
-0.145683
-0.152805
-0.160672
-0.16826
-0.174231
-0.177844
-0.179483
-0.180404
-0.180935
-0.181477
-0.181646
-0.181118
-0.180404
-0.179581
-0.144682
-0.143961
-0.145188
-0.147052
-0.150323
-0.154724
-0.160376
-0.167019
-0.174306
-0.181526
-0.187836
-0.192677
-0.19606
-0.198013
-0.199008
-0.198919
-0.198355
-0.197363
-0.19647
-0.195747
-0.155503
-0.155216
-0.156369
-0.158088
-0.160817
-0.164272
-0.168459
-0.173014
-0.177508
-0.181266
-0.18385
-0.185264
-0.185889
-0.186055
-0.185942
-0.185964
-0.185738
-0.185415
-0.185093
-0.184873
-0.163504
-0.163472
-0.164499
-0.166031
-0.168347
-0.171234
-0.174693
-0.178453
-0.182225
-0.185615
-0.188399
-0.190539
-0.192033
-0.192971
-0.193489
-0.193491
-0.193366
-0.193121
-0.192899
-0.192752
-0.169075
-0.169184
-0.170063
-0.17135
-0.173211
-0.17545
-0.178005
-0.180575
-0.182873
-0.184624
-0.185788
-0.18645
-0.186739
-0.1868
-0.186798
-0.186778
-0.186672
-0.186538
-0.186418
-0.186346
-0.172702
-0.17294
-0.173731
-0.174851
-0.176395
-0.178206
-0.180221
-0.182236
-0.184098
-0.1857
-0.187026
-0.188061
-0.188812
-0.189337
-0.189576
-0.189643
-0.189635
-0.189582
-0.189527
-0.189493
-0.17482
-0.175157
-0.175893
-0.176876
-0.178149
-0.179574
-0.181074
-0.182472
-0.18365
-0.184552
-0.185187
-0.185577
-0.185794
-0.18587
-0.185972
-0.186002
-0.185992
-0.185964
-0.185934
-0.185916
-0.175763
-0.176214
-0.17695
-0.177868
-0.178983
-0.18018
-0.181393
-0.182513
-0.183502
-0.184353
-0.185064
-0.185627
-0.186058
-0.186374
-0.186512
-0.186601
-0.186643
-0.186661
-0.186667
-0.186668
-0.175721
-0.176372
-0.177171
-0.17809
-0.179123
-0.180167
-0.18116
-0.182025
-0.182742
-0.183308
-0.183726
-0.184012
-0.184201
-0.184336
-0.184455
-0.184532
-0.184581
-0.184613
-0.184632