/*--------------------------------*- C++ -*----------------------------------*\
  =========                 |
  \\      /  F ield         | OpenFOAM: The Open Source CFD Toolbox
   \\    /   O peration     | Website:  https://openfoam.org
    \\  /    A nd           | Version:  7
     \\/     M anipulation  |
\*---------------------------------------------------------------------------*/
FoamFile
{
    version     2.0;
    format      ascii;
    class       volVectorField;
    location    "96";
    object      U;
}
// * * * * * * * * * * * * * * * * * * * * * * * * * * * * * * * * * * * * * //

dimensions      [0 1 -1 0 0 0 0];

internalField   nonuniform List<vector> 
8000
(
(-0.244174 -0.000352015 -6.51045e-20)
(-0.244936 -0.000882444 2.81665e-19)
(-0.245913 -0.0015473 -2.76874e-19)
(-0.247281 -0.00200336 7.40628e-19)
(-0.248747 -0.00220543 -5.61469e-19)
(-0.250203 -0.00217936 -7.69078e-19)
(-0.251569 -0.00195875 1.14528e-18)
(-0.25279 -0.0015833 3.77287e-19)
(-0.25383 -0.00109117 2.69766e-19)
(-0.254664 -0.000515077 3.37938e-19)
(-0.25528 0.000118241 -9.9042e-19)
(-0.255672 0.000778699 -9.49805e-19)
(-0.255835 0.00145493 -5.89142e-18)
(-0.255771 0.00213238 -1.64497e-18)
(-0.255484 0.00279916 1.04048e-18)
(-0.254981 0.00344596 1.21047e-18)
(-0.254271 0.00406549 4.17423e-18)
(-0.253361 0.004652 -9.61753e-19)
(-0.252265 0.00520088 1.29692e-18)
(-0.250993 0.00570837 2.53957e-19)
(-0.249559 0.00617137 1.80817e-18)
(-0.247975 0.00658727 2.83029e-18)
(-0.246257 0.00695386 9.77583e-19)
(-0.244418 0.0072693 -6.85653e-19)
(-0.242475 0.00753217 1.41109e-19)
(-0.240442 0.00774149 1.16345e-18)
(-0.238335 0.00789683 -3.21717e-19)
(-0.236172 0.00799836 2.19188e-18)
(-0.233966 0.00804691 3.74182e-20)
(-0.231735 0.00804398 -3.9408e-20)
(-0.229493 0.00799173 9.8362e-19)
(-0.227253 0.00789289 1.15415e-19)
(-0.22503 0.00775074 4.27072e-18)
(-0.222834 0.00756899 -7.14561e-19)
(-0.220677 0.00735168 -3.09428e-18)
(-0.218567 0.00710309 -9.10585e-21)
(-0.216513 0.00682761 2.96665e-19)
(-0.214521 0.00652971 4.69765e-18)
(-0.212595 0.00621378 1.92459e-18)
(-0.210741 0.00588415 5.2365e-18)
(-0.208958 0.00554497 1.44407e-18)
(-0.20725 0.00520019 8.13941e-19)
(-0.205615 0.00485353 4.97027e-18)
(-0.204052 0.00450844 -5.06307e-19)
(-0.202559 0.00416811 1.62697e-19)
(-0.201133 0.00383543 5.30948e-19)
(-0.19977 0.00351299 -4.37027e-18)
(-0.198465 0.00320311 -6.47102e-19)
(-0.197213 0.0029078 3.55997e-19)
(-0.196008 0.00262879 6.71587e-19)
(-0.194843 0.00236756 7.48122e-19)
(-0.193713 0.00212532 -1.00273e-18)
(-0.192611 0.00190302 -1.33165e-18)
(-0.191529 0.00170141 -2.28977e-18)
(-0.19046 0.00152103 -1.36771e-18)
(-0.189397 0.00136221 8.31549e-20)
(-0.188333 0.00122516 -1.55157e-18)
(-0.18726 0.00110995 8.59593e-20)
(-0.186171 0.00101658 -8.53347e-19)
(-0.18506 0.000944919 7.81403e-19)
(-0.183917 0.000894975 5.81909e-18)
(-0.182738 0.000866442 1.57105e-18)
(-0.181514 0.000859039 6.80666e-18)
(-0.180237 0.000872605 1.53429e-19)
(-0.178902 0.00090724 5.01039e-19)
(-0.177501 0.000963148 3.88407e-18)
(-0.176025 0.00104061 1.93502e-18)
(-0.174469 0.00114 8.7036e-18)
(-0.172823 0.00126222 2.25226e-18)
(-0.17108 0.00140821 5.66142e-19)
(-0.169232 0.00157976 8.23751e-18)
(-0.167269 0.00177871 4.50629e-18)
(-0.165184 0.0020074 1.13715e-17)
(-0.162965 0.00226832 1.89179e-18)
(-0.160604 0.00256514 2.78392e-18)
(-0.158088 0.00290208 -2.99262e-18)
(-0.155405 0.00328449 -2.62441e-18)
(-0.152543 0.00371882 5.51696e-18)
(-0.149488 0.0042127 9.30562e-18)
(-0.146225 0.00477541 1.10676e-18)
(-0.142737 0.00541808 7.7973e-18)
(-0.139008 0.00615423 3.03678e-18)
(-0.135018 0.00700033 1.01892e-17)
(-0.130749 0.00797662 -5.29814e-18)
(-0.12618 0.0091081 7.19189e-18)
(-0.12129 0.0104263 8.38716e-18)
(-0.116059 0.0119701 1.06052e-17)
(-0.110473 0.0137934 -3.30091e-18)
(-0.104516 0.0159577 7.21931e-18)
(-0.0981975 0.0185535 -7.82775e-18)
(-0.0915213 0.0216856 -1.86738e-18)
(-0.0845922 0.0255224 -2.15498e-18)
(-0.0774105 0.0302204 -7.84862e-19)
(-0.0705236 0.0360946 -1.10312e-19)
(-0.0634039 0.0433553 1.40931e-19)
(-0.0590165 0.0519876 3.62328e-18)
(-0.0526048 0.0632377 2.64653e-19)
(-0.0559605 0.0709847 -1.64982e-17)
(-0.0469992 0.0838271 -4.27702e-18)
(-0.0369857 0.0507789 -2.45761e-17)
(-0.258304 -0.000246316 -8.66224e-20)
(-0.258851 -0.000664186 4.49969e-20)
(-0.259627 -0.00121621 -1.85812e-19)
(-0.260757 -0.00160888 3.23076e-19)
(-0.262001 -0.00179243 -5.80595e-19)
(-0.263254 -0.00177895 -1.36269e-18)
(-0.264436 -0.00159251 -2.5208e-19)
(-0.265487 -0.00126599 2.31073e-19)
(-0.266366 -0.000832654 3.73326e-20)
(-0.267044 -0.00032152 1.25601e-19)
(-0.267507 0.000240467 -3.47817e-19)
(-0.267746 0.000831666 -1.58255e-18)
(-0.267753 0.00143775 -5.31304e-18)
(-0.267531 0.00204562 -1.70361e-18)
(-0.267082 0.00264445 2.25619e-18)
(-0.266414 0.0032257 1.8597e-18)
(-0.265535 0.00378262 1.99859e-18)
(-0.264455 0.0043099 -3.96435e-19)
(-0.263185 0.00480327 2.89039e-18)
(-0.261738 0.00525926 5.29379e-20)
(-0.260126 0.00567503 3.79159e-19)
(-0.258366 0.0060482 6.13134e-18)
(-0.256471 0.00637673 4.24574e-18)
(-0.254456 0.00665897 -1.65123e-18)
(-0.252339 0.00689363 -1.16057e-19)
(-0.250134 0.00707982 1.65138e-18)
(-0.24786 0.00721715 -1.51524e-18)
(-0.245532 0.00730577 3.74497e-18)
(-0.243168 0.0073464 -1.1408e-18)
(-0.240782 0.00734037 -8.2072e-19)
(-0.238392 0.00728959 1.3073e-18)
(-0.236011 0.00719652 -7.98264e-19)
(-0.233653 0.00706406 1.55063e-18)
(-0.231332 0.00689553 -3.27384e-18)
(-0.229057 0.00669455 -3.95307e-19)
(-0.226839 0.00646494 -1.81016e-19)
(-0.224687 0.00621066 -2.79529e-19)
(-0.222607 0.0059357 2.06141e-18)
(-0.220604 0.00564403 2.19706e-18)
(-0.218684 0.00533953 2.64394e-18)
(-0.216849 0.00502594 9.45843e-19)
(-0.2151 0.00470683 5.67111e-19)
(-0.213437 0.00438556 2.504e-18)
(-0.21186 0.00406527 -3.161e-18)
(-0.210367 0.00374884 -4.47229e-19)
(-0.208955 0.00343888 1.8733e-19)
(-0.20762 0.00313777 -2.00407e-18)
(-0.206358 0.00284761 -4.19524e-19)
(-0.205164 0.00257025 1.33475e-19)
(-0.204032 0.00230728 6.79141e-19)
(-0.202957 0.00206005 4.46892e-19)
(-0.201931 0.00182969 1.42182e-18)
(-0.200949 0.00161709 -1.83715e-18)
(-0.200003 0.00142294 -4.31088e-19)
(-0.199086 0.00124777 -2.60503e-18)
(-0.198192 0.00109188 -3.50713e-19)
(-0.197312 0.000955484 -4.55917e-18)
(-0.19644 0.000838633 -4.17203e-19)
(-0.195569 0.000741355 -2.8032e-18)
(-0.19469 0.000663505 1.95641e-19)
(-0.193798 0.000605142 1.68299e-18)
(-0.192884 0.000565802 6.49075e-19)
(-0.191943 0.000545633 2.98601e-18)
(-0.190967 0.000544467 -2.28293e-18)
(-0.189948 0.00056197 -3.27411e-19)
(-0.188879 0.000598104 7.16791e-18)
(-0.187754 0.000653082 1.83355e-18)
(-0.186564 0.00072741 3.94017e-18)
(-0.185302 0.000822586 1.42695e-18)
(-0.18396 0.000939031 4.66467e-19)
(-0.182529 0.00107801 3.72465e-18)
(-0.181002 0.00124133 8.13635e-18)
(-0.179368 0.00143118 9.41695e-18)
(-0.177619 0.00164966 1.63913e-18)
(-0.175742 0.00190015 5.59859e-18)
(-0.173727 0.00218646 -7.02671e-18)
(-0.171562 0.00251351 -5.7111e-18)
(-0.169231 0.00288726 1.22637e-17)
(-0.166721 0.00331479 2.30416e-18)
(-0.164015 0.00380468 5.91809e-20)
(-0.161094 0.00436733 -1.26507e-19)
(-0.157939 0.0050154 4.25918e-18)
(-0.154527 0.00576435 3.40428e-18)
(-0.150834 0.00663337 -1.35773e-17)
(-0.146832 0.00764624 -2.47681e-18)
(-0.142494 0.00883326 -3.65371e-18)
(-0.137787 0.0102321 2.61177e-18)
(-0.132681 0.0118951 -1.03083e-17)
(-0.127138 0.0138839 -3.14698e-18)
(-0.121141 0.016289 -1.8118e-17)
(-0.114644 0.0192189 -2.89195e-18)
(-0.107707 0.0228458 -3.61551e-18)
(-0.100218 0.0273539 -1.17747e-18)
(-0.0926499 0.033039 -1.44959e-19)
(-0.0842344 0.040279 4.3457e-20)
(-0.0776432 0.0488421 7.59992e-18)
(-0.0680514 0.0606023 4.79843e-19)
(-0.0651783 0.068298 -1.35895e-17)
(-0.0500568 0.0803224 -4.21825e-18)
(-0.0252724 0.0465528 -1.14253e-17)
(-0.270954 -0.000171732 -9.26978e-21)
(-0.271343 -0.000496356 -1.67385e-19)
(-0.271954 -0.000948718 -2.12936e-19)
(-0.272882 -0.00127933 1.252e-19)
(-0.273929 -0.00144108 -1.10816e-18)
(-0.274999 -0.00143545 -5.15628e-19)
(-0.276013 -0.00127903 1.09417e-18)
(-0.276908 -0.000998466 2.97669e-19)
(-0.277639 -0.000622246 -1.41764e-19)
(-0.278175 -0.000175372 -5.45424e-20)
(-0.278498 0.000316651 -1.45568e-19)
(-0.278598 0.00083841 9.66052e-19)
(-0.278465 0.00137402 -3.20453e-18)
(-0.2781 0.0019118 -1.65651e-18)
(-0.277506 0.00244206 1.92187e-19)
(-0.276689 0.00295705 3.36684e-18)
(-0.275659 0.00345065 7.90015e-19)
(-0.274424 0.00391806 -5.26139e-19)
(-0.272997 0.00435538 6.03499e-19)
(-0.271392 0.0047595 -6.18503e-19)
(-0.269621 0.00512784 -5.78695e-19)
(-0.267701 0.00545824 7.1769e-18)
(-0.265645 0.00574889 2.48906e-18)
(-0.263471 0.00599832 1.92858e-18)
(-0.261196 0.00620536 3.0069e-20)
(-0.258836 0.00636922 3.2312e-18)
(-0.256408 0.00648956 -4.09715e-18)
(-0.25393 0.00656648 1.58236e-18)
(-0.25142 0.00660061 -4.10714e-18)
(-0.248893 0.0065931 -1.84645e-18)
(-0.246367 0.00654563 2.67625e-18)
(-0.243855 0.00646032 -2.61446e-18)
(-0.241374 0.00633973 1.92788e-20)
(-0.238935 0.00618678 -1.66368e-18)
(-0.23655 0.00600463 2.64654e-18)
(-0.234231 0.00579664 -3.3197e-19)
(-0.231985 0.00556632 -9.00113e-19)
(-0.229821 0.00531718 1.12913e-18)
(-0.227745 0.00505272 3.7113e-18)
(-0.225761 0.0047764 1.51719e-18)
(-0.223872 0.00449154 5.75101e-19)
(-0.22208 0.0042013 5.66263e-19)
(-0.220386 0.00390867 1.43553e-18)
(-0.21879 0.00361646 -8.67143e-19)
(-0.21729 0.00332724 -7.49139e-19)
(-0.215883 0.00304336 -1.56864e-19)
(-0.214567 0.00276696 -1.24989e-18)
(-0.213336 0.00249993 -1.89844e-19)
(-0.212186 0.00224395 4.00816e-20)
(-0.211112 0.00200046 1.10169e-18)
(-0.210108 0.00177071 4.89615e-19)
(-0.209168 0.00155574 4.38292e-18)
(-0.208285 0.00135638 -3.5577e-18)
(-0.207452 0.00117329 1.36939e-18)
(-0.206663 0.00100696 -5.6189e-18)
(-0.20591 0.000857727 -4.52193e-19)
(-0.205186 0.000725797 -1.15498e-18)
(-0.204484 0.000611262 9.90257e-20)
(-0.203797 0.000514193 3.26074e-18)
(-0.203118 0.000434465 7.10148e-19)
(-0.202439 0.000372127 -1.63715e-18)
(-0.201753 0.000327282 -2.72265e-19)
(-0.201054 0.000298631 1.17796e-18)
(-0.200335 0.000286093 -7.02587e-18)
(-0.199588 0.000290284 -7.08746e-19)
(-0.198806 0.000311555 3.22919e-18)
(-0.197982 0.000350079 1.83402e-18)
(-0.197108 0.000405808 2.26446e-18)
(-0.196177 0.000478521 8.84503e-19)
(-0.195181 0.00056922 4.06064e-19)
(-0.194111 0.000680349 2.00895e-18)
(-0.192959 0.000813069 2.27451e-18)
(-0.191715 0.000969173 -1.71687e-18)
(-0.19037 0.0011505 6.92498e-19)
(-0.188913 0.00136013 1.225e-17)
(-0.187331 0.00160146 -1.75835e-18)
(-0.185611 0.00187894 4.1195e-18)
(-0.183739 0.00219796 1.26254e-17)
(-0.181699 0.002565 -5.54985e-18)
(-0.179473 0.00298789 -1.12954e-18)
(-0.177039 0.00347614 -8.48957e-18)
(-0.174377 0.00404137 8.78073e-18)
(-0.17146 0.00469785 -1.17868e-18)
(-0.16826 0.0054633 -1.33641e-17)
(-0.164742 0.00635982 -1.07934e-17)
(-0.160872 0.00741574 -1.79219e-17)
(-0.156605 0.00866638 -2.02585e-18)
(-0.151896 0.010161 -4.8693e-18)
(-0.146688 0.0119587 -1.30378e-17)
(-0.140935 0.0141462 -1.90372e-17)
(-0.134547 0.0168303 -2.90562e-18)
(-0.127537 0.0201764 -7.90434e-18)
(-0.119683 0.0243829 -1.87993e-18)
(-0.111374 0.0297208 -9.58377e-20)
(-0.10162 0.036684 6.67522e-20)
(-0.0927768 0.0448867 1.5664e-17)
(-0.0800344 0.0565027 1.34993e-18)
(-0.0713507 0.0639431 -2.00074e-17)
(-0.0512308 0.0743334 -4.02213e-18)
(-0.0196574 0.0431095 -8.62634e-18)
(-0.282087 -0.000119002 5.03903e-20)
(-0.282364 -0.000369878 -4.98791e-19)
(-0.282844 -0.000733722 -3.40947e-19)
(-0.283602 -0.00100655 1.31942e-20)
(-0.28448 -0.00114461 -6.46686e-19)
(-0.285391 -0.00114307 3.15883e-19)
(-0.286255 -0.00101285 6.66633e-19)
(-0.287009 -0.000774984 3.24447e-19)
(-0.287607 -0.00045324 -5.31886e-19)
(-0.288016 -6.77402e-05 -2.86235e-19)
(-0.288215 0.000354846 6.38969e-20)
(-0.28819 0.000805942 -4.50611e-19)
(-0.287932 0.00127004 -3.60596e-18)
(-0.28744 0.00173673 -1.97851e-18)
(-0.286718 0.00219738 -1.13892e-18)
(-0.28577 0.0026451 1.5724e-18)
(-0.284605 0.00307446 -7.44679e-19)
(-0.283234 0.00348116 -1.05032e-18)
(-0.281669 0.00386176 -1.30004e-18)
(-0.279924 0.00421348 -2.00331e-18)
(-0.278011 0.00453404 -1.34357e-18)
(-0.275949 0.00482152 7.07398e-18)
(-0.273751 0.00507432 8.43015e-19)
(-0.271435 0.00529113 -2.99851e-19)
(-0.269019 0.00547093 -1.51989e-20)
(-0.266519 0.00561302 4.75311e-21)
(-0.263955 0.00571706 -3.41895e-18)
(-0.261343 0.00578313 1.41566e-18)
(-0.258701 0.00581175 -3.36476e-18)
(-0.256047 0.0058039 -3.13969e-18)
(-0.253398 0.005761 -4.2376e-19)
(-0.250769 0.00568487 6.6134e-20)
(-0.248175 0.00557772 -1.06273e-18)
(-0.245629 0.00544204 -1.09357e-18)
(-0.243144 0.00528057 1.01705e-18)
(-0.240732 0.00509624 -1.37589e-18)
(-0.2384 0.00489206 -2.14208e-18)
(-0.236158 0.00467109 1.24616e-18)
(-0.234012 0.00443639 5.51951e-19)
(-0.231967 0.00419095 7.08594e-19)
(-0.230026 0.00393769 1.94699e-19)
(-0.228192 0.00367937 8.1926e-19)
(-0.226466 0.00341862 1.15863e-18)
(-0.224848 0.0031579 4.94942e-19)
(-0.223336 0.00289946 -1.54816e-18)
(-0.221929 0.00264541 -2.93177e-19)
(-0.220622 0.00239761 -1.22981e-18)
(-0.219413 0.00215776 1.43501e-19)
(-0.218297 0.00192734 2.86286e-19)
(-0.217267 0.00170766 1.9848e-18)
(-0.21632 0.00149983 5.6428e-19)
(-0.215448 0.00130479 1.48339e-18)
(-0.214646 0.00112331 1.02165e-19)
(-0.213906 0.000955977 4.6366e-18)
(-0.213222 0.000803251 -3.83924e-18)
(-0.212586 0.000665436 2.78503e-19)
(-0.211992 0.000542705 2.03849e-18)
(-0.211433 0.000435159 6.16119e-19)
(-0.210901 0.000342857 1.64327e-18)
(-0.210389 0.000265621 8.27158e-19)
(-0.20989 0.00020407 -6.10516e-18)
(-0.209397 0.00015614 -8.97629e-19)
(-0.208904 0.000124308 2.91335e-19)
(-0.208402 0.000107845 -5.53609e-18)
(-0.207886 0.000104906 -1.85738e-19)
(-0.207347 0.000115109 1.73489e-18)
(-0.206779 0.000138497 2.03927e-18)
(-0.206174 0.000175461 1.59218e-18)
(-0.205525 0.000230499 6.81512e-19)
(-0.204823 0.000302227 2.49527e-19)
(-0.20406 0.000389886 1.00251e-18)
(-0.203228 0.000496162 -2.09962e-18)
(-0.202317 0.000622945 -9.06428e-20)
(-0.201317 0.000771371 8.64197e-19)
(-0.200216 0.000944114 1.2462e-17)
(-0.199003 0.0011441 -6.24396e-19)
(-0.197663 0.00137535 1.44782e-18)
(-0.196182 0.00164268 4.88889e-18)
(-0.194542 0.00195188 -3.93654e-18)
(-0.192723 0.00230993 -1.64102e-18)
(-0.190705 0.00272534 -5.66505e-18)
(-0.188462 0.00320852 3.1894e-18)
(-0.185965 0.00377229 -7.93662e-18)
(-0.183182 0.00443267 -4.43428e-18)
(-0.180074 0.00520963 -5.12171e-18)
(-0.176596 0.00612898 -2.29354e-17)
(-0.172697 0.00722299 -4.62996e-18)
(-0.168319 0.0085367 -2.67502e-18)
(-0.163382 0.0101251 -1.00581e-17)
(-0.157819 0.0120687 -1.04861e-17)
(-0.151497 0.0144689 -1.23513e-18)
(-0.144386 0.0174787 -1.68472e-17)
(-0.136164 0.0213008 -2.52963e-18)
(-0.127134 0.0261668 1.14687e-19)
(-0.116113 0.032636 -1.1521e-19)
(-0.105137 0.0402194 1.3047e-17)
(-0.0894946 0.0511938 1.54332e-18)
(-0.0756909 0.0581973 -1.9053e-17)
(-0.0514737 0.0669017 -3.58619e-18)
(-0.016835 0.0395945 -1.34448e-17)
(-0.291678 -8.19043e-05 1.27798e-19)
(-0.291873 -0.000273439 -6.15315e-19)
(-0.292253 -0.000560237 -5.76361e-19)
(-0.292874 -0.000780037 -7.30566e-20)
(-0.293611 -0.00089402 -6.46855e-19)
(-0.294384 -0.000894198 1.52201e-18)
(-0.295118 -0.000787339 6.55224e-19)
(-0.29575 -0.000589663 3.75179e-19)
(-0.296232 -0.000320494 -1.35439e-18)
(-0.29653 4.06764e-06 -5.34104e-19)
(-0.29662 0.000358491 4.0522e-19)
(-0.296487 0.000739157 -2.39886e-18)
(-0.29612 0.00113152 -1.71031e-18)
(-0.295519 0.00152657 -2.89571e-18)
(-0.294685 0.00191688 -2.65841e-18)
(-0.293623 0.00229653 1.0393e-18)
(-0.292343 0.00266082 -3.1889e-18)
(-0.290854 0.00300604 -2.05941e-18)
(-0.289169 0.00332922 -3.78235e-18)
(-0.287302 0.00362795 -4.35062e-18)
(-0.285267 0.00390027 -2.15956e-18)
(-0.283081 0.00414452 1.2108e-17)
(-0.280759 0.00435931 -1.96457e-18)
(-0.27832 0.00454352 -2.79252e-18)
(-0.275781 0.00469624 -6.91678e-20)
(-0.27316 0.00481686 -3.4056e-18)
(-0.270476 0.00490508 -4.9774e-18)
(-0.267747 0.00496092 2.90332e-18)
(-0.26499 0.00498481 -5.47291e-18)
(-0.262225 0.00497754 -5.80328e-18)
(-0.259467 0.00494029 -3.09042e-18)
(-0.256734 0.00487457 2.81135e-18)
(-0.254041 0.00478224 -2.94257e-18)
(-0.251401 0.0046654 -1.00266e-18)
(-0.248827 0.00452635 3.40732e-19)
(-0.246331 0.00436755 -3.53383e-18)
(-0.243923 0.00419157 -4.51094e-18)
(-0.24161 0.00400101 2.75816e-18)
(-0.239401 0.00379844 -2.55103e-18)
(-0.2373 0.00358644 2.07089e-19)
(-0.235311 0.00336747 4.89454e-20)
(-0.233437 0.0031439 1.58856e-18)
(-0.231679 0.00291797 1.49395e-18)
(-0.230038 0.00269178 1.79846e-18)
(-0.228512 0.0024673 -3.53302e-18)
(-0.2271 0.0022463 -4.22901e-19)
(-0.225798 0.00203041 -2.00987e-18)
(-0.224603 0.00182109 8.70821e-19)
(-0.22351 0.00161964 5.65228e-19)
(-0.222515 0.0014272 4.64713e-18)
(-0.221611 0.00124474 9.74046e-19)
(-0.220794 0.0010731 -7.25211e-19)
(-0.220056 0.000912966 4.05892e-18)
(-0.219391 0.000764882 1.09185e-17)
(-0.218792 0.000629277 -5.25673e-18)
(-0.218253 0.00050647 1.82823e-18)
(-0.217765 0.000396654 6.54774e-18)
(-0.217323 0.00029991 1.37924e-18)
(-0.216918 0.000216358 1.22261e-18)
(-0.216545 0.000146167 1.49021e-18)
(-0.216195 8.81157e-05 -1.51313e-17)
(-0.215862 4.64352e-05 -1.25422e-18)
(-0.215538 1.41062e-05 7.29836e-20)
(-0.215218 -7.4586e-06 -7.93797e-18)
(-0.214895 -1.62747e-05 1.16547e-18)
(-0.21456 -1.23986e-05 1.74585e-18)
(-0.214207 4.43176e-06 3.94482e-18)
(-0.213826 3.50297e-05 1.48901e-18)
(-0.21341 7.42619e-05 7.05565e-19)
(-0.212955 0.000124712 6.24986e-19)
(-0.212449 0.000192771 7.78466e-19)
(-0.211884 0.000276322 6.01398e-18)
(-0.211251 0.000376581 2.04454e-18)
(-0.21054 0.00049501 1.69132e-18)
(-0.209739 0.000634096 6.06151e-18)
(-0.208835 0.000796233 -2.50701e-18)
(-0.207813 0.000984787 2.80639e-19)
(-0.206659 0.00120387 7.56026e-19)
(-0.205354 0.00145846 -5.04708e-18)
(-0.203877 0.00175458 -3.2837e-18)
(-0.202206 0.00209961 -6.5138e-18)
(-0.200313 0.00250257 7.47081e-19)
(-0.198168 0.00297462 -2.57818e-18)
(-0.195733 0.00352972 3.37313e-18)
(-0.192966 0.00418533 -2.19179e-18)
(-0.189817 0.0049641 -2.42829e-17)
(-0.186223 0.00589446 -6.08748e-18)
(-0.182117 0.00701607 -1.9948e-18)
(-0.177402 0.00837814 -1.39417e-17)
(-0.17199 0.0100522 -8.19723e-18)
(-0.165711 0.012131 2.17761e-18)
(-0.158497 0.0147499 -1.64201e-17)
(-0.149938 0.0181062 -2.04782e-18)
(-0.140257 0.0223845 5.16202e-19)
(-0.128113 0.0281646 1.95645e-17)
(-0.11523 0.0349017 2.02177e-17)
(-0.0970418 0.0448317 2.68596e-18)
(-0.0788876 0.051234 -1.18803e-17)
(-0.0512531 0.0584637 -3.06068e-18)
(-0.0152686 0.0356111 -8.45306e-18)
(-0.299701 -5.57702e-05 9.03097e-20)
(-0.299841 -0.000199127 -6.36468e-19)
(-0.300144 -0.000419314 -7.34888e-20)
(-0.300659 -0.000591033 -8.29727e-20)
(-0.301281 -0.000681658 8.75011e-19)
(-0.301941 -0.000682275 1.68963e-18)
(-0.302566 -0.000596789 7.72813e-19)
(-0.303094 -0.000437409 3.40303e-19)
(-0.303478 -0.00021943 2.52208e-19)
(-0.303682 4.31327e-05 -8.14132e-19)
(-0.303681 0.000332342 8.8344e-19)
(-0.303456 0.000642927 -1.61857e-18)
(-0.302998 0.000963393 -6.23449e-19)
(-0.302304 0.00128641 -3.19231e-19)
(-0.301377 0.00160584 1.52981e-19)
(-0.30022 0.00191677 1.81389e-18)
(-0.298842 0.00221531 -2.52009e-18)
(-0.297254 0.00249839 1.84265e-18)
(-0.295468 0.00276354 -2.60999e-18)
(-0.293499 0.00300877 -2.73928e-18)
(-0.291361 0.00323242 -2.72173e-18)
(-0.289071 0.00343313 1.31789e-17)
(-0.286645 0.00360973 -2.7781e-18)
(-0.284102 0.00376127 -3.35314e-19)
(-0.281459 0.00388698 3.9147e-19)
(-0.278736 0.00398635 -2.73131e-18)
(-0.27595 0.00405907 -2.23424e-18)
(-0.273121 0.00410516 5.4905e-19)
(-0.270267 0.00412491 -5.74705e-18)
(-0.267407 0.00411896 -4.57476e-18)
(-0.264557 0.00408822 5.64449e-19)
(-0.261735 0.00403394 1.27928e-18)
(-0.258957 0.00395758 -6.57037e-19)
(-0.256236 0.00386086 -9.8923e-19)
(-0.253585 0.00374565 2.16176e-20)
(-0.251018 0.00361397 -1.49107e-18)
(-0.248543 0.0034679 -2.112e-18)
(-0.246169 0.00330957 9.72032e-20)
(-0.243904 0.00314111 -8.59819e-19)
(-0.241754 0.00296462 2.9016e-19)
(-0.239722 0.00278213 -2.60006e-19)
(-0.237812 0.0025956 3.59851e-18)
(-0.236025 0.00240688 2.56365e-18)
(-0.234362 0.00221772 4.07338e-18)
(-0.232821 0.00202973 -7.68787e-19)
(-0.231402 0.00184441 -9.87947e-20)
(-0.2301 0.00166313 -3.99797e-18)
(-0.228914 0.00148709 2.80154e-18)
(-0.227838 0.0013174 1.24961e-18)
(-0.226868 0.00115503 1.79973e-18)
(-0.225998 0.00100079 1.16838e-18)
(-0.225222 0.000855414 -3.94065e-18)
(-0.224535 0.000719477 2.43448e-18)
(-0.223929 0.000593455 6.04878e-18)
(-0.223398 0.000477706 -3.59452e-18)
(-0.222935 0.000372474 5.74466e-18)
(-0.222532 0.000277893 5.38889e-18)
(-0.222184 0.000194252 1.82754e-18)
(-0.221882 0.000121836 1.23474e-18)
(-0.22162 5.95706e-05 2.49498e-18)
(-0.22139 1.28977e-05 -1.40166e-17)
(-0.221187 -2.75062e-05 9.45061e-19)
(-0.221004 -6.04318e-05 -2.47888e-19)
(-0.220831 -8.36525e-05 -4.66145e-18)
(-0.220663 -9.51704e-05 4.96345e-18)
(-0.220492 -9.50423e-05 3.17433e-18)
(-0.220311 -8.32788e-05 7.90143e-18)
(-0.220115 -6.00063e-05 1.8545e-18)
(-0.219895 -2.96424e-05 7.15703e-19)
(-0.21964 1.15803e-05 1.78942e-18)
(-0.219342 5.99296e-05 8.10038e-19)
(-0.218996 0.000123283 4.05687e-18)
(-0.21859 0.000202135 4.64433e-18)
(-0.218115 0.000295593 3.45302e-18)
(-0.217557 0.000405512 3.86736e-18)
(-0.216905 0.000533669 -7.30366e-18)
(-0.216144 0.000683053 -7.68821e-19)
(-0.215257 0.000857242 -2.53178e-18)
(-0.214226 0.0010604 -1.07361e-17)
(-0.213028 0.00129755 -5.4873e-18)
(-0.211641 0.00157481 -1.1147e-17)
(-0.210035 0.00189971 -3.23866e-19)
(-0.208177 0.00228158 6.38115e-19)
(-0.206027 0.00273208 -4.59134e-18)
(-0.203539 0.00326585 -1.6922e-18)
(-0.200658 0.00390191 -2.31587e-17)
(-0.197314 0.0046642 -6.73915e-18)
(-0.19343 0.00558609 -1.81805e-18)
(-0.188896 0.00670946 -7.13993e-18)
(-0.183606 0.00809483 -8.42229e-18)
(-0.177359 0.00982278 8.77934e-18)
(-0.170055 0.0120065 -7.18524e-18)
(-0.161211 0.0148277 -2.84827e-20)
(-0.150981 0.0184235 1.70727e-18)
(-0.137893 0.0233531 3.00433e-17)
(-0.123391 0.0290617 1.79116e-17)
(-0.103064 0.0376233 2.1175e-18)
(-0.0813274 0.0432427 -1.40267e-17)
(-0.0507991 0.0492144 -2.77076e-18)
(-0.0142424 0.0310348 -1.14575e-17)
(-0.306141 -3.71537e-05 1.00951e-19)
(-0.306243 -0.000140863 -5.49384e-19)
(-0.30649 -0.000303191 5.40936e-19)
(-0.306923 -0.000431494 -7.36521e-20)
(-0.307457 -0.000500019 1.31128e-18)
(-0.308028 -0.000500505 5.62632e-19)
(-0.308565 -0.000435002 1.03706e-18)
(-0.309011 -0.000312314 3.86133e-19)
(-0.309315 -0.000143829 1.93976e-18)
(-0.309443 5.82762e-05 -1.7068e-18)
(-0.309368 0.000282186 2.07206e-18)
(-0.309069 0.000522582 -2.25303e-18)
(-0.308538 0.000770972 3.02886e-19)
(-0.30777 0.00102162 2.24691e-18)
(-0.306766 0.00126971 3.2857e-18)
(-0.305533 0.00151138 3.69007e-18)
(-0.304077 0.00174362 1.89764e-18)
(-0.302409 0.001964 1.75058e-18)
(-0.300543 0.0021706 2.14847e-18)
(-0.298491 0.00236185 -2.48542e-18)
(-0.29627 0.00253645 -3.55034e-18)
(-0.293896 0.00269331 1.10454e-17)
(-0.291386 0.00283151 -2.09956e-18)
(-0.288758 0.00295028 2.5369e-18)
(-0.286032 0.00304899 9.3568e-19)
(-0.283225 0.0031272 -4.36012e-18)
(-0.280357 0.00318464 -3.45494e-19)
(-0.277447 0.00322129 -1.18072e-18)
(-0.274514 0.00323734 -3.40784e-18)
(-0.271576 0.00323324 -5.09121e-18)
(-0.268652 0.00320967 -1.14632e-18)
(-0.265757 0.00316758 4.69436e-19)
(-0.262909 0.00310807 7.84987e-19)
(-0.260122 0.00303247 -1.48777e-18)
(-0.257408 0.00294222 -6.18461e-21)
(-0.254781 0.00283887 -6.43164e-19)
(-0.252251 0.00272404 -9.21419e-19)
(-0.249827 0.00259939 -2.08087e-18)
(-0.247516 0.00246658 1.3384e-19)
(-0.245325 0.00232725 7.71211e-19)
(-0.243257 0.00218298 -6.32245e-19)
(-0.241316 0.00203533 9.0634e-19)
(-0.239503 0.00188574 4.71809e-18)
(-0.23782 0.00173561 9.85929e-19)
(-0.236266 0.00158622 3.52948e-19)
(-0.234839 0.00143877 3.85217e-19)
(-0.233536 0.00129435 -8.72669e-18)
(-0.232355 0.00115395 -5.36908e-19)
(-0.23129 0.00101846 2.43061e-18)
(-0.230338 0.000888685 9.93119e-20)
(-0.229493 0.000765307 1.40419e-18)
(-0.228748 0.000648931 -1.05312e-17)
(-0.228099 0.000540068 3.54997e-18)
(-0.227538 0.000439146 4.5979e-18)
(-0.227059 0.000346517 -5.64275e-18)
(-0.226654 0.000262486 5.00959e-18)
(-0.226318 0.000187223 7.04073e-18)
(-0.226042 0.000120551 2.52373e-18)
(-0.225821 6.21384e-05 2.21154e-18)
(-0.225644 1.57637e-05 4.45223e-18)
(-0.225509 -2.80957e-05 -1.23377e-17)
(-0.225409 -6.73987e-05 -3.86503e-18)
(-0.225333 -9.50807e-05 -8.23294e-19)
(-0.225275 -0.000112949 -4.50377e-18)
(-0.225229 -0.000122624 1.38562e-18)
(-0.225188 -0.000124304 6.02714e-18)
(-0.225144 -0.000118041 4.17763e-18)
(-0.22509 -0.000103399 1.39689e-18)
(-0.225019 -7.64898e-05 7.16318e-19)
(-0.224923 -3.92811e-05 4.06239e-18)
(-0.224793 3.37517e-06 7.77775e-19)
(-0.224617 5.01787e-05 5.10713e-18)
(-0.224389 0.000107035 9.93423e-18)
(-0.224099 0.000175453 6.61495e-18)
(-0.223734 0.000256857 3.47048e-18)
(-0.223281 0.000352701 -3.2314e-18)
(-0.222725 0.000464985 -5.23226e-19)
(-0.222048 0.000596297 -7.577e-18)
(-0.221232 0.000749883 -6.36874e-18)
(-0.220256 0.000929692 -9.99354e-18)
(-0.219092 0.00114055 -2.26129e-17)
(-0.217712 0.00138841 3.46732e-20)
(-0.216081 0.00168063 4.53799e-18)
(-0.214156 0.00202643 2.96218e-18)
(-0.211889 0.00243741 -1.77244e-18)
(-0.20922 0.00292863 -1.99483e-17)
(-0.206074 0.0035191 -6.70894e-18)
(-0.202367 0.00423525 -1.91479e-18)
(-0.197977 0.00511065 -5.2297e-18)
(-0.192787 0.00619323 -1.3613e-17)
(-0.186567 0.00754889 1.87341e-18)
(-0.179195 0.0092657 -4.93708e-18)
(-0.170129 0.0115005 3.89726e-18)
(-0.159465 0.0143452 3.07425e-18)
(-0.145633 0.0182964 1.94358e-17)
(-0.129833 0.0228394 2.26881e-17)
(-0.107792 0.0297732 1.24764e-18)
(-0.0832165 0.0344246 -5.94921e-18)
(-0.0502493 0.039259 -1.21527e-18)
(-0.0134483 0.0257548 -4.54319e-18)
(-0.310983 -2.35618e-05 1.63835e-19)
(-0.311061 -9.3803e-05 -2.24862e-19)
(-0.311269 -0.000205108 6.40102e-19)
(-0.311644 -0.000293938 -1.8204e-19)
(-0.312114 -0.000341766 9.08602e-19)
(-0.312617 -0.000342078 -4.60597e-19)
(-0.31309 -0.000295868 1.84902e-18)
(-0.313473 -0.00020915 5.8848e-19)
(-0.313718 -8.983e-05 1.34574e-18)
(-0.313788 5.3175e-05 -2.90418e-19)
(-0.313657 0.000212261 9.1578e-19)
(-0.313303 0.000383059 -5.74817e-19)
(-0.312715 0.000559601 2.20464e-18)
(-0.311892 0.000737829 1.33944e-18)
(-0.310832 0.000914343 3.10989e-18)
(-0.30954 0.00108642 1.91583e-18)
(-0.308025 0.00125193 9.06108e-19)
(-0.306298 0.00140916 2.52876e-18)
(-0.30437 0.00155675 1.75053e-18)
(-0.302256 0.0016936 -4.72435e-18)
(-0.299972 0.00181876 -5.44192e-18)
(-0.297535 0.00193146 4.42167e-18)
(-0.294961 0.00203101 8.98737e-19)
(-0.29227 0.00211683 1.22095e-18)
(-0.28948 0.00218845 1.21892e-18)
(-0.28661 0.0022455 -2.74466e-18)
(-0.28368 0.00228775 -4.29834e-18)
(-0.280708 0.00231513 -3.92576e-18)
(-0.277715 0.00232775 -3.37648e-18)
(-0.274719 0.00232586 -1.64273e-18)
(-0.271737 0.00230993 -2.47122e-18)
(-0.268787 0.00228057 1.1979e-19)
(-0.265886 0.00223857 -4.03106e-18)
(-0.263047 0.00218484 -3.15067e-18)
(-0.260286 0.00212038 3.50813e-19)
(-0.257614 0.00204631 -1.58678e-19)
(-0.255041 0.00196376 -3.76037e-19)
(-0.252578 0.00187392 -5.31834e-18)
(-0.250231 0.00177796 -5.21996e-18)
(-0.248008 0.00167707 1.62206e-18)
(-0.245911 0.00157238 -1.51171e-18)
(-0.243946 0.00146501 -9.90772e-19)
(-0.242114 0.00135601 2.44336e-18)
(-0.240415 0.0012464 -2.30232e-18)
(-0.238849 0.00113712 1.39071e-18)
(-0.237415 0.00102905 7.53181e-19)
(-0.23611 0.000923007 -3.87984e-18)
(-0.234931 0.000819723 -2.34064e-18)
(-0.233873 0.000719879 -3.02457e-18)
(-0.232933 0.000624075 -2.41319e-18)
(-0.232105 0.000532844 2.34629e-18)
(-0.231383 0.000446648 -7.16014e-18)
(-0.23076 0.000365881 9.44044e-19)
(-0.230231 0.000290869 -3.79167e-18)
(-0.22979 0.000221864 -3.11211e-18)
(-0.229428 0.000159029 -1.99655e-20)
(-0.229139 0.000102384 2.86103e-18)
(-0.228917 5.2836e-05 3.29023e-18)
(-0.228753 1.28045e-05 4.35308e-18)
(-0.228642 -2.3116e-05 -1.58197e-18)
(-0.228578 -5.88792e-05 -9.87797e-18)
(-0.22855 -8.35949e-05 -8.85441e-18)
(-0.228553 -0.000102997 -1.51053e-18)
(-0.228581 -0.000117185 -7.26425e-18)
(-0.228625 -0.000125001 -6.05443e-20)
(-0.228678 -0.000126319 1.12274e-18)
(-0.228735 -0.000121221 1.98573e-18)
(-0.228787 -0.000110161 6.80727e-19)
(-0.228827 -9.38661e-05 1.26726e-18)
(-0.228847 -7.19244e-05 9.14761e-18)
(-0.228839 -4.0069e-05 3.25119e-19)
(-0.228794 -3.63754e-06 9.99266e-18)
(-0.228699 3.67729e-05 6.88819e-18)
(-0.228546 8.53273e-05 1.22302e-17)
(-0.228323 0.000143072 4.15146e-18)
(-0.228017 0.000209715 -2.39193e-18)
(-0.227612 0.000287305 -7.30219e-19)
(-0.227091 0.000378223 -1.90068e-18)
(-0.226436 0.00048486 -4.45199e-18)
(-0.225622 0.000610026 -3.42958e-18)
(-0.224625 0.00075719 -1.29879e-17)
(-0.223414 0.000930655 5.40807e-18)
(-0.221951 0.00113575 1.17465e-17)
(-0.220194 0.00137916 1.11755e-17)
(-0.218091 0.00166928 -4.48488e-18)
(-0.215581 0.00201701 -3.08755e-17)
(-0.212584 0.00243611 -7.31434e-18)
(-0.209011 0.00294564 -1.87331e-18)
(-0.204731 0.00357008 -6.72573e-18)
(-0.199619 0.00434382 -7.32184e-18)
(-0.193424 0.00531596 -1.33768e-19)
(-0.186009 0.0065482 -6.9396e-18)
(-0.176784 0.00816453 1.02824e-17)
(-0.165807 0.0102143 6.71289e-18)
(-0.151432 0.0130916 2.26315e-17)
(-0.134671 0.0163758 1.97843e-17)
(-0.111348 0.0214787 -2.18331e-18)
(-0.0846509 0.0249862 -2.99913e-18)
(-0.0497069 0.0286715 -3.03114e-19)
(-0.0127851 0.0196887 -1.99047e-18)
(-0.314217 -1.30227e-05 1.72712e-19)
(-0.31428 -5.37252e-05 -4.53244e-20)
(-0.314464 -0.00011872 2.87738e-19)
(-0.314802 -0.000170811 -5.03504e-19)
(-0.315229 -0.00019882 1.11199e-18)
(-0.315689 -0.000198629 3.44462e-19)
(-0.316119 -0.00017067 1.55061e-18)
(-0.31646 -0.000118461 8.07905e-19)
(-0.316665 -4.6621e-05 1.50591e-18)
(-0.316698 3.83256e-05 5.94348e-19)
(-0.316529 0.000132185 4.62918e-19)
(-0.316137 0.000232958 6.27619e-19)
(-0.315513 0.000337179 1.18924e-18)
(-0.314652 0.000442456 1.05842e-18)
(-0.313554 0.000546811 -3.81239e-19)
(-0.312224 0.000648679 6.52799e-19)
(-0.31067 0.000746837 2.17132e-19)
(-0.308902 0.000840318 4.76615e-18)
(-0.306933 0.000928346 1.51234e-18)
(-0.304778 0.00101028 -4.87766e-18)
(-0.302452 0.00108556 -3.39587e-18)
(-0.299972 0.00115372 2.33195e-18)
(-0.297356 0.00121431 3.35169e-18)
(-0.294622 0.00126696 6.45003e-19)