/*--------------------------------*- C++ -*----------------------------------*\
  =========                 |
  \\      /  F ield         | OpenFOAM: The Open Source CFD Toolbox
   \\    /   O peration     | Website:  https://openfoam.org
    \\  /    A nd           | Version:  7
     \\/     M anipulation  |
\*---------------------------------------------------------------------------*/
FoamFile
{
    version     2.0;
    format      ascii;
    class       surfaceScalarField;
    location    "58";
    object      phi;
}
// * * * * * * * * * * * * * * * * * * * * * * * * * * * * * * * * * * * * * //

dimensions      [0 3 -1 0 0 0 0];

internalField   nonuniform List<scalar> 
7840
(
-0.00147444
0.00976871
-0.00939952
-0.00183927
0.00973254
-0.00936771
-0.00220392
0.00967604
-0.00931139
-0.00256811
0.00963181
-0.00926763
-0.00293349
0.0095826
-0.00921722
-0.00330002
0.00954115
-0.00917462
-0.00366961
0.00949739
-0.00912779
-0.00404323
0.0094587
-0.00908508
-0.00442276
0.00941973
-0.0090402
-0.00480936
0.00938722
-0.00900062
-0.00520857
0.0093533
-0.00895409
-0.00562094
0.00933471
-0.00892234
-0.00606287
0.00930875
-0.00886682
-0.00652486
0.00932391
-0.00886192
-0.00700842
0.00927321
-0.00878965
-0.00733759
0.00914928
-0.00882011
-0.00719704
0.00843686
-0.00857741
-0.00579239
0.00698143
-0.00838608
-0.00317779
0.00401686
-0.00663146
0.00109055
-0.00426834
-0.00150066
0.0101389
-0.00186798
0.0100999
-0.0022356
0.0100437
-0.0026034
0.00999961
-0.00297271
0.00995191
-0.00334414
0.00991257
-0.00371937
0.00987262
-0.00410005
0.00983938
-0.00448877
0.00980845
-0.00488804
0.00978649
-0.00530436
0.00976962
-0.00574246
0.00977281
-0.00621135
0.00977764
-0.00666781
0.00978037
-0.00698619
0.00959158
-0.00683404
0.00899713
-0.00585928
0.0074621
-0.00382404
0.00494619
-0.00144299
0.0016358
-0.000352441
-0.00152578
0.0105103
-0.00189512
0.0104692
-0.00226541
0.010414
-0.00263642
0.0103706
-0.00300991
0.0103254
-0.00338663
0.0102893
-0.00376854
0.0102545
-0.00415723
0.0102281
-0.00455555
0.0102068
-0.00496679
0.0101977
-0.00539704
0.0101999
-0.00584487
0.0102206
-0.00627986
0.0102126
-0.00657318
0.0100737
-0.00647539
0.00949379
-0.00563145
0.0081532
-0.00390698
0.00573763
-0.00162709
0.00266631
-9.1622e-05
0.000100333
-0.000444063
-0.00154973
0.0108829
-0.00192088
0.0108404
-0.00229337
0.0107864
-0.00266705
0.0107443
-0.00304357
0.0107019
-0.00342364
0.0106694
-0.00380932
0.0106402
-0.00420294
0.0106217
-0.00460858
0.0106124
-0.00503038
0.0106195
-0.00546793
0.0106374
-0.00589314
0.0106458
-0.00621353
0.010533
-0.00622329
0.0100834
-0.00564402
0.00891452
-0.00427778
0.00678695
-0.00236131
0.00382115
-0.000731866
0.00103687
-5.84176e-05
-0.000573115
-0.000502481
-0.00157228
0.0112565
-0.00194509
0.0112132
-0.0023196
0.011161
-0.00269603
0.0111207
-0.00307617
0.0110821
-0.00346139
0.0110546
-0.00385426
0.0110331
-0.00425694
0.0110244
-0.0046713
0.0110268
-0.00509555
0.0110438
-0.00551222
0.0110541
-0.0058554
0.010989
-0.00597339
0.010651
-0.00562322
0.00973328
-0.00458832
0.00787962
-0.00292231
0.00512094
-0.0012227
0.00212155
-0.00016324
-2.25956e-05
0.00011387
-0.000850225
-0.000388611
-0.00159352
0.011631
-0.00196787
0.0115875
-0.00234419
0.0115373
-0.00272286
0.0114994
-0.00310528
0.0114645
-0.00349248
0.0114418
-0.003886
0.0114266
-0.00428771
0.0114261
-0.00469895
0.011438
-0.00511134
0.0114562
-0.00548264
0.0114254
-0.00569914
0.0112055
-0.00556328
0.0105152
-0.00485233
0.00902233
-0.00350507
0.00653236
-0.00187368
0.00348955
-0.00062728
0.000875149
-6.6754e-05
-0.000583122
6.20414e-06
-0.000923183
-0.000382407
-0.00161323
0.0120062
-0.0019888
0.0119631
-0.0023666
0.0119151
-0.00274746
0.0118803
-0.00313288
0.0118499
-0.0035248
0.0118337
-0.00392538
0.0118272
-0.0043361
0.0118368
-0.00475105
0.011853
-0.00513976
0.0118449
-0.00542183
0.0117075
-0.00544759
0.0112313
-0.00502073
0.0100883
-0.00400135
0.00800295
-0.00253121
0.00506222
-0.0011533
0.00211164
-0.000342091
6.39369e-05
-3.44802e-05
-0.000890733
6.91061e-06
-0.000964574
-0.000375496
-0.00163178
0.012382
-0.0020086
0.0123399
-0.00238785
0.0122943
-0.00277057
0.012263
-0.00315749
0.0122368
-0.00354952
0.0122257
-0.00394621
0.0122239
-0.00434406
0.0122347
-0.00472764
0.0122365
-0.00505073
0.012168
-0.00521135
0.0118681
-0.00504218
0.0110621
-0.00436516
0.00941128
-0.00315781
0.0067956
-0.00176662
0.00367103
-0.000732354
0.00107738
-0.000212837
-0.000455579
-3.8269e-05
-0.0010653
-2.17462e-05
-0.000981096
-0.000397242
-0.00164863
0.0127581
-0.00202609
0.0127174
-0.002406
0.0126742
-0.00279019
0.0126472
-0.00317887
0.0126255
-0.00357395
0.0126208
-0.00397545
0.0126254
-0.00437815
0.0126374
-0.00475495
0.0126133
-0.00502928
0.0124423
-0.00505674
0.0118956
-0.00465814
0.0106635
-0.00373452
0.00848766
-0.00244128
0.00550236
-0.00123209
0.00246184
-0.000461938
0.000307231
-0.000101644
-0.000815874
5.24979e-06
-0.0011722
5.42025e-06
-0.000981267
-0.000391822
-0.00166426
0.013134
-0.00204372
0.0130968
-0.00242497
0.0130555
-0.0028112
0.0130334
-0.00320073
0.013015
-0.0035944
0.0130145
-0.00398613
0.0130171
-0.00435763
0.0130089
-0.00465782
0.0129135
-0.00478501
0.0125695
-0.00459819
0.0117087
-0.00398107
0.0100464
-0.00294978
0.00745637
-0.00175386
0.00430643
-0.000787026
0.00149501
-0.00022341
-0.000256385
2.59628e-05
-0.00106525
5.88919e-05
-0.00120512
1.40764e-05
-0.000936451
-0.000377746
-0.000617964
0.0115517
-0.011774
-0.000403576
0.0114581
-0.0116725
-0.000194151
0.0113586
-0.011568
3.46814e-06
0.0112312
-0.0114288
0.000192057
0.0111128
-0.0113014
0.000366316
0.0109644
-0.0111387
0.0005266
0.0108157
-0.0109759
0.000668541
0.0106355
-0.0107775
0.00078922
0.0104368
-0.0105574
0.000884408
0.0101968
-0.010292
0.00094886
0.00991806
-0.00998252
0.000977706
0.00957477
-0.00960362
0.000962377
0.00917084
-0.00915551
0.000905143
0.00866939
-0.00861216
0.000796625
0.00811509
-0.00800657
0.000644142
0.00740948
-0.007257
0.000441434
0.00670858
-0.00650587
0.000178096
0.00574887
-0.00548553
-6.72134e-06
0.00458918
-0.00440436
0.00218183
-0.00218855
-0.000642695
0.0113261
-0.000425996
0.0112414
-0.00021398
0.0111466
-1.35615e-05
0.0110308
0.000177992
0.0109213
0.000355319
0.0107871
0.000518675
0.0106523
0.00066363
0.0104906
0.000787469
0.0103129
0.000885669
0.0100986
0.000953125
0.00985061
0.000985014
0.00954288
0.000974816
0.00918104
0.000921021
0.00872319
0.00082109
0.00821502
0.000667702
0.00756287
0.000485115
0.00689117
0.000229983
0.006004
7.37435e-05
0.00474542
0.00225557
-0.000667361
0.0110978
-0.000447466
0.0110215
-0.000232514
0.0109316
-2.87093e-05
0.0108269
0.000166436
0.0107261
0.000347631
0.0106059
0.000515022
0.0104849
0.000664093
0.0103415
0.000791968
0.0101851
0.00089361
0.009997
0.000963315
0.0097809
0.000995194
0.009511
0.000981057
0.00919517
0.000916669
0.00878757
0.000798749
0.00833294
0.000618952
0.00774267
0.000403815
0.0071063
0.000120118
0.0062877
-3.65516e-05
0.00490209
0.00221902
-0.00069149
0.0108664
-0.000468066
0.0107981
-0.000249752
0.0107133
-4.21075e-05
0.0106193
0.000157057
0.010527
0.000342714
0.0104202
0.000514882
0.0103127
0.000669093
0.0101873
0.000802521
0.0100516
0.000909969
0.00988956
0.000985952
0.00970492
0.00102371
0.00947324
0.00101648
0.00920241
0.000954668
0.00884938
0.000841864
0.00844575
0.000650171
0.00793436
0.00043424
0.00732224
0.00015488
0.00656706
-1.62689e-05
0.00507323
0.00220275
-0.000715265
0.0106317
-0.000488077
0.0105709
-0.000266133
0.0104914
-5.42983e-05
0.0104075
0.00014929
0.0103234
0.000339954
0.0102295
0.000517704
0.010135
0.000678252
0.0100267
0.000818978
0.0099109
0.000934502
0.00977403
0.00101964
0.00961978
0.00106646
0.00942643
0.00106901
0.00919986
0.00101533
0.00890306
0.000909588
0.00855149
0.000732654
0.00811129
0.000506529
0.00754836
0.000230482
0.0068431
2.6078e-05
0.00527764
0.00222883
-0.000738179
0.0103934
-0.000506752
0.0103395
-0.000280561
0.0102652
-6.3797e-05
0.0101907
0.00014511
0.0101145
0.000341922
0.0100327
0.000526755
0.00995017
0.000695528
0.00985796
0.000846096
0.00976033
0.00097288
0.00964725
0.00107163
0.00952103
0.00113195
0.0093661
0.00115075
0.00918105
0.00110604
0.00894777
0.00100803
0.00864951
0.000801323
0.008318
0.000564134
0.00778555
0.00024174
0.0071655
2.51004e-05
0.00549428
0.00225393
-0.000761024
0.0101513
-0.000525408
0.0101039
-0.000295006
0.0100348
-7.33814e-05
0.00996908
0.000140813
0.00990029
0.000343681
0.00982987
0.00053553
0.00975832
0.000712692
0.0096808
0.000873377
0.00959965
0.00101182
0.0095088
0.00112408
0.00940878
0.00119969
0.00929049
0.001236
0.00914475
0.00121559
0.00896818
0.00114827
0.00871682
0.00102504
0.00844123
0.000822941
0.00798765
0.000568972
0.00741947
0.000226224
0.00583703
0.00248015
-0.000782171
0.00990492
-0.000541512
0.0098632
-0.000305682
0.00979895
-7.78217e-05
0.00974122
0.000143262
0.00967921
0.000354185
0.00961894
0.000555649
0.00955685
0.000744263
0.00949219
0.000918648
0.00942526
0.00107323
0.00935423
0.00120586
0.00927615
0.00130496
0.00919138
0.00136823
0.00908148
0.00136773
0.00896869
0.00130452
0.00878003
0.00110849
0.00863726
0.000846854
0.00824929
0.000434718
0.0078316
0.000160958
0.00611079
0.00264111
-0.000804606
0.00965472
-0.000560095
0.00961869
-0.000320244
0.0095591
-8.78336e-05
0.00950881
0.000138314
0.00945306
0.000354857
0.0094024
0.000562809
0.0093489
0.000758708
0.00929629
0.00094157
0.0092424
0.00110656
0.00918924
0.00125183
0.00913088
0.00136719
0.00907602
0.00145168
0.00899699
0.00148931
0.00893106
0.00149546
0.00877388
0.00148259
0.00865013
0.0014215
0.00831037
0.00126892
0.00798418
0.000772535
0.00660717
0.00341365
-0.000822745
-0.000571767
-0.000324059
-8.28795e-05
0.000152967
0.00038075
0.000601862
0.000813066
0.00101526
0.00120389
0.00138068
0.00153435
0.00166452
0.00173366
0.00171789
0.00154791
0.00128088
0.000878978
0.00085469
-0.000822745
-0.00965472
0.00939952
-0.000571767
-0.00961869
0.00936771
-0.000324059
-0.0095591
0.00931139
-8.28795e-05
-0.00950881
0.00926763
0.000152967
-0.00945306
0.00921722
0.00038075
-0.0094024
0.00917462
0.000601862
-0.0093489
0.00912779
0.000813066
-0.00929629
0.00908508
0.00101526
-0.0092424
0.0090402
0.00120389
-0.00918924
0.00900062
0.00138068
-0.00913088
0.00895409
0.00153435
-0.00907602
0.00892234
0.00166452
-0.00899699
0.00886682
0.00173366
-0.00893106
0.00886192
0.00171789
-0.00877388
0.00878965
0.00154791
-0.00865013
0.00882011
0.00128088
-0.00831037
0.00857741
0.000878978
-0.00798418
0.00838608
0.00085469
-0.00660717
0.00663146
-0.00341365
0.00426834
-0.000804606
-0.00990492
-0.000560095
-0.0098632
-0.000320244
-0.00979895
-8.78336e-05
-0.00974122
0.000138314
-0.00967921
0.000354857
-0.00961894
0.000562809
-0.00955685
0.000758708
-0.00949219
0.00094157
-0.00942526
0.00110656
-0.00935423
0.00125183
-0.00927615
0.00136719
-0.00919138
0.00145168
-0.00908148
0.00148931
-0.00896869
0.00149546
-0.00878003
0.00148259
-0.00863726
0.0014215
-0.00824929
0.00126892
-0.0078316
0.000772535
-0.00611079
-0.00264111
-0.000782171
-0.0101513
-0.000541512
-0.0101039
-0.000305682
-0.0100348
-7.78217e-05
-0.00996908
0.000143262
-0.00990029
0.000354185
-0.00982987
0.000555649
-0.00975832
0.000744263
-0.0096808
0.000918648
-0.00959965
0.00107323
-0.0095088
0.00120586
-0.00940878
0.00130496
-0.00929049
0.00136823
-0.00914475
0.00136773
-0.00896818
0.00130452
-0.00871682
0.00110849
-0.00844123
0.000846854
-0.00798765
0.000434718
-0.00741947
0.000160958
-0.00583703
-0.00248015
-0.000761024
-0.0103934
-0.000525408
-0.0103395
-0.000295006
-0.0102652
-7.33814e-05
-0.0101907
0.000140813
-0.0101145
0.000343681
-0.0100327
0.00053553
-0.00995017
0.000712692
-0.00985796
0.000873377
-0.00976033
0.00101182
-0.00964725
0.00112408
-0.00952103
0.00119969
-0.0093661
0.001236
-0.00918105
0.00121559
-0.00894777
0.00114827
-0.00864951
0.00102504
-0.008318
0.000822941
-0.00778555
0.000568972
-0.0071655
0.000226224
-0.00549428
-0.00225393
-0.000738179
-0.0106317
-0.000506752
-0.0105709
-0.000280561
-0.0104914
-6.3797e-05
-0.0104075
0.00014511
-0.0103234
0.000341922
-0.0102295
0.000526755
-0.010135
0.000695528
-0.0100267
0.000846096
-0.0099109
0.00097288
-0.00977403
0.00107163
-0.00961978
0.00113195
-0.00942643
0.00115075
-0.00919986
0.00110604
-0.00890306
0.00100803
-0.00855149
0.000801323
-0.00811129
0.000564134
-0.00754836
0.00024174
-0.0068431
2.51004e-05
-0.00527764
-0.00222883
-0.000715265
-0.0108664
-0.000488077
-0.0107981
-0.000266133
-0.0107133
-5.42983e-05
-0.0106193
0.00014929
-0.010527
0.000339954
-0.0104202
0.000517704
-0.0103127
0.000678252
-0.0101873
0.000818978
-0.0100516
0.000934502
-0.00988956
0.00101964
-0.00970492
0.00106646
-0.00947324
0.00106901
-0.00920241
0.00101533
-0.00884938
0.000909588
-0.00844575
0.000732654
-0.00793436
0.000506529
-0.00732224
0.000230482
-0.00656706
2.6078e-05
-0.00507323
-0.00220275
-0.00069149
-0.0110978
-0.000468066
-0.0110215
-0.000249752
-0.0109316
-4.21075e-05
-0.0108269
0.000157057
-0.0107261
0.000342714
-0.0106059
0.000514882
-0.0104849
0.000669093
-0.0103415
0.000802521
-0.0101851
0.000909969
-0.009997
0.000985952
-0.0097809
0.00102371
-0.009511
0.00101648
-0.00919517
0.000954668
-0.00878757
0.000841864
-0.00833294
0.000650171
-0.00774267
0.00043424
-0.0071063
0.00015488
-0.0062877
-1.62689e-05
-0.00490209
-0.00221902
-0.000667361
-0.0113261
-0.000447466
-0.0112414
-0.000232514
-0.0111466
-2.87093e-05
-0.0110308
0.000166436
-0.0109213
0.000347631
-0.0107871
0.000515022
-0.0106523
0.000664093
-0.0104906
0.000791968
-0.0103129
0.00089361
-0.0100986
0.000963315
-0.00985061
0.000995194
-0.00954288
0.000981057
-0.00918104
0.000916669
-0.00872319
0.000798749
-0.00821502
0.000618952
-0.00756287
0.000403815
-0.00689117
0.000120118
-0.006004
-3.65516e-05
-0.00474542
-0.00225557
-0.000642695
-0.0115517
-0.000425996
-0.0114581
-0.00021398
-0.0113586
-1.35615e-05
-0.0112312
0.000177992
-0.0111128
0.000355319
-0.0109644
0.000518675
-0.0108157
0.00066363
-0.0106355
0.000787469
-0.0104368
0.000885669
-0.0101968
0.000953125
-0.00991806
0.000985014
-0.00957477
0.000974816
-0.00917084
0.000921021
-0.00866939
0.00082109
-0.00811509
0.000667702
-0.00740948
0.000485115
-0.00670858
0.000229983
-0.00574887
7.37435e-05
-0.00458918
-0.00218183
-0.000617964
-0.011774
-0.000403576
-0.0116725
-0.000194151
-0.011568
3.46814e-06
-0.0114288
0.000192057
-0.0113014
0.000366316
-0.0111387
0.0005266
-0.0109759
0.000668541
-0.0107775
0.00078922
-0.0105574
0.000884408
-0.010292
0.00094886
-0.00998252
0.000977706
-0.00960362
0.000962377
-0.00915551
0.000905143
-0.00861216
0.000796625
-0.00800657
0.000644142
-0.007257
0.000441434
-0.00650587
0.000178096
-0.00548553
-6.72134e-06
-0.00440436
-0.00218855
-0.00166426
-0.0127581
0.013134
-0.00204372
-0.0127174
0.0130968
-0.00242497
-0.0126742
0.0130555
-0.0028112
-0.0126472
0.0130334
-0.00320073
-0.0126255
0.013015
-0.0035944
-0.0126208
0.0130145
-0.00398613
-0.0126254
0.0130171
-0.00435763
-0.0126374
0.0130089
-0.00465782
-0.0126133
0.0129135
-0.00478501
-0.0124423
0.0125695
-0.00459819
-0.0118956
0.0117087
-0.00398107
-0.0106635
0.0100464
-0.00294978
-0.00848766
0.00745637
-0.00175386
-0.00550236
0.00430643
-0.000787026
-0.00246184
0.00149501
-0.00022341
-0.000307231
-0.000256385
2.59628e-05
0.000815874
-0.00106525
5.88919e-05
0.0011722
-0.00120512
1.40764e-05
0.000981267
-0.000936451
0.000391822
-0.000377746
-0.00164863
-0.012382
-0.00202609
-0.0123399
-0.002406
-0.0122943
-0.00279019
-0.012263
-0.00317887
-0.0122368
-0.00357395
-0.0122257
-0.00397545
-0.0122239
-0.00437815
-0.0122347
-0.00475495
-0.0122365
-0.00502928
-0.012168
-0.00505674
-0.0118681
-0.00465814
-0.0110621
-0.00373452
-0.00941128
-0.00244128
-0.0067956
-0.00123209
-0.00367103
-0.000461938
-0.00107738
-0.000101644
0.000455579
5.24978e-06
0.0010653
5.42025e-06
0.000981096
0.000397242
-0.00163178
-0.0120062
-0.0020086
-0.0119631
-0.00238785
-0.0119151
-0.00277057
-0.0118803
-0.00315749
-0.0118499
-0.00354952
-0.0118337
-0.00394621
-0.0118272
-0.00434406
-0.0118368
-0.00472764
-0.011853
-0.00505073
-0.0118449
-0.00521135
-0.0117075
-0.00504218
-0.0112313
-0.00436516
-0.0100883
-0.00315781
-0.00800295
-0.00176662
-0.00506222
-0.000732354
-0.00211164
-0.000212837
-6.39369e-05
-3.8269e-05
0.000890733
-2.17462e-05
0.000964574
0.000375496
-0.00161323
-0.011631
-0.0019888
-0.0115875
-0.0023666
-0.0115373
-0.00274746
-0.0114994
-0.00313288
-0.0114645
-0.0035248
-0.0114418
-0.00392538
-0.0114266
-0.0043361
-0.0114261
-0.00475105
-0.011438
-0.00513976
-0.0114562
-0.00542183
-0.0114254
-0.00544759
-0.0112055
-0.00502073
-0.0105152
-0.00400135
-0.00902233
-0.00253121
-0.00653236
-0.0011533
-0.00348955
-0.000342091
-0.000875149
-3.44802e-05
0.000583122
6.91061e-06
0.000923183
0.000382407
-0.00159352
-0.0112565
-0.00196787
-0.0112132
-0.00234419
-0.011161
-0.00272286
-0.0111207
-0.00310528
-0.0110821
-0.00349248
-0.0110546
-0.003886
-0.0110331
-0.00428771
-0.0110244
-0.00469895
-0.0110268
-0.00511134
-0.0110438
-0.00548264
-0.0110541
-0.00569914
-0.010989
-0.00556328
-0.010651
-0.00485233
-0.00973328
-0.00350507
-0.00787962
-0.00187368
-0.00512094
-0.00062728
-0.00212155
-6.6754e-05
2.25956e-05
6.20414e-06
0.000850225
0.000388611
-0.00157228
-0.0108829
-0.00194509
-0.0108404
-0.0023196
-0.0107864
-0.00269603
-0.0107443
-0.00307617
-0.0107019
-0.00346139
-0.0106694
-0.00385426
-0.0106402
-0.00425694
-0.0106217
-0.0046713
-0.0106124
-0.00509555
-0.0106195
-0.00551222
-0.0106374
-0.0058554
-0.0106458
-0.00597339
-0.010533
-0.00562322
-0.0100834
-0.00458832
-0.00891452
-0.00292231
-0.00678695
-0.0012227
-0.00382115
-0.00016324
-0.00103687
0.00011387
0.000573115
0.000502481
-0.00154973
-0.0105103
-0.00192088
-0.0104692
-0.00229337
-0.010414
-0.00266705
-0.0103706
-0.00304357
-0.0103254
-0.00342364
-0.0102893
-0.00380932
-0.0102545
-0.00420294
-0.0102281
-0.00460858
-0.0102068
-0.00503038
-0.0101977
-0.00546793
-0.0101999
-0.00589314
-0.0102206
-0.00621353
-0.0102126
-0.00622329
-0.0100737
-0.00564402
-0.00949379
-0.00427778
-0.0081532
-0.00236131
-0.00573763
-0.000731866
-0.00266631
-5.84176e-05
-0.000100333
0.000444063
-0.00152578
-0.0101389
-0.00189512
-0.0100999
-0.00226541
-0.0100437
-0.00263642
-0.00999961
-0.00300991
-0.00995191
-0.00338663
-0.00991257
-0.00376854
-0.00987262
-0.00415723
-0.00983938
-0.00455555
-0.00980845
-0.00496679
-0.00978649
-0.00539704
-0.00976962
-0.00584487
-0.00977281
-0.00627986
-0.00977764
-0.00657318
-0.00978037
-0.00647539
-0.00959158
-0.00563145
-0.00899713
-0.00390698
-0.0074621
-0.00162709
-0.00494619
-9.1622e-05
-0.0016358
0.000352441
-0.00150066
-0.00976871
-0.00186798
-0.00973254
-0.0022356
-0.00967604
-0.0026034
-0.00963181
-0.00297271
-0.0095826
-0.00334414
-0.00954115
-0.00371937
-0.00949739
-0.00410005
-0.0094587
-0.00448877
-0.00941973
-0.00488804
-0.00938722
-0.00530436
-0.0093533
-0.00574246
-0.00933471
-0.00621135
-0.00930875
-0.00666781
-0.00932391
-0.00698619
-0.00927321
-0.00683404
-0.00914928
-0.00585928
-0.00843686
-0.00382404
-0.00698143
-0.00144299
-0.00401686
-0.00109055
-0.00147444
-0.00183927
-0.00220392
-0.00256811
-0.00293349
-0.00330002
-0.00366961
-0.00404323
-0.00442276
-0.00480936
-0.00520857
-0.00562094
-0.00606287
-0.00652486
-0.00700842
-0.00733759
-0.00719704
-0.00579239
-0.00317779
-0.00453432
-0.0113782
-0.004932
-0.0112748
-0.00533776
-0.0111623
-0.00573741
-0.0110291
-0.006149
-0.0108898
-0.00655264
-0.010735
-0.00696069
-0.0105679
-0.00735379
-0.0103844
-0.00772736
-0.0101839
-0.00806282
-0.00995657
-0.00834435
-0.00970099
-0.00853523
-0.00941274
-0.00860324
-0.0090875
-0.00849769
-0.00871771
-0.00820225
-0.00830201
-0.00761876
-0.00784049
-0.00678092
-0.0073437
-0.00545439
-0.00681207
-0.00352679
-0.00633196
-0.00571534
-7.59085e-12
-0.00350726
-0.0110697
-0.00380077
-0.0109813
-0.00408302
-0.01088
-0.00435286
-0.0107593
-0.00461397
-0.0106287
-0.00486179
-0.0104872
-0.00509681
-0.0103329
-0.00531564
-0.0101655
-0.00551612
-0.00998339
-0.00568637
-0.00978632
-0.0058136
-0.00957376
-0.00587964
-0.0093467
-0.00586067
-0.00910647
-0.00572169
-0.00885668
-0.00542368
-0.00860002
-0.00492252
-0.00834166
-0.0041769
-0.00808933
-0.00313876
-0.0078502
-0.00181624
-0.00765448
-0.00753158
-4.59464e-12
-0.00288275
-0.0108022
-0.00313764
-0.0107264
-0.00337506
-0.0106426
-0.0035913
-0.0105431
-0.0037811
-0.0104389
-0.00394234
-0.0103259
-0.00407044
-0.0102048
-0.00416085
-0.0100751
-0.00420713
-0.00993711
-0.00420315
-0.0097903
-0.00414194
-0.00963498
-0.00401699
-0.00947164
-0.00382168
-0.00930179
-0.00355046
-0.0091279
-0.00319583
-0.00895466
-0.00274923
-0.00878825
-0.00220323
-0.00863533
-0.00154959
-0.00850384
-0.000799134
-0.00840493
-0.00833072
-3.26251e-12
-0.00208046
-0.0106007
-0.00226795
-0.0105389
-0.00244017
-0.0104704
-0.00259563
-0.0103876
-0.00273456
-0.0103
-0.00285456
-0.0102059
-0.00295273
-0.0101066
-0.00302524
-0.0100026
-0.0030678
-0.00989456
-0.00307459
-0.00978351
-0.00303903
-0.00967054
-0.00295361
-0.00955706
-0.00281077
-0.00944462
-0.00260359
-0.00933508
-0.00232778
-0.00923046
-0.00198258
-0.00913345
-0.00157041
-0.0090475
-0.00109698
-0.00897727
-0.000574537
-0.00892737
-0.00890525
-2.53563e-12
-0.00167618
-0.0104444
-0.00181652
-0.0103986
-0.00193975
-0.0103471
-0.00204236
-0.010285
-0.00212288
-0.0102195
-0.00217946
-0.0101494
-0.00221039
-0.0100757
-0.00221423
-0.00999878
-0.00218966
-0.00991912
-0.00213588
-0.00983729
-0.00205233
-0.0097541
-0.00193872
-0.00967067
-0.00179484
-0.00958851
-0.0016204
-0.00950951
-0.00141495
-0.00943591
-0.00117845
-0.00936995
-0.000912275
-0.00931368
-0.000620957
-0.00926859
-0.000311986
-0.00923634
-0.00921724
-1.99403e-12
-0.00116642
-0.0103244
-0.0012779
-0.0102871
-0.00137841
-0.0102466
-0.00146604
-0.0101974
-0.00153959
-0.0101459
-0.0015975
-0.0100915
-0.0016381
-0.0100351
-0.00165947
-0.00997741
-0.00165949
-0.00991911
-0.00163589
-0.00986088
-0.00158653
-0.00980346
-0.00150959
-0.0097476
-0.00140403
-0.00969407
-0.00126986
-0.00964368
-0.00110846
-0.00959731
-0.000922353
-0.00955605
-0.000714919
-0.00952112
-0.000489527
-0.00949398
-0.000250133
-0.00947574
-0.00946737
-1.61997e-12
-0.000922966
-0.0102392
-0.000996385
-0.0102137
-0.00105849
-0.0101845
-0.0011067
-0.0101491
-0.00114073
-0.0101119
-0.00115983
-0.0100724
-0.0011637
-0.0100312
-0.00115226
-0.00998885
-0.00112569
-0.00994569
-0.00108435
-0.00990221
-0.00102878
-0.00985904
-0.00095951
-0.00981687
-0.000877016
-0.00977657
-0.000781678
-0.00973902
-0.000673879
-0.00970511
-0.000554315
-0.00967562
-0.000424329
-0.0096511
-0.0002864
-0.00963191
-0.000143712
-0.00961843
-0.00961108
-1.33204e-12
-0.000637838
-0.0101712
-0.000701274
-0.0101503
-0.0007579
-0.0101279
-0.000806419
-0.0101006
-0.000845851
-0.0100725
-0.000875272
-0.0100429
-0.000893729
-0.0100128
-0.000900271
-0.00998231
-0.000893966
-0.00995199
-0.000873991
-0.00992219
-0.000839757
-0.00989327
-0.000791044
-0.00986559
-0.000728129
-0.00983948
-0.000651845
-0.0098153
-0.000563537
-0.00979342
-0.000464857
-0.0097743
-0.000357548
-0.00975841
-0.000243169
-0.00974629
-0.000123338
-0.00973826
-0.00973442
-1.19125e-12
-0.000491067
-0.0101261
-0.000528806
-0.0101125
-0.000559822
-0.0100969
-0.000582559
-0.0100779
-0.000597134
-0.0100579
-0.000603333
-0.0100367
-0.000601272
-0.0100148
-0.000591196
-0.00999238
-0.000573479
-0.00996971
-0.000548572
-0.00994709
-0.000516944
-0.0099249
-0.000479013
-0.00990352
-0.000435114
-0.00988338
-0.000385509
-0.0098649
-0.000330469
-0.00984846
-0.000270434
-0.00983433
-0.000206151
-0.0098227
-0.000138776
-0.00981366
-6.96534e-05
-0.00980738
-0.00980407
-1.03173e-12
-0.00034568
-0.0100886
-0.00038091
-0.0100773
-0.000412351
-0.0100654
-0.000439232
-0.010051
-0.000460868
-0.0100363
-0.000476692
-0.0100209
-0.000486144
-0.0100054
-0.000488707
-0.00998982
-0.000483929
-0.00997449
-0.000471473
-0.00995955
-0.00045119
-0.00994518
-0.000423172
-0.00993154
-0.000387788
-0.00991876
-0.000345677
-0.00990701
-0.000297677
-0.00989646
-0.000244703
-0.0098873
-0.000187634
-0.00987977
-0.000127249
-0.00987405
-6.43585e-05
-0.00987027
-0.00986843
-9.61257e-13
-0.000253943
-0.0100651
-0.000273145
-0.0100581
-0.000288527
-0.0100501
-0.000299231
-0.0100403
-0.00030545
-0.01003
-0.00030718
-0.0100192
-0.000304609
-0.0100079
-0.000297991
-0.00999644
-0.00028763
-0.00998485
-0.000273851
-0.00997333
-0.000256951
-0.00996208
-0.000237171
-0.00995132
-0.000214682
-0.00994125
-0.000189605
-0.00993209
-0.00016207
-0.009924
-0.000132297
-0.00991708
-0.000100659
-0.0099114
-6.7691e-05
-0.00990702
-3.39788e-05
-0.00990398
-0.00990241
-7.9324e-13
-0.000186981
-0.0100446
-0.000206434
-0.0100386
-0.000223901
-0.0100326
-0.000238934
-0.0100253
-0.000251095
-0.0100179
-0.00026002
-0.0100103
-0.000265364
-0.0100026
-0.000266818
-0.00999499
-0.000264127
-0.00998754
-0.000257127
-0.00998033
-0.000245774
-0.00997343
-0.000230174
-0.00996692
-0.000210592
-0.00996084
-0.000187426
-0.00995526
-0.000161162
-0.00995026
-0.000132302
-0.00994594
-0.000101314
-0.00994239
-6.86183e-05
-0.00993971
-3.46608e-05
-0.00993794
-0.00993707
-8.18375e-13
-0.00012656
-0.0100324
-0.000136243
-0.0100289
-0.000143785
-0.010025
-0.00014875
-0.0100203
-0.0001513
-0.0100153
-0.000151509
-0.01001
-0.000149539
-0.0100046
-0.00014559
-0.00999894
-0.000139876
-0.00999325
-0.000132603
-0.0099876
-0.000123949
-0.00998209
-0.000114039
-0.00997683
-0.000102949
-0.00997193
-9.07206e-05
-0.00996749
-7.74001e-05
-0.00996358
-6.30828e-05
-0.00996025
-4.79416e-05
-0.00995753
-3.22192e-05
-0.00995543
-1.61719e-05
-0.00995399
-0.00995324
-7.62402e-13
-0.000100864
-0.0100211
-0.000111648
-0.0100182
-0.000121436
-0.0100153
-0.000129961
-0.0100118
-0.000136961
-0.0100083
-0.000142191
-0.0100048
-0.000145435
-0.0100013
-0.000146494
-0.00999788
-0.000145212
-0.00999453
-0.000141489
-0.00999132
-0.000135307
-0.00998827
-0.000126738
-0.0099854
-0.000115947
-0.00998272
-0.000103171
-0.00998026
-8.86876e-05
-0.00997806
-7.2779e-05
-0.00997616
-5.57048e-05
-0.00997461
-3.7705e-05
-0.00997343
-1.90341e-05
-0.00997266
-0.00997228
-7.54659e-13
-5.86827e-05
-0.0100149
-6.35046e-05
-0.0100133
-6.71232e-05
-0.0100116
-6.9344e-05
-0.0100096
-7.02821e-05
-0.0100074
-7.00331e-05
-0.0100051
-6.87215e-05
-0.0100026
-6.64912e-05
-0.0100001
-6.34878e-05
-0.00999754
-5.98425e-05
-0.00999497
-5.56576e-05
-0.00999246
-5.0997e-05
-0.00999006
-4.58884e-05
-0.00998783
-4.03366e-05
-0.00998581
-3.43467e-05
-0.00998405
-2.79495e-05
-0.00998256
-2.12153e-05
-0.00998134
-1.4246e-05
-0.0099804
-7.14774e-06
-0.00997976
-0.00997943
-6.6431e-13
-5.34126e-05
-0.0100087
-5.94152e-05
-0.0100073
-6.49449e-05
-0.0100061
-6.98317e-05
-0.0100047
-7.39366e-05
-0.0100033
-7.70862e-05
-0.0100019
-7.91499e-05
-0.0100006
-7.99941e-05
-0.00999926
-7.95168e-05
-0.00999802
-7.76535e-05
-0.00999683
-7.43906e-05
-0.00999572
-6.97706e-05
-0.00999468
-6.38902e-05
-0.00999371
-5.68875e-05
-0.00999282
-4.89223e-05
-0.00999202
-4.01548e-05
-0.00999133
-3.07338e-05
-0.00999076
-2.07986e-05
-0.00999034
-1.04967e-05
-0.00999006
-0.00998992
-6.44285e-13
-2.23751e-05
-0.0100057
-2.46593e-05
-0.0100051
-2.62513e-05
-0.0100045
-2.71159e-05
-0.0100038
-2.73135e-05
-0.0100031
-2.69552e-05
-0.0100023
-2.61221e-05
-0.0100014
-2.49244e-05
-0.0100005
-2.34595e-05
-0.00999948
-2.18117e-05
-0.00999848
-2.00409e-05
-0.00999749
-1.81786e-05
-0.00999654
-1.62296e-05
-0.00999566
-1.41821e-05
-0.00999486
-1.20219e-05
-0.00999418
-9.74718e-06
-0.0099936
-7.37571e-06
-0.00999313
-4.9402e-06
-0.00999277
-2.47443e-06
-0.00999252
-0.0099924
-5.34335e-13
-2.6187e-05
-0.0100023
-2.9386e-05
-0.0100019
-3.24095e-05
-0.0100015
-3.51214e-05
-0.0100011
-3.74855e-05
-0.0100007
-3.93592e-05
-0.0100004
-4.06809e-05
-0.0100001
-4.13512e-05
-0.00999979
-4.13079e-05
-0.00999952
-4.05053e-05
-0.00999928
-3.89315e-05
-0.00999906
-3.66079e-05
-0.00999886
-3.35885e-05
-0.00999867
-2.99507e-05
-0.0099985
-2.5784e-05
-0.00999835
-2.11777e-05
-0.00999821
-1.62151e-05
-0.0099981
-1.09747e-05
-0.00999801
-5.53868e-06
-0.00999796
-0.00999794
-3.61346e-13
-2.2849e-06
-0.0100013
-2.98582e-06
-0.0100012
-3.29861e-06
-0.0100012
-3.32423e-06
-0.0100011
-3.03404e-06
-0.010001
-2.58473e-06
-0.0100008
-1.99516e-06
-0.0100007
-1.37289e-06
-0.0100004
-7.71586e-07
-0.0100001
-2.52341e-07
-0.0099998
1.53362e-07
-0.00999947
4.31346e-07
-0.00999914
5.90726e-07
-0.00999883
6.52239e-07
-0.00999856
6.41733e-07
-0.00999833
5.79976e-07
-0.00999815
4.79071e-07
-0.009998
3.44242e-07
-0.00999788
1.80786e-07
-0.0099978
-0.00999775
-2.81578e-13
-9.80542e-06
-1.0962e-05
-1.21433e-05
-1.32183e-05
-1.42343e-05
-1.5082e-05
-1.5746e-05
-1.61576e-05
-1.62821e-05
-1.60846e-05
-1.55535e-05
-1.46931e-05
-1.35271e-05
-1.20908e-05
-1.04257e-05
-8.5726e-06
-6.56869e-06
-4.44798e-06
-2.24541e-06
-1.10922e-13
0.00554127
-0.00677233
0.0055094
-0.00677532
0.00546798
-0.006778
0.00541486
-0.00677739
0.00534757
-0.00677151
0.00526335
-0.00675845
0.00515913
-0.00673609
0.0050314
-0.00670192
0.00487604
-0.00665273
0.00468819
-0.0065842
0.00446217
-0.00649071
0.00419161
-0.00636534
0.00386994
-0.00620048
0.00349107
-0.00598867
0.00305035
-0.00572387
0.00254561
-0.00540406
0.00197839
-0.0050379
0.00135534
-0.004657
0.000689434
-0.00432572
-0.0041286
1.6876e-11
0.00554962
-0.00673768
0.00550984
-0.00673554
0.00546195
-0.00673011
0.0054035
-0.00671894
0.00533175
-0.00669977
0.0052436
-0.0066703
0.00513563
-0.00662812
0.00500398
-0.00657026
0.00484405
-0.0064928
0.00465038
-0.00639053
0.00441671
-0.00625703
0.00413647
-0.00608511
0.00380365
-0.00586766
0.00341377
-0.00559878
0.00296481
-0.00527492
0.00245795
-0.0048972
0.00189786
-0.0044778
0.00129288
-0.00405203
0.000655138
-0.00368797
-0.00347346
5.34518e-11
0.00556546
-0.00670057
0.0055235
-0.00669359
0.00547291
-0.00667951
0.00541054
-0.00665657
0.00533299
-0.00662222
0.0052368
-0.00657411
0.00511839
-0.00650971
0.00497378
-0.00642566
0.00479837
-0.00631739
0.00458689
-0.00617905
0.00433379
-0.00600393
0.00403396
-0.00578528
0.00368363
-0.00551732
0.00328111
-0.00519627
0.00282743
-0.00482123
0.00232634
-0.00439611
0.00178407
-0.00393554
0.00120884
-0.0034768
0.000610432
-0.00308956
-0.00286303
6.31253e-11
0.00560213
-0.00667126
0.00556954
-0.006661
0.00553062
-0.00664058
0.00548196
-0.00660792
0.00542039
-0.00656065
0.00534259
-0.00649631
0.00524471
-0.00641182
0.00512197
-0.00630292
0.00496844
-0.00616386