/*--------------------------------*- C++ -*----------------------------------*\
  =========                 |
  \\      /  F ield         | OpenFOAM: The Open Source CFD Toolbox
   \\    /   O peration     | Website:  https://openfoam.org
    \\  /    A nd           | Version:  7
     \\/     M anipulation  |
\*---------------------------------------------------------------------------*/
FoamFile
{
    version     2.0;
    format      ascii;
    class       surfaceScalarField;
    location    "5";
    object      phi;
}
// * * * * * * * * * * * * * * * * * * * * * * * * * * * * * * * * * * * * * //

dimensions      [0 3 -1 0 0 0 0];

internalField   nonuniform List<scalar> 
403
(
-7.23568e-05
0.01795
-0.0178773
-0.000142032
0.0182919
-0.0182222
-0.000213622
0.0184869
-0.0184153
-0.000280574
0.0188897
-0.0188227
0.0190399
-0.0189714
-7.17572e-05
0.0180227
-0.000141262
0.0183614
-0.000212601
0.0185583
-0.000279042
0.0189561
0.0191077
-7.11536e-05
0.0180952
-0.00014051
0.0184307
-0.000211572
0.0186293
-0.00027754
0.0190221
0.0191747
-7.05556e-05
0.0181678
-0.000139764
0.0184999
-0.000210546
0.0187001
-0.000276038
0.0190876
0.0192409
-6.99644e-05
0.0182403
-0.000139023
0.018569
-0.000209521
0.0187706
-0.000274529
0.0191526
0.0193062
-6.9383e-05
0.0183127
-0.000138291
0.0186379
-0.000208502
0.0188408
-0.000273022
0.0192171
0.0193708
-6.8819e-05
0.0183851
-0.000137577
0.0187067
-0.0002075
0.0189107
-0.000271529
0.0192811
0.0194346
-6.82906e-05
0.0184574
-0.000136902
0.0187753
-0.00020654
0.0189804
-0.000270085
0.0193447
0.0194975
-6.78438e-05
0.0185297
-0.000136323
0.0188437
-0.000205695
0.0190498
-0.00026879
0.0194078
0.0195596
-6.75328e-05
0.0186018
-0.000136082
0.0189123
-0.000205083
0.0191188
-0.000268118
0.0194708
0.0196208
-6.24777e-05
0.0173837
-0.0173287
-0.000114888
0.0177588
-0.0177064
-0.000169327
0.017938
-0.0178836
-0.000220421
0.0183868
-0.0183357
0.0185248
-0.0184715
-6.16413e-05
0.0174386
-0.000113849
0.017811
-0.000168035
0.0179922
-0.000218575
0.0184374
0.0185774
-6.08004e-05
0.0174936
-0.000112829
0.0178631
-0.000166735
0.0180461
-0.000216758
0.0184874
0.0186293
-5.99647e-05
0.0175485
-0.000111814
0.0179149
-0.000165436
0.0180997
-0.000214939
0.0185369
0.0186805
-5.91338e-05
0.0176033
-0.000110803
0.0179666
-0.000164138
0.0181531
-0.000213117
0.0185859
0.0187309
-5.83086e-05
0.0176582
-0.000109796
0.0180181
-0.000162841
0.0182061
-0.00021129
0.0186343
0.0187806
-5.7489e-05
0.017713
-0.000108795
0.0180694
-0.000161546
0.0182589
-0.000209461
0.0186822
0.0188295
-5.66752e-05
0.0177678
-0.0001078
0.0181205
-0.000160253
0.0183113
-0.000207631
0.0187296
0.0188776
-5.58676e-05
0.0178225
-0.00010681
0.0181714
-0.000158962
0.0183635
-0.000205799
0.0187764
0.0189249
-5.507e-05
-0.000105822
-0.000157676
-0.000203959
-5.32055e-05
0.0170127
-0.0169775
-8.67774e-05
0.0174138
-0.0173803
-0.000122215
0.0175774
-0.0175419
-0.000156203
0.018055
-0.018021
-0.000191946
0.0181797
-0.018144
0.0189299
-0.0188977
-5.21782e-05
0.017048
-8.55273e-05
0.0174472
-0.000120699
0.0176125
-0.000154119
0.0180884
-0.000189238
0.0182148
0.0189609
-5.11478e-05
0.0170832
-8.42868e-05
0.0174803
-0.000119178
0.0176474
-0.000152048
0.0181213
-0.000186516
0.0182493
0.0189905
-5.01199e-05
0.0171184
-8.30489e-05
0.0175132
-0.000117657
0.017682
-0.000149975
0.0181536
-0.000183784
0.0182831
0.0190187
-4.90947e-05
0.0171535
-8.18134e-05
0.017546
-0.000116135
0.0177163
-0.000147897
0.0181854
-0.000181035
0.0183163
0.0190457
-4.80726e-05
0.0171886
-8.05814e-05
0.0175785
-0.000114615
0.0177504
-0.000145817
0.0182166
-0.000178273
0.0183487
0.0190713
-4.70545e-05
0.0172237
-7.93529e-05
0.0176108
-0.000113096
0.0177841
-0.000143735
0.0182472
-0.000175498
0.0183805
0.0190955
-4.60402e-05
0.0172587
-7.81291e-05
0.0176429
-0.00011158
0.0178176
-0.000141652
0.0182773
-0.000172714
0.0184115
0.0191183
-4.50303e-05
0.0172937
-7.69101e-05
0.0176747
-0.000110065
0.0178507
-0.00013957
0.0183068
-0.00016992
0.0184419
0.0191398
-4.40279e-05
-7.56934e-05
-0.000108557
-0.000137484
-0.000167117
-4.37907e-05
0.0168498
-5.75681e-05
0.0172669
-7.29529e-05
0.0174165
-8.88065e-05
0.0179036
-0.000105426
0.0180218
0.0187899
-4.26725e-05
0.0168642
-5.62125e-05
0.0172805
-7.13078e-05
0.0174316
-8.66131e-05
0.0179189
-0.000102637
0.0180378
0.0188073
-4.15525e-05
0.0168785
-5.4855e-05
0.0172938
-6.96608e-05
0.0174464
-8.44126e-05
0.0179337
-9.9838e-05
0.0180532
0.0188235
-4.04305e-05
0.0168928
-5.34954e-05
0.0173068
-6.8012e-05
0.0174609
-8.22045e-05
0.0179479
-9.70266e-05
0.018068
0.0188382
-3.93074e-05
0.016907
-5.21348e-05
0.0173197
-6.63613e-05
0.0174752
-7.9989e-05
0.0179615
-9.42017e-05
0.0180823
0.0188516
-3.81833e-05
0.0169212
-5.07737e-05
0.0173323
-6.47096e-05
0.0174891
-7.7768e-05
0.0179745
-9.13653e-05
0.0180958
0.0188636
-3.70589e-05
0.0169353
-4.94129e-05
0.0173446
-6.30577e-05
0.0175027
-7.55429e-05
0.017987
-8.85193e-05
0.0181088
0.0188742
-3.59347e-05
0.0169494
-4.80531e-05
0.0173567
-6.14063e-05
0.0175161
-7.33149e-05
0.0179989
-8.56657e-05
0.0181212
0.0188834
-3.4811e-05
0.0169635
-4.66948e-05
0.0173686
-5.97564e-05
0.0175291
-7.10858e-05
0.0180103
-8.28057e-05
0.0181329
0.0188912
-3.36901e-05
-4.5338e-05
-5.81107e-05
-6.88558e-05
-7.9942e-05
-0.0024063
-0.00222574
-0.00195227
-0.00132285
)
;

boundaryField
{
    inlet
    {
        type            calculated;
        value           nonuniform 0();
    }
    outlet
    {
        type            calculated;
        value           nonuniform 0();
    }
    polygon
    {
        type            calculated;
        value           nonuniform 0();
    }
    top
    {
        type            symmetryPlane;
        value           uniform 0;
    }
    bottom
    {
        type            symmetryPlane;
        value           uniform 0;
    }
    outside
    {
        type            calculated;
        value           nonuniform List<scalar> 
41
(
-3.5299e-07
-8.88887e-07
-1.43287e-06
-1.9766e-06
-2.51601e-06
-3.0469e-06
-3.56134e-06
-4.04105e-06
-4.44135e-06
-4.61377e-06
7.48873e-06
6.67252e-06
5.86616e-06
5.0642e-06
4.26652e-06
3.47275e-06
2.68213e-06
1.89297e-06
1.10074e-06
2.82884e-07
1.79134e-05
1.69182e-05
1.59288e-05
1.49412e-05
1.39558e-05
1.29729e-05
1.19929e-05
1.10161e-05
1.00431e-05
9.07294e-06
2.93344e-05
2.82752e-05
2.72122e-05
2.61457e-05
2.50762e-05
2.4004e-05
2.29298e-05
2.1854e-05
2.07773e-05
1.96996e-05
0.00228912
)
;
    }
    procBoundary14to10
    {
        type            processor;
        value           nonuniform List<scalar> 
42
(
-0.000349088
-0.000346813
-0.000344532
-0.000342239
-0.000339924
-0.000337595
-0.000335272
-0.000332999
-0.000330914
-0.000329356
-0.000273723
0.01916
-0.000271196
-0.000268654
-0.000266103
-0.000263533
-0.000260947
-0.000258346
-0.000255733
-0.000253105
-0.000250463
-0.000224233
-0.000220165
-0.000216118
-0.000212057
-0.000207968
-0.000203855
-0.000199723
-0.000195574
-0.000191411
-0.000187234
-0.000124192
-0.000120081
-0.000115945
-0.000111779
-0.000107587
-0.00010337
-9.91343e-05
-9.48836e-05
-9.0621e-05
-8.63523e-05
-0.000586932
)
;
    }
    procBoundary14to13
    {
        type            processor;
        value           nonuniform List<scalar> 6(-0.0168353 -0.0172532 -0.0174011 -0.0178878 -0.0180051 -0.0187711);
    }
    procBoundary14to15
    {
        type            processor;
        value           nonuniform List<scalar> 5(0.018719 0.0187317 0.0188453 0.0188414 0.0188849);
    }
}


// ************************************************************************* //
