/*--------------------------------*- C++ -*----------------------------------*\
  =========                 |
  \\      /  F ield         | OpenFOAM: The Open Source CFD Toolbox
   \\    /   O peration     | Website:  https://openfoam.org
    \\  /    A nd           | Version:  7
     \\/     M anipulation  |
\*---------------------------------------------------------------------------*/
FoamFile
{
    version     2.0;
    format      ascii;
    class       surfaceScalarField;
    location    "76";
    object      phi;
}
// * * * * * * * * * * * * * * * * * * * * * * * * * * * * * * * * * * * * * //

dimensions      [0 3 -1 0 0 0 0];

internalField   nonuniform List<scalar> 
224
(
0.000425423
-9.85429e-05
0.000116903
0.000405604
-0.000113197
0.000133015
0.000384199
-0.00013037
0.000151775
0.000361069
-0.000150671
0.000173801
0.00033609
-0.0001748
0.000199778
0.000309157
-0.000203797
0.000230731
0.00028022
-0.000238874
0.000267811
0.000249313
-0.000281994
0.000312901
0.000216798
-0.000335028
0.000367543
0.00018291
-0.000401757
0.000435644
0.00015004
-0.00048527
0.00051814
0.000117911
-0.000585681
0.000617811
9.50676e-05
-0.000718138
0.000740981
7.35948e-05
-0.00081237
0.000833843
5.05097e-05
-0.000956945
0.00098003
-0.000558966
0.000609476
0.000501369
-8.23307e-05
0.000483637
-9.54657e-05
0.000464211
-0.000110944
0.000442889
0.000419457
0.000393678
0.000365327
0.000334159
0.000300158
0.000263023
0.000224012
0.000182334
0.000142427
9.97801e-05
4.10327e-05
0.00056722
0.000551291
-0.00790951
-0.00142702
-0.00842624
-0.00160202
-0.00895221
-0.00181154
-0.0094869
-0.00204862
-0.00239681
-0.0025415
-0.000409251
-0.00270822
-0.000435926
-0.00288381
-0.000464888
-0.0030694
-0.000496401
-0.00326646
-0.00053076
-0.00347694
-0.000568308
-0.00370353
-0.000609405
-0.00394987
-0.000654473
-0.00422099
-0.000704025
-0.00452372
-0.000758639
-0.00486706
-0.000819176
-0.00526247
-0.000887147
-0.00572321
-0.000966282
-0.00626428
-0.00106094
-0.00688146
-0.00119437
-0.00761488
-0.0013152
-0.00163573
-0.00142796
-0.000292971
-0.00154909
-0.000314795
-0.00167531
-0.00033867
-0.00180689
-0.000364818
-0.0019442
-0.000393451
-0.00208769
-0.000424814
-0.00223804
-0.000459053
-0.00239628
-0.000496236
-0.00256403
-0.000536273
-0.00274408
-0.000578592
-0.00294115
-0.00062211
-0.00316418
-0.00066411
-0.00342645
-0.000704017
-0.00376401
-0.000723387
-0.00419777
-0.000760601
-0.00482048
-0.000692489
-0.000780622
-0.000521867
-0.000208751
-0.000609175
-0.000227486
-0.00069949
-0.000248355
-0.000792651
-0.000271657
-0.000888413
-0.00029769
-0.000986336
-0.000326891
-0.00108579
-0.000359596
-0.00118589
-0.000396142
-0.00128531
-0.00043685
-0.0013824
-0.000481501
-0.00147461
-0.000529894
-0.00156066
-0.000578062
-0.00163575
-0.000628927
-0.00170836
-0.00065078
-0.00179577
-0.000673195
-0.00191763
-0.000570628
-0.000358539
0.000197386
-0.000147671
0.000133875
-0.000163975
6.80329e-05
-0.000182513
4.38095e-08
-0.000203667
-6.96699e-05
-0.000227976
-0.000140616
-0.000255946
-0.00021187
-0.000288342
-0.000282058
-0.000325954
-0.000348988
-0.000369921
-0.000409539
-0.00042095
-0.000458296
-0.000481137
-0.000488145
-0.000548214
-0.000489997
-0.000627075
-0.000436731
-0.000704046
-0.000349964
-0.000759961
-8.83703e-05
-0.000832221
-0.00045989
0.000755446
0.000708374
0.000658877
0.000606984
0.00055281
0.000496643
0.000439031
0.000380889
0.000323868
0.000270461
0.000224968
0.000194895
0.00018563
0.000222566
0.000296448
0.000444256
)
;

boundaryField
{
    inlet
    {
        type            calculated;
        value           nonuniform 0();
    }
    outlet
    {
        type            calculated;
        value           nonuniform 0();
    }
    polygon
    {
        type            calculated;
        value           uniform 0;
    }
    top
    {
        type            symmetryPlane;
        value           uniform 0;
    }
    bottom
    {
        type            symmetryPlane;
        value           uniform 0;
    }
    outside
    {
        type            calculated;
        value           nonuniform 0();
    }
    procBoundary42to33
    {
        type            processor;
        value           nonuniform List<scalar> 4(-0.00567559 -0.00233971 1.29808e-05 0.000593841);
    }
    procBoundary42to34
    {
        type            processor;
        value           nonuniform List<scalar> 
17
(
-0.000129349
-0.000151368
-0.000178019
-0.000210523
-0.000250826
-0.000301026
-0.000364622
-0.000446258
-0.000544004
-0.000678231
-0.000769723
-0.000898197
-0.000517933
-6.7976e-05
-7.95374e-05
0.000533573
-9.32256e-05
)
;
    }
    procBoundary42to35
    {
        type            processor;
        value           uniform -0.000581574;
    }
    procBoundary42to41
    {
        type            processor;
        value           nonuniform List<scalar> 2(-0.00996011 -0.00837596);
    }
    procBoundary42to43
    {
        type            processor;
        value           nonuniform List<scalar> 8(-0.000443783 -0.000102994 -0.000517581 0.00238278 0.00131168 0.000437646 -0.000258466 -0.000800123);
    }
    procBoundary42to50
    {
        type            processor;
        value           nonuniform List<scalar> 
18
(
0.00192159
0.00211875
0.00233751
0.0025833
0.00287002
0.000567974
0.000602646
0.000640479
0.000681987
0.000727816
0.000778797
0.000835991
0.000900816
0.000975142
0.00106136
0.00116252
0.00741494
0.00128256
)
;
    }
}


// ************************************************************************* //
