/*--------------------------------*- C++ -*----------------------------------*\
  =========                 |
  \\      /  F ield         | OpenFOAM: The Open Source CFD Toolbox
   \\    /   O peration     | Website:  https://openfoam.org
    \\  /    A nd           | Version:  7
     \\/     M anipulation  |
\*---------------------------------------------------------------------------*/
FoamFile
{
    version     2.0;
    format      ascii;
    class       surfaceScalarField;
    location    "72";
    object      phi;
}
// * * * * * * * * * * * * * * * * * * * * * * * * * * * * * * * * * * * * * //

dimensions      [0 3 -1 0 0 0 0];

internalField   nonuniform List<scalar> 
14496
(
0.00160496
1.16158e-07
-2.58844e-07
0.0016057
6.70485e-07
-1.40666e-06
0.0016073
1.48755e-06
-3.08735e-06
0.00160972
2.27965e-06
-4.7009e-06
0.00161276
2.89151e-06
-5.93834e-06
0.00161618
3.25325e-06
-6.66439e-06
0.00161967
3.33768e-06
-6.82908e-06
0.00162296
3.14965e-06
-6.44565e-06
0.00162581
2.712e-06
-5.56218e-06
0.001628
2.05535e-06
-4.24154e-06
0.00162934
1.21627e-06
-2.5572e-06
0.00162969
2.3051e-07
-5.78985e-07
0.00162892
-8.84703e-07
1.65093e-06
0.00162694
-2.09691e-06
4.07624e-06
0.00162369
-3.36813e-06
6.61771e-06
0.00161914
-4.67659e-06
9.23233e-06
0.00161326
-6.00168e-06
1.18791e-05
0.00160606
-7.32444e-06
1.45203e-05
0.00159757
-8.62787e-06
1.71222e-05
0.00158781
-9.89655e-06
1.96541e-05
0.00157684
-1.11165e-05
2.20882e-05
0.00156472
-1.22748e-05
2.43989e-05
0.00155151
-1.33597e-05
2.65628e-05
0.00153732
-1.43603e-05
2.85581e-05
0.00152222
-1.52669e-05
3.03656e-05
0.00150632
-1.60728e-05
3.19721e-05
0.00148973
-1.67709e-05
3.33631e-05
0.00147255
-1.73546e-05
3.45258e-05
0.00145492
-1.78195e-05
3.54511e-05
0.00143695
-1.81625e-05
3.61333e-05
0.00141876
-1.83826e-05
3.65703e-05
0.00140048
-1.84803e-05
3.67633e-05
0.00138222
-1.84578e-05
3.67168e-05
0.0013641
-1.8319e-05
3.64385e-05
0.00134623
-1.80691e-05
3.59391e-05
0.00132872
-1.77148e-05
3.5232e-05
0.00131165
-1.7264e-05
3.43331e-05
0.00129511
-1.67257e-05
3.32604e-05
0.00127919
-1.61098e-05
3.20339e-05
0.00126394
-1.54273e-05
3.06755e-05
0.00124942
-1.46894e-05
2.92075e-05
0.00123568
-1.39047e-05
2.76469e-05
0.00122275
-1.30841e-05
2.60161e-05
0.00121065
-1.22388e-05
2.43372e-05
0.0011994
-1.1379e-05
2.26305e-05
0.001189
-1.05143e-05
2.09151e-05
0.00117944
-9.65336e-06
1.9208e-05
0.00117072
-8.80379e-06
1.75245e-05
0.00116282
-7.97232e-06
1.58781e-05
0.0011557
-7.16462e-06
1.42798e-05
0.00114935
-6.3854e-06
1.27391e-05
0.00114372
-5.63851e-06
1.12636e-05
0.00113879
-4.92696e-06
9.85915e-06
0.00113451
-4.25306e-06
8.53043e-06
0.00113085
-3.61863e-06
7.281e-06
0.00112776
-3.02516e-06
6.11376e-06
0.0011252
-2.47388e-06
5.03115e-06
0.00112313
-1.96593e-06
4.03536e-06
0.00112151
-1.50236e-06
3.12839e-06
0.00112028
-1.08414e-06
2.31213e-06
0.0011194
-7.12154e-07
1.58822e-06
0.00111883
-3.86698e-07
9.57681e-07
0.00111852
-1.05455e-07
4.20245e-07
0.00111843
1.21501e-07
-3.15336e-08
0.00111848
3.05337e-07
-3.57535e-07
0.00111865
4.31927e-07
-6.05112e-07
0.00111889
5.13535e-07
-7.53115e-07
0.00111915
5.47905e-07
-8.04683e-07
0.00111938
5.34355e-07
-7.5981e-07
0.00111952
4.73702e-07
-6.16598e-07
0.00111953
3.60686e-07
-3.76553e-07
0.00111939
1.91144e-07
-4.57199e-08
0.00111898
-2.26619e-08
4.28527e-07
0.00111829
-3.13132e-07
1.00671e-06
0.00111724
-6.60117e-07
1.71435e-06
0.00111575
-1.07996e-06
2.56681e-06
0.00111375
-1.582e-06
3.58315e-06
0.00111114
-2.1781e-06
4.787e-06
0.00110781
-2.88302e-06
6.20772e-06
0.00110365
-3.71484e-06
7.8812e-06
0.00109849
-4.69596e-06
9.85184e-06
0.00109217
-5.85412e-06
1.21746e-05
0.00108448
-7.22386e-06
1.49176e-05
0.00107516
-8.84854e-06
1.81667e-05
0.00106391
-1.0783e-05
2.20299e-05
0.00105036
-1.30974e-05
2.66457e-05
0.00103405
-1.58827e-05
3.21928e-05
0.00101441
-1.92574e-05
3.89048e-05
0.000990693
-2.33819e-05
4.70954e-05
0.000961988
-2.84571e-05
5.71617e-05
0.000927062
-3.4811e-05
6.97376e-05
0.000884443
-4.26788e-05
8.52977e-05
0.000831732
-5.30714e-05
0.000105782
0.000767084
-6.53874e-05
0.000130035
0.000684297
-8.41359e-05
0.000166923
0.000584912
-0.000101592
0.000200976
0.000451384
-0.000136599
0.000270127
0.000304604
-0.000152017
0.000298796
0.000127765
-0.00017997
0.000356809
-0.000131181
0.000258946
0.00162053
-1.57743e-11
0.0016212
-2.8786e-10
0.00162269
-7.90401e-10
0.00162497
-1.46729e-09
0.00162786
-2.23243e-09
0.00163112
-2.98827e-09
0.00163446
-3.64311e-09
0.00163762
-4.12112e-09
0.00164033
-4.36732e-09
0.00164239
-4.35375e-09
0.00164361
-4.06355e-09
0.00164385
-3.51682e-09
0.00164296
-2.84479e-09
0.00164087
-1.90575e-09
0.0016375
-8.3589e-10
0.00163283
3.12199e-10
0.00162682
1.48818e-09
0.00161949
2.64405e-09
0.00161086
3.73559e-09
0.00160096
4.72638e-09
0.00158984
5.58727e-09
0.00157756
6.29698e-09
0.00156419
6.84047e-09
0.00154982
7.20903e-09
0.00153455
7.40067e-09
0.00151847
7.416e-09
0.00150169
7.258e-09
0.00148433
6.93428e-09
0.0014665
6.4549e-09
0.00144834
5.83203e-09
0.00142995
5.08041e-09
0.00141146
4.21654e-09
0.001393
3.25963e-09
0.00137468
2.23101e-09
0.00135661
1.15419e-09
0.0013389
5.34623e-11
0.00132163
-1.03999e-09
0.00130491
-2.10084e-09
0.0012888
-3.0995e-09
0.00127338
-4.00758e-09
0.0012587
-4.79968e-09
0.0012448
-5.45186e-09
0.00123172
-5.94162e-09
0.00121949
-6.2522e-09
0.00120811
-6.37115e-09
0.00119761
-6.29074e-09
0.00118796
-6.0089e-09
0.00117916
-5.52855e-09
0.00117119
-4.85775e-09
0.00116403
-4.0094e-09
0.00115765
-3.00068e-09
0.00115201
-1.8532e-09
0.00114709
-5.9121e-10
0.00114283
7.54145e-10
0.00113921
2.15096e-09
0.00113618
3.57009e-09
0.0011337
4.97582e-09
0.00113173
6.33224e-09
0.00113022
7.60529e-09
0.00112913
8.77021e-09
0.00112841
9.79713e-09
0.00112801
1.07199e-08
0.00112789
1.12757e-08
0.001128
1.09286e-08
0.0011283
1.17726e-08
0.00112872
1.12929e-08
0.00112922
1.07927e-08
0.00112976
1.00717e-08
0.00113028
9.11038e-09
0.00113075
7.86341e-09
0.0011311
6.68348e-09
0.00113129
5.17328e-09
0.00113126
4.00246e-09
0.00113095
2.46536e-09
0.00113029
7.50827e-10
0.00112921
-9.01367e-10
0.00112763
-2.46904e-09
0.00112545
-3.90373e-09
0.00112258
-5.13809e-09
0.00111887
-6.13665e-09
0.00111418
-6.87288e-09
0.00110833
-7.33544e-09
0.00110111
-7.52645e-09
0.00109227
-7.45888e-09
0.0010815
-7.15428e-09
0.00106841
-6.64142e-09
0.00105253
-5.9548e-09
0.00103328
-5.13462e-09
0.0010099
-4.22305e-09
0.000981446
-3.27018e-09
0.000946638
-2.31245e-09
0.00090396
-1.41639e-09
0.000850889
-5.71047e-10
0.000785502
1.17171e-10
0.000701365
7.14414e-10
0.000599773
1.13641e-09
0.000463173
1.45321e-09
0.000311154
1.66999e-09
0.000131183
1.71773e-09
1.32959e-09
0.00147164
4.53822e-07
-7.48057e-07
0.0014727
2.25119e-06
-3.3156e-06
0.00147481
4.85265e-06
-6.96625e-06
0.00147784
7.31076e-06
-1.03385e-05
0.00148152
9.17187e-06
-1.28461e-05
0.00148553
1.02478e-05
-1.42654e-05
0.00148959
1.0476e-05
-1.45355e-05
0.00149342
9.88488e-06
-1.37099e-05
0.00149677
8.55149e-06
-1.19009e-05
0.00149944
6.57255e-06
-9.24256e-06
0.00150126
4.05762e-06
-5.88113e-06
0.0015021
1.11342e-06
-1.95616e-06
0.00150187
-2.19469e-06
2.42932e-06
0.00150046
-5.7934e-06
7.19872e-06
0.00149784
-9.55732e-06
1.2179e-05
0.00149398
-1.34263e-05
1.72924e-05
0.00148886
-1.73398e-05
2.246e-05
0.00148249
-2.12428e-05
2.76099e-05
0.0014749
-2.50857e-05
3.26774e-05
0.00146612
-2.88234e-05
3.76038e-05
0.0014562
-3.24152e-05
4.23359e-05
0.00144519
-3.58235e-05
4.68245e-05
0.00143318
-3.90138e-05
5.10243e-05
0.00142024
-4.19542e-05
5.48936e-05
0.00140646
-4.46168e-05
5.83963e-05
0.00139194
-4.69815e-05
6.15055e-05
0.00137678
-4.90271e-05
6.4193e-05
0.00136108
-5.0735e-05
6.64347e-05
0.00134495
-5.20919e-05
6.82137e-05
0.00132852
-5.30898e-05
6.95196e-05
0.0013119
-5.37257e-05
7.03488e-05
0.0012952
-5.40016e-05
7.07045e-05
0.00127853
-5.39246e-05
7.05964e-05
0.00126199
-5.35064e-05
7.00403e-05
0.0012457
-5.27631e-05
6.9058e-05
0.00122974
-5.17147e-05
6.76767e-05
0.00121419
-5.03851e-05
6.59279e-05
0.00119915
-4.88013e-05
6.38475e-05
0.00118466
-4.69928e-05
6.14752e-05
0.0011708
-4.4992e-05
5.88537e-05
0.00115761
-4.28319e-05
5.60261e-05
0.00114512
-4.05387e-05
5.30276e-05
0.00113336
-3.8145e-05
4.9902e-05
0.00112235
-3.56833e-05
4.66914e-05
0.0011121
-3.31834e-05
4.3435e-05
0.00110261
-3.06732e-05
4.0169e-05
0.00109386
-2.8178e-05
3.69267e-05
0.00108584
-2.57201e-05
3.37372e-05
0.00107853
-2.3319e-05
3.06259e-05
0.00107191
-2.09911e-05
2.76142e-05
0.00106594
-1.875e-05
2.47197e-05
0.00106059
-1.66068e-05
2.1957e-05
0.00105582
-1.45702e-05
1.93373e-05
0.0010516
-1.26468e-05
1.68693e-05
0.00104788
-1.0842e-05
1.45598e-05
0.00104463
-9.15983e-06
1.24144e-05
0.0010418
-7.60394e-06
1.04375e-05
0.00103934
-6.17745e-06
8.63325e-06
0.00103722
-4.88321e-06
7.00514e-06
0.00103539
-3.72383e-06
5.55638e-06
0.0010338
-2.70156e-06
4.2896e-06
0.00103241
-1.81796e-06
3.20667e-06
0.00103117
-1.07379e-06
2.30831e-06
0.00103005
-4.7329e-07
1.59452e-06
0.00102897
6.51977e-09
1.07722e-06
0.00102793
2.98101e-07
7.42227e-07
0.00102686
4.69947e-07
5.94287e-07
0.00102573
5.00234e-07
6.34645e-07
0.00102448
3.89912e-07
8.62787e-07
0.00102305
1.46905e-07
1.28059e-06
0.00102142
-2.56584e-07
1.8907e-06
0.00101954
-8.23787e-07
2.70141e-06
0.00101735
-1.54479e-06
3.73595e-06
0.00101479
-2.44512e-06
5.00195e-06
0.00101181
-3.53737e-06
6.52158e-06
0.00100832
-4.84429e-06
8.32519e-06
0.00100427
-6.39444e-06
1.04499e-05
0.00099955
-8.22271e-06
1.29414e-05
0.000994066
-1.03726e-05
1.58566e-05
0.000987699
-1.28971e-05
1.92645e-05
0.00098031
-1.58616e-05
2.32503e-05
0.000971738
-1.9347e-05
2.79191e-05
0.000961791
-2.34537e-05
3.34009e-05
0.00095024
-2.83077e-05
3.98587e-05
0.00093681
-3.40675e-05
4.74971e-05
0.000921169
-4.09363e-05
5.65779e-05
0.000902908
-4.91755e-05
6.74361e-05
0.000881524
-5.91276e-05
8.05113e-05
0.000856391
-7.12478e-05
9.63811e-05
0.000826711
-8.61238e-05
0.000115804
0.00079149
-0.000104647
0.000139868
0.000749442
-0.000127601
0.000169649
0.000698821
-0.000157592
0.000208213
0.000637799
-0.000193389
0.000254412
0.000562248
-0.000246822
0.000322374
0.000473247
-0.000296646
0.000385646
0.000357312
-0.000396317
0.000512252
0.000237581
-0.00043318
0.000552912
8.48582e-05
-0.000517932
0.000670655
-0.00035228
0.000437138
0.00151398
0.00151483
0.00151659
0.0015192
0.00152244
0.00152602
0.00152967
0.00153311
0.00153609
0.00153843
0.00153993
0.00154046
0.00153992
0.0015382
0.00153526
0.00153107
0.00152561
0.00151888
0.00151092
0.00150175
0.00149142
0.00148
0.00146755
0.00145415
0.0014399
0.00142489
0.00140923
0.00139302
0.00137638
0.00135942
0.00134227
0.00132503
0.00130782
0.00129075
0.00127393
0.00125744
0.00124139
0.00122585
0.00121089
0.00119658
0.00118295
0.00117006
0.00115793
0.00114658
0.00113603
0.00112627
0.0011173
0.00110911
0.00110167
0.00109496
0.00108894
0.0010836
0.00107889
0.00107477
0.00107121
0.00106817
0.00106559
0.00106345
0.0010617
0.00106029
0.00105917
0.00105831
0.00105766
0.00105715
0.0010568
0.0010565
0.00105621
0.00105591
0.00105554
0.00105507
0.00105444
0.00105357
0.00105245
0.00105101
0.00104919
0.00104691
0.0010441
0.00104066
0.0010365
0.00103148
0.00102547
0.0010183
0.00100976
0.000999624
0.000987586
0.000973296
0.000956313
0.00093609
0.000911938
0.000882976
0.000848067
0.000805763
0.000753954
0.000690599
0.0006107
0.00051503
0.000388841
0.000254457
9.33336e-05
0.00124926
1.16693e-06
-1.80241e-06
0.00125097
4.6057e-06
-6.31351e-06
0.00125396
9.37528e-06
-1.23657e-05
0.00125793
1.36669e-05
-1.76422e-05
0.00126252
1.67852e-05
-2.13683e-05
0.00126736
1.85003e-05
-2.3343e-05
0.00127216
1.87713e-05
-2.3568e-05
0.00127665
1.76869e-05
-2.21785e-05
0.00128062
1.53981e-05
-1.93708e-05
0.0012839
1.20771e-05
-1.53575e-05
0.00128635
7.90394e-06
-1.03527e-05
0.00128786
3.05416e-06
-4.56168e-06
0.00128836
-2.33451e-06
1.83537e-06
0.00128777
-8.19674e-06
8.77866e-06
0.00128608
-1.42997e-05
1.59955e-05
0.00128325
-2.0558e-05
2.33846e-05
0.00127929
-2.68756e-05
3.08348e-05
0.00127421
-3.31659e-05
3.82457e-05
0.00126804
-3.93508e-05
4.55268e-05
0.0012608
-4.53594e-05
5.25958e-05
0.00125255
-5.11275e-05
5.93777e-05
0.00124334
-5.65955e-05
6.58035e-05
0.00123324
-6.17086e-05
7.1809e-05
0.00122232
-6.64163e-05
7.73346e-05
0.00121067
-7.06752e-05
8.23321e-05
0.00119836
-7.44517e-05
8.67591e-05
0.0011855
-7.77116e-05
9.05764e-05
0.00117217
-8.04265e-05
9.37512e-05
0.00115849
-8.25759e-05
9.62604e-05
0.00114454
-8.41479e-05
9.80905e-05
0.00113044
-8.51388e-05
9.92379e-05
0.00111629
-8.55532e-05
9.9709e-05
0.00110217
-8.54036e-05
9.95196e-05
0.00108819
-8.47104e-05
9.86948e-05
0.00107442
-8.35009e-05
9.72676e-05
0.00106095
-8.18089e-05
9.52789e-05
0.00104785
-7.96739e-05
9.27762e-05
0.00103518
-7.71404e-05
8.98126e-05
0.00102299
-7.42575e-05
8.64466e-05
0.00101132
-7.10774e-05
8.2741e-05
0.00100022
-6.76521e-05
7.87546e-05
0.000989705
-6.40269e-05
7.45441e-05
0.000979788
-6.02551e-05
7.01722e-05
0.000970478
-5.63873e-05
6.56971e-05
0.000961774
-5.24708e-05
6.11741e-05
0.000953669
-4.85497e-05
5.66547e-05
0.000946148
-4.4664e-05
5.21854e-05
0.00093919
-4.08488e-05
4.78071e-05
0.000932769
-3.71347e-05
4.3555e-05
0.000926858
-3.35471e-05
3.94586e-05
0.000921423
-3.01073e-05
3.55423e-05
0.000916429
-2.68328e-05
3.18264e-05
0.00091184
-2.37369e-05
2.83262e-05
0.000907616
-2.083e-05
2.50538e-05
0.000903718
-1.81203e-05
2.20185e-05
0.000900104
-1.56144e-05
1.9228e-05
0.000896734
-1.33176e-05
1.66881e-05
0.000893564
-1.12345e-05
1.44042e-05
0.000890553
-9.36937e-06
1.23806e-05
0.000887657
-7.72558e-06
1.0621e-05
0.000884835
-6.30593e-06
9.12786e-06
0.000882045
-5.11237e-06
7.90304e-06
0.000879244
-4.14618e-06
6.94728e-06
0.00087639
-3.4084e-06
6.26154e-06
0.000873441
-2.89738e-06
5.84681e-06
0.000870362
-2.62178e-06
5.7007e-06
0.000867114
-2.57089e-06
5.81929e-06
0.000863655
-2.74697e-06
6.20541e-06
0.000859945
-3.15095e-06
6.86078e-06
0.000855941
-3.78366e-06
7.78837e-06
0.0008516
-4.65613e-06
8.9965e-06
0.000846882
-5.77939e-06
1.04982e-05
0.000841735
-7.16889e-06
1.23152e-05
0.000836109
-8.84364e-06
1.44702e-05
0.000829944
-1.08313e-05
1.6996e-05
0.000823177
-1.31683e-05
1.99353e-05
0.000815736
-1.59001e-05
2.33412e-05
0.00080754
-1.90824e-05
2.72788e-05
0.000798496
-2.27847e-05
3.18287e-05
0.000788498
-2.70906e-05
3.70876e-05
0.000777427
-3.21033e-05
4.31747e-05
0.000765141
-3.79498e-05
5.02358e-05
0.000751477
-4.47871e-05
5.84508e-05
0.000736245
-5.2811e-05
6.80431e-05
0.000719221
-6.22673e-05
7.92922e-05
0.000700137
-7.34693e-05
9.25526e-05
0.00067868
-8.68166e-05
0.000108274
0.000654469
-0.000102833
0.000127043
0.000627053
-0.000122199
0.000149616
0.000595871
-0.000145822
0.000177003
0.0005603
-0.000174928
0.000210498
0.000519455
-0.000210949
0.000251794
0.000472711
-0.000256961
0.000303706
0.000418415
-0.000312772
0.000367067
0.0003564
-0.000391906
0.000453921
0.000285482
-0.000467698
0.000538616
0.00020486
-0.000612127
0.000692748
0.000125877
-0.000652074
0.000731057
1.78775e-05
-0.000793355
0.000901355
-0.000463204
0.000481081
0.00130688
0.00130817
0.00131058
0.00131391
0.00131785
0.00132209
0.00132632
0.0013303
0.0013338
0.00133663
0.00133865
0.00133975
0.00133985
0.00133885
0.00133673
0.00133346
0.00132905
0.00132349
0.00131682
0.00130906
0.00130027
0.0012905
0.00127981
0.00126829
0.00125601
0.00124307
0.00122955
0.00121556
0.00120119
0.00118656
0.00117177
0.00115693
0.00114212
0.00112745
0.00111301
0.00109887
0.00108513
0.00107183
0.00105905
0.00104683
0.0010352
0.0010242
0.00101385
0.00100415
0.000995118
0.000986738
0.000979
0.000971889
0.00096538
0.000959447
0.000954059
0.000949184
0.000944784
0.000940823
0.000937263
0.000934063
0.000931183
0.000928581
0.000926217
0.000924048
0.000922032
0.000920126
0.000918288
0.000916474
0.000914654
0.000912775
0.000910798
0.000908686
0.000906397
0.000903894
0.000901129
0.000898051
0.000894618
0.000890776
0.000886467
0.000881623
0.000876173
0.000870032
0.000863104
0.000855278
0.000846425
0.000836394
0.000825008
0.000812056
0.000797286
0.000780394
0.000761014
0.000738692
0.000712874
0.000682856
0.000647796
0.000606496
0.000557747
0.000499387
0.000429855
0.000347804
0.000247929
0.000148766
2.60658e-05
0.000980979
2.62852e-06
-3.81598e-06
0.000983556
8.31108e-06
-1.08877e-05
0.000987535
1.56283e-05
-1.96074e-05
0.000992439
2.18205e-05
-2.67245e-05
0.000997805
2.60563e-05
-3.14225e-05
0.00100328
2.82043e-05
-3.36784e-05
0.00100859
2.83267e-05
-3.36348e-05
0.00101351
2.66092e-05
-3.15361e-05
0.00101789
2.32927e-05
-2.76699e-05
0.00102159
1.86269e-05
-2.23231e-05
0.0010245
1.28549e-05
-1.57669e-05
0.00102654
6.21075e-06
-8.25403e-06
0.00102768
-1.08168e-06
-5.65128e-08
0.00102787
-8.99562e-06
8.81151e-06
0.00102708
-1.71922e-05
1.79769e-05
0.00102532
-2.55738e-05
2.73366e-05
0.00102258
-3.40144e-05
3.67512e-05
0.00101889
-4.24021e-05
4.60975e-05
0.00101426
-5.06356e-05
5.52641e-05
0.00100873
-5.86231e-05
6.41503e-05
0.00100235
-6.62808e-05
7.26639e-05
0.000995158
-7.35313e-05
8.072e-05
0.000987221
-8.03028e-05
8.82395e-05
0.0009786
-8.65285e-05
9.515e-05
0.000969366
-9.21539e-05
0.000101388
0.000959596
-9.71304e-05
0.0001069
0.000949371
-0.000101415
0.00011164
0.000938775
-0.000104971
0.000115568
0.000927893
-0.000107774
0.000118656
0.000916811
-0.000109808
0.00012089
0.000905614
-0.000111072
0.000122269
0.000894386
-0.000111574
0.000122803
0.000883204
-0.000111333
0.000122515
0.000872142
-0.000110378
0.00012144
0.000861268
-0.00010875
0.000119623
0.000850643
-0.000106494
0.00011712
0.000840318
-0.000103667
0.000113992
0.00083034
-0.00010033
0.000110309
0.000820743
-9.65491e-05
0.000106146
0.000811557
-9.2395e-05
0.000101581
0.0008028
-8.79381e-05
9.66942e-05
0.000794483
-8.32418e-05
9.15591e-05
0.000786606
-7.83774e-05
8.62543e-05
0.000779166
-7.34093e-05
8.08494e-05
0.000772152
-6.83996e-05
7.54133e-05
0.000765549
-6.34061e-05
7.00099e-05
0.000759333
-5.84808e-05
6.4696e-05
0.000753481
-5.3669e-05
5.95213e-05
0.000747963
-4.90095e-05
5.4528e-05
0.000742746
-4.45351e-05
4.97514e-05
0.000737798
-4.02727e-05
4.52209e-05
0.000733082
-3.62445e-05
4.09606e-05
0.00072856
-3.24676e-05
3.69891e-05
0.000724195
-2.89551e-05
3.33205e-05
0.000719946
-2.57173e-05
2.99659e-05
0.000715775
-2.27624e-05
2.69341e-05
0.00071164
-2.00969e-05
2.42317e-05
0.000707502
-1.77261e-05
2.18643e-05
0.00070332
-1.56546e-05
1.98362e-05
0.000699055
-1.38858e-05
1.81504e-05
0.000694669
-1.24219e-05
1.68086e-05
0.000690122
-1.12642e-05
1.58112e-05
0.000685377
-1.04129e-05
1.51577e-05
0.000680398
-9.86814e-06
1.48474e-05
0.000675148
-9.62888e-06
1.48784e-05
0.000669594
-9.69364e-06
1.52475e-05
0.000663701
-1.00585e-05
1.59515e-05
0.000657434
-1.07258e-05
1.69929e-05
0.000650757
-1.16978e-05
1.83749e-05
0.000643632
-1.29787e-05
2.01036e-05
0.000636021
-1.45792e-05
2.21909e-05
0.000627881
-1.65151e-05
2.4655e-05
0.000619168
-1.881e-05
2.75228e-05
0.000609833
-2.14916e-05
3.08265e-05
0.000599822
-2.4598e-05
3.4609e-05
0.000589075
-2.81779e-05
3.89247e-05
0.000577526
-3.22915e-05
4.38402e-05
0.000565102
-3.70123e-05
4.94365e-05
0.00055172
-4.24314e-05
5.58134e-05
0.000537289
-4.86567e-05
6.30884e-05
0.000521704
-5.58213e-05
7.14059e-05
0.000504851
-6.40878e-05
8.09414e-05
0.000486597
-7.36553e-05
9.19092e-05
0.000466795
-8.4771e-05
0.000104573
0.000445277
-9.7742e-05
0.000119259
0.000421857
-0.000112957
0.000136377
0.000396322
-0.000130904
0.000156438
0.000368442
-0.000152221
0.000180101
0.000337967
-0.000177714
0.000208189
0.000304643
-0.000208465
0.000241789
0.000268265
-0.000245796
0.000282173
0.000228541
-0.000291557
0.000331282
0.000185965
-0.000348176
0.000390752
0.000139652
-0.000417585
0.000463898
9.48362e-05
-0.000508137
0.000552953
4.62745e-05
-0.000600391
0.000648953
1.73438e-05
-0.000749418
0.000778349
-1.45843e-05
-0.000789795
0.000821723
-2.50958e-05
-0.000956967
0.000967479
-0.000437827
0.000412732
0.00103938
0.00104138
0.00104464
0.00104882
0.00105351
0.00105837
0.00106313
0.00106756
0.00107148
0.00107475
0.00107725
0.0010789
0.00107966
0.00107944
0.00107824
0.00107605
0.00107287
0.00106872
0.00106361
0.00105758
0.00105068
0.00104295
0.00103446
0.00102526
0.00101544
0.00100507
0.00099423
0.00098301
0.000971497
0.000959779
0.000947945
0.00093608
0.000924267
0.000912583
0.000901101
0.000889886
0.000878995
0.000868477
0.000858375
0.000848721
0.000839537
0.000830839
0.000822634
0.000814922
0.000807696
0.000800945
0.00079465
0.000788788
0.000783333
0.000778257
0.000773527
0.000769108
0.000764967
0.000761066
0.000757367
0.000753833
0.000750424
0.000747102
0.000743828
0.000740563
0.000737269
0.000733908
0.000730443
0.000726836
0.000723054
0.000719061
0.000714822
0.000710301
0.000705464
0.000700274
0.000694691
0.000688674
0.000682179
0.000675158
0.000667556
0.000659313
0.000650363
0.00064063
0.000630027
0.000618458
0.000605811
0.000591959
0.000576755
0.000560027
0.000541577
0.000521173
0.000498543
0.000473366
0.000445267
0.000413806
0.000378508
0.000338745
0.000294275
0.000243757
0.000189541
0.000127766
7.10961e-05
1.23581e-05
-4.32538e-05
-0.000887479
0.010534
-0.0103036
-0.00111855
0.0105251
-0.010294
-0.00135048
0.010512
-0.0102801
-0.00158368
0.0105025
-0.0102693
-0.00181824
0.0104983
-0.0102638
-0.0020546
0.0105005
-0.0102641
-0.00229318
0.0105102
-0.0102716
-0.0025346
0.010529
-0.0102876
-0.00277961
0.010559
-0.010314
-0.00302886
0.0106022
-0.0103529
-0.0032814
0.010658
-0.0104055
-0.00352919
0.0107154
-0.0104677
-0.00374281
0.0107303
-0.0105167
-0.00384427
0.0105789
-0.0104775
-0.00368351
0.010006
-0.0101667
-0.00307787
0.00864133
-0.00924697
-0.0019872
0.00615511
-0.00724578
-0.000772967
0.0027992
-0.00401343
-0.000100345
0.000219628
-0.00089225
-0.000521438
0.000421093
-0.000893266
0.0107631
-0.00112559
0.0107574
-0.00135773
0.0107441
-0.00159166
0.0107364
-0.00182678
0.0107334
-0.00206377
0.0107375
-0.00230291
0.0107493
-0.00254473
0.0107708
-0.00278949
0.0108037
-0.00303608
0.0108488
-0.00327851
0.0109005
-0.00349709
0.010934
-0.00364241
0.0108757
-0.00361872
0.0105552
-0.00328729
0.00967455
-0.00253855
0.00789259
-0.00144848
0.00506504
-0.000479965
0.00183068
-3.54452e-05
-0.000224892
-0.000556883
-0.000916758
0.01012
-0.00993577
-0.00110128
0.0101102
-0.00992565
-0.00128694
0.0100948
-0.00990915
-0.001474
0.0100828
-0.00989568
-0.0016627
0.0100756
-0.00988689
-0.00185335
0.0100741
-0.00988343
-0.00204638
0.0100794
-0.00988633
-0.0022423
0.0100927
-0.00989682
-0.00244185
0.0101161
-0.00991658
-0.00264589
0.010152
-0.00994794
-0.00285485
0.0102026
-0.00999367
-0.00306657
0.010268
-0.0100562
-0.00327023
0.0103358
-0.0101321
-0.0034302
0.0103593
-0.0101993
-0.00346375
0.0102112
-0.0101776
-0.00322293
0.00961733
-0.00985815
-0.00252618
0.00808327
-0.00878002
-0.00131545
0.00518874
-0.00639948
-0.000272674
0.00167071
-0.00271348
-0.000280732
8.05784e-06
-0.000925032
-0.00110885
-0.0012941
-0.00148062
-0.00166879
-0.00185881
-0.00205104
-0.00224588
-0.00244374
-0.0026447
-0.00284757
-0.00304726
-0.00322822
-0.00334641
-0.00330198
-0.00293163
-0.00209413
-0.000918819
-0.000140361
-0.000904864
0.00980471
-0.00967256
-0.00103752
0.00979424
-0.00966159
-0.00117146
0.00977625
-0.00964231
-0.00130712
0.00976135
-0.00962569
-0.00144467
0.00975065
-0.00961309
-0.00158447
0.00974513
-0.00960534
-0.00172691
0.00974562
-0.00960319
-0.00187247
0.00975336
-0.0096078
-0.0020218
0.00976992
-0.00962059
-0.00217567
0.00979761
-0.00964375
-0.00233477
0.00983929
-0.00968019
-0.00249905
0.00989791
-0.00973364
-0.00266587
0.00997274
-0.00980592
-0.00282389
0.0100553
-0.00989723
-0.00294125
0.0100974
-0.00998006
-0.00292645
0.00995621
-0.00997101
-0.00260362
0.00923841
-0.00956124
-0.001758
0.00734827
-0.0081939
-0.000572055
0.00373282
-0.00491876
0.000333137
-0.000905192
-0.000915111
-0.00104652
-0.00117942
-0.00131375
-0.00144999
-0.00158829
-0.00172899
-0.00187245
-0.00201912
-0.00216944
-0.00232382
-0.00248215
-0.00264151
-0.00278556
-0.00286577
-0.00276771
-0.00230933
-0.00136053
-0.000341195
-0.000853687
0.00959761
-0.00952104
-0.000931216
0.00958581
-0.00950828
-0.0010104
0.0095648
-0.00948561
-0.00109145
0.00954663
-0.00946558
-0.00117485
0.00953175
-0.00944835
-0.0012609
0.00952161
-0.00943556
-0.00135002
0.0095167
-0.00942758
-0.00144266
0.00951822
-0.00942557
-0.00153948
0.00952742
-0.0094306
-0.00164126
0.00954637
-0.00944459
-0.00174893
0.00957779
-0.00947011
-0.00186315
0.00962544
-0.00951122
-0.0019846
0.00969144
-0.00956998
-0.00211109
0.00978027
-0.00965378
-0.00223621
0.00987491
-0.00974978
-0.00231539
0.00993729
-0.00985811
-0.00224785
0.00972017
-0.00978772
-0.00179554
0.00874135
-0.00919365
-0.000836426
0.00584913
-0.00680824
0.00147889
-0.00231531
-0.000865502
-0.000941273
-0.00101878
-0.00109784
-0.00117919
-0.00126291
-0.0013494
-0.00143898
-0.00153216
-0.00162953
-0.00173193
-0.00184013
-0.00195461
-0.00207158
-0.00217673
-0.00221045
-0.00205151
-0.00150406
-0.000573694
-0.000767369
0.00950356
-0.009484
-0.00078858
0.00948928
-0.00946807
-0.000811955
0.00946461
-0.00944123
-0.000837727
0.00944231
-0.00941654
-0.000866234
0.00942267
-0.00939417
-0.000897872
0.00940702
-0.00937538
-0.000933121
0.00939581
-0.00936056
-0.000972517
0.00939019
-0.00935079
-0.00101672
0.00939108
-0.00934687
-0.00106665
0.00940016
-0.00935022
-0.00112353
0.00941989
-0.00936301
-0.00118849
0.00945417
-0.00938921
-0.00126348
0.00950501
-0.00943002
-0.0013491
0.00958013
-0.00949451
-0.00144774
0.00966951
-0.00957087
-0.00154537
0.00978753
-0.0096899
-0.00160569
0.00978109
-0.00972077
-0.00144818
0.00942026
-0.00957776
-0.000855453
0.00739886
-0.0079916
0.00295012
-0.00380557
-0.000780036
-0.00079904
-0.000820044
-0.000843313
-0.000868993
-0.000897537
-0.000929305
-0.000964688
-0.00100422
-0.00104865
-0.00109887
-0.00115592
-0.0012209
-0.00129455
-0.00137482
-0.00144541
-0.00145203
-0.00122542
-0.000634805
-0.00065219
0.00952348
-0.00956062
-0.000617675
0.00950507
-0.00953958
-0.000585458
0.0094763
-0.00950852
-0.00055628
0.00944857
-0.00947775
-0.000530199
0.00942355
-0.00944963
-0.000507898
0.00940129
-0.0094236
-0.000490039
0.00938272
-0.00940058
-0.000476785
0.00936879
-0.00938205
-0.000469096
0.00936011
-0.0093678
-0.000468322
0.00935769
-0.00935847
-0.000475684
0.00936388
-0.00935652
-0.000492969
0.00938173
-0.00936445
-0.000522
0.00941358
-0.00938455
-0.000567175
0.00946422
-0.00941904
-0.000630211
0.00952862
-0.00946558
-0.000721293
0.00962322
-0.00953214
-0.000820904
0.00966027
-0.00956066
-0.000863942
0.00958169
-0.00953865
-0.000623195
0.00822618
-0.00846692
0.00423424
-0.00485743
-0.000664662
-0.000627662
-0.000592594
-0.000560565
-0.00053118
-0.000505268
-0.000483108
-0.00046511
-0.000451874
-0.000444403
-0.000443541
-0.000451015
-0.00046745
-0.000497741
-0.000539995
-0.000606675
-0.000667181
-0.00066325
-0.000428668
-0.000516125
0.00965489
-0.00974666
-0.000428371
0.00963015
-0.00971791
-0.000342914
0.00959746
-0.00968292
-0.000260828
0.00956314
-0.00964522
-0.000181472
0.00953238
-0.00961173
-0.000106222
0.00950249
-0.00957774
-3.55719e-05
0.00947546
-0.00954611
2.89324e-05
0.00945073
-0.00951523
8.57396e-05
0.00943027
-0.00948708
0.000134813
0.00941411
-0.00946318
0.00017455
0.00940432
-0.00944406
0.000202693
0.00940255
-0.00943069
0.00021663
0.00941176
-0.00942569
0.000210917
0.00942958
-0.00942387
0.000181927
0.00945976
-0.00943077
0.000109921
0.00948542
-0.00941342
1.21872e-05
0.00949271
-0.00939498
-0.000179208
0.00938639
-0.00919499
-0.000198859
0.00844055
-0.00842089
0.0048718
-0.00507066
-0.000527105
-0.000436537
-0.000347594
-0.000262207
-0.000179464
-0.000100565
-2.56901e-05
4.29923e-05
0.000105465
0.00016111
0.000208916
0.000247011
0.000274218
0.000284753
0.000278933
0.000232219
0.00016427
1.20071e-05
-1.43714e-05
-0.000369012
0.00989185
-0.0100313
-0.000232312
0.00985719
-0.00999389
-9.59168e-05
0.00982226
-0.00995866
3.50575e-05
0.00977971
-0.00991069
0.000159695
0.00974135
-0.00986599
0.000279369
0.00970304
-0.00982272
0.000393018
0.00966629
-0.00977993
0.000500134
0.00963012
-0.00973724
0.000599722
0.00959581
-0.00969539
0.000690248
0.00956435
-0.00965487
0.00077006
0.0095363
-0.00961611
0.000836848
0.00951205
-0.00957883
0.000886917
0.00949278
-0.00954285
0.00091457
0.00947172
-0.00949937
0.000909459
0.00944907
-0.00944396
0.000853908
0.00938617
-0.00933062
0.000720417
0.00929576
-0.00916227
0.000449434
0.00895746
-0.00868647
0.000128634
0.00813516
-0.00781436
0.0046766
-0.00454796
-0.000376048
-0.000236766
-9.74185e-05
3.70712e-05
0.000166694
0.000291994
0.000412175
0.000527064
0.000635792
0.000736954
0.000829196
0.000910555
0.000977643
0.0010255
0.0010438
0.00101655
0.000917333
0.000679796
0.000394066
0.00378759
3.71265e-06
-2.88511e-06
0.00378837
-1.08485e-07
-6.725e-07
0.0037858
1.2529e-05
-9.96326e-06
0.0037857
1.0062e-05
-9.95877e-06
0.00378171
2.05293e-05
-1.6542e-05
0.00377957
2.95101e-05
-2.73694e-05
0.00377283
3.63808e-05
-2.96384e-05
0.00376628
6.82516e-05
-6.1702e-05
0.00375409
6.87723e-05
-5.65837e-05
0.00373806
0.000146587
-0.000130555
0.00371439
0.000138162
-0.000114493
0.00367786
0.000308994
-0.000272465
0.00362827
0.000294004
-0.000244412
0.0035454
0.000666563
-0.000583697
0.00343071
0.000675055
-0.000560358
0.00323128
0.00155566
-0.00135624
0.00292085
0.00177897
-0.00146854
0.00236625
0.00431921
-0.00376461
0.00136255
0.00607811
-0.00507441
0.015356
-0.0139934
0.0037876
4.52402e-06
0.0037883
-8.01393e-07
0.00378585
1.49787e-05
0.00378565
1.02613e-05
0.00378175
2.44262e-05
0.00377953
3.17269e-05
0.0037728
4.31141e-05
0.0037662
7.4847e-05
0.00375379
8.11828e-05
0.00373777
0.000162609
0.00371326
0.000162673
0.00367684
0.00034541
0.00362478
0.000346069
0.00354226
0.000749078
0.00342082
0.000796496
0.0032231
0.00175339
0.00289591
0.00210615
0.00235802
0.0048571
0.00135196
0.00708418
0.0167079
0.00432155
2.14502e-06
-1.52742e-06
0.00432178
1.13593e-06
-1.36447e-06
0.00431977
7.65265e-06
-5.64404e-06
0.0043187
9.23705e-06
-8.16301e-06
0.00431548
1.28899e-05
-9.67031e-06
0.00431181
2.41927e-05
-2.0527e-05
0.00430622
2.33786e-05
-1.77844e-05
0.0042973
5.34483e-05
-4.4531e-05
0.0042869
4.51169e-05
-3.47122e-05
0.00426724
0.000111762
-9.21047e-05
0.00424654
9.19911e-05
-7.12913e-05
0.00420449
0.000231503
-0.000189449
0.00416049
0.00019706
-0.00015306
0.00406911
0.000493783
-0.000402405
0.00396721
0.000451399
-0.0003495
0.00375364
0.00114612
-0.000932554
0.00348193