/*--------------------------------*- C++ -*----------------------------------*\
  =========                 |
  \\      /  F ield         | OpenFOAM: The Open Source CFD Toolbox
   \\    /   O peration     | Website:  https://openfoam.org
    \\  /    A nd           | Version:  7
     \\/     M anipulation  |
\*---------------------------------------------------------------------------*/
FoamFile
{
    version     2.0;
    format      ascii;
    class       surfaceScalarField;
    location    "18";
    object      phi;
}
// * * * * * * * * * * * * * * * * * * * * * * * * * * * * * * * * * * * * * //

dimensions      [0 3 -1 0 0 0 0];

internalField   nonuniform List<scalar> 
206
(
-0.00692064
-0.00412119
-0.00714368
-0.0040014
-0.00737163
-0.00380243
-0.00759848
-0.00351919
-0.0078197
-0.00315399
-0.00803276
-0.0027158
-0.00823776
-0.00221791
-0.00843698
-0.00167798
-0.0086327
-0.00111812
-0.00882639
-0.000558739
-0.00901996
-1.45126e-05
-0.00921196
0.000498253
0.000974079
-0.00646408
-0.00391209
-0.00663034
-0.00395649
-0.00682732
-0.00397139
-0.00705248
-0.00394723
-0.00730089
-0.00387278
-0.00756576
-0.00373652
-0.00783947
-0.00352872
-0.0081147
-0.00324396
-0.00838539
-0.00288329
-0.0086474
-0.00245379
-0.0088997
-0.00196562
-0.00914428
-0.0014334
-0.00938297
-0.00087943
-0.00961673
-0.000324986
-0.00984501
0.000213774
-0.010068
0.000721235
0.00119055
-0.00668445
-0.00376118
-0.0068676
-0.00377334
-0.00708375
-0.00375524
-0.00733144
-0.00369954
-0.0076067
-0.00359751
-0.00790324
-0.00343998
-0.00821324
-0.00321873
-0.00852859
-0.00292861
-0.00884201
-0.00256986
-0.00914756
-0.00214825
-0.00944264
-0.00167053
-0.00972877
-0.00114728
-0.0100073
-0.000600942
-0.0102763
-5.59798e-05
-0.0105391
0.000476605
-0.0107913
0.000973432
0.00142789
-0.00686583
-0.00359841
-0.00706072
-0.00357845
-0.0072892
-0.00352677
-0.00755082
-0.00343792
-0.00784284
-0.00330549
-0.00815995
-0.00312287
-0.00849475
-0.00288393
-0.00883879
-0.00258457
-0.00918356
-0.0022251
-0.00952179
-0.00181002
-0.00984999
-0.00134233
-0.0101707
-0.000826611
-0.0104861
-0.000285536
-0.0107918
0.000249746
-0.0110787
0.00076351
-0.0113483
0.00124304
0.00167877
-0.00700771
-0.00342654
-0.00721064
-0.00337553
-0.00744641
-0.003291
-0.00771556
-0.00316876
-0.00801648
-0.00300458
-0.00834501
-0.00279434
-0.00869468
-0.00253426
-0.0090573
-0.00222195
-0.00942376
-0.00185863
-0.00978466
-0.00144913
-0.0101332
-0.000993788
-0.0104723
-0.000487513
-0.0107977
3.99062e-05
-0.0111221
0.000574129
-0.0114363
0.00107764
-0.0117287
0.00153548
0.00194108
-0.00710995
-0.0032478
-0.00731822
-0.00316726
-0.00755756
-0.00305167
-0.00782851
-0.00289781
-0.00813008
-0.00270301
-0.00845921
-0.00246521
-0.00881061
-0.00218286
-0.00917696
-0.0018556
-0.0095497
-0.0014859
-0.00991982
-0.001079
-0.0102796
-0.000634034
-0.0106405
-0.000126593
-0.0110079
0.000407266
-0.0113532
0.000919457
-0.0116752
0.00139965
-0.0119719
0.00183221
0.00220412
-0.00717615
-0.00739083
-0.00763552
-0.00791032
-0.00821406
-0.00854395
-0.00889514
-0.00926047
-0.00963093
-0.00999669
-0.0103456
-0.0106714
-0.0110181
-0.0113778
-0.0117256
-0.012046
)
;

boundaryField
{
    inlet
    {
        type            calculated;
        value           nonuniform 0();
    }
    outlet
    {
        type            calculated;
        value           nonuniform 0();
    }
    polygon
    {
        type            calculated;
        value           nonuniform 0();
    }
    top
    {
        type            symmetryPlane;
        value           uniform 0;
    }
    bottom
    {
        type            symmetryPlane;
        value           uniform 0;
    }
    outside
    {
        type            calculated;
        value           nonuniform List<scalar> 
17
(
-0.0030621
-0.00295257
-0.00280698
-0.002623
-0.00239927
-0.00213532
-0.00183167
-0.00149026
-0.00111544
-0.000713235
-0.000285133
0.000199261
0.000753905
0.00127916
0.00174747
0.00215257
0.00248526
)
;
    }
    procBoundary4to3
    {
        type            processor;
        value           nonuniform List<scalar> 7(-0.00940231 -0.0102845 -0.0110286 -0.0115992 -0.011991 -0.012235 -0.0123271);
    }
    procBoundary4to5
    {
        type            processor;
        value           nonuniform List<scalar> 6(0.00632876 0.00653354 0.00670306 0.00683584 0.00693121 0.00699045);
    }
    procBoundary4to12
    {
        type            processor;
        value           nonuniform List<scalar> 
18
(
0.00433255
0.00422444
0.00403037
0.00374605
0.00337521
0.00292886
0.00242292
0.0018772
0.00131384
0.000752434
0.000208084
-0.00030626
-0.000783723
0.00404741
0.00412275
0.00416837
0.00670929
0.00417239
)
;
    }
}


// ************************************************************************* //
