/*--------------------------------*- C++ -*----------------------------------*\
  =========                 |
  \\      /  F ield         | OpenFOAM: The Open Source CFD Toolbox
   \\    /   O peration     | Website:  https://openfoam.org
    \\  /    A nd           | Version:  7
     \\/     M anipulation  |
\*---------------------------------------------------------------------------*/
FoamFile
{
    version     2.0;
    format      ascii;
    class       volVectorField;
    location    "76";
    object      U;
}
// * * * * * * * * * * * * * * * * * * * * * * * * * * * * * * * * * * * * * //

dimensions      [0 1 -1 0 0 0 0];

internalField   nonuniform List<vector> 
115
(
(-0.135569 0.00692716 -7.89323e-19)
(-0.131306 0.00795037 3.85086e-18)
(-0.126746 0.00914362 -1.19194e-18)
(-0.121871 0.0105424 2.59719e-18)
(-0.116665 0.0121914 -1.35148e-19)
(-0.111118 0.0141484 3.6902e-18)
(-0.105221 0.0164871 1.02224e-18)
(-0.098997 0.0193049 1.19862e-17)
(-0.0924606 0.022722 1.56169e-19)
(-0.0857634 0.0269118 -1.49521e-18)
(-0.0788219 0.0320626 -4.29319e-18)
(-0.0725657 0.0383148 1.59506e-18)
(-0.0655718 0.0463031 1.17e-17)
(-0.0631132 0.0542803 2.19844e-18)
(-0.0557327 0.0668624 3.70059e-19)
(-0.0624142 0.0692619 -3.2831e-18)
(-0.0512044 0.0828321 -3.74136e-18)
(-0.157934 0.005476 -2.8886e-18)
(-0.154376 0.00635617 -1.10986e-17)
(-0.150512 0.00738828 -4.8287e-18)
(-0.146311 0.00860502 6.85475e-18)
(-0.141741 0.0100479 -2.18128e-18)
(-0.136771 0.0117714 9.91612e-18)
(-0.13136 0.013846 -2.00807e-18)
(-0.125493 0.0163665 7.2535e-18)
(0.568266 0.0738947 -3.19225e-19)
(0.602189 0.0791775 8.22379e-20)
(0.638918 0.085191 2.29639e-19)
(0.678924 0.0921207 6.15909e-20)
(0.722719 0.100191 -3.31904e-20)
(0.770785 0.10966 -6.05047e-20)
(0.823432 0.120847 3.89717e-20)
(0.880712 0.134151 2.96803e-19)
(0.942598 0.149887 6.53999e-19)
(1.00862 0.168493 7.90225e-19)
(0.260053 0.0374141 1.77628e-19)
(0.277828 0.0396849 -1.38901e-19)
(0.296416 0.0421302 -3.15892e-19)
(0.315889 0.0447682 -2.99861e-19)
(0.33634 0.0476188 1.70169e-19)
(0.35789 0.0507047 3.67414e-19)
(0.380705 0.0540512 -1.11155e-20)
(0.405012 0.0576891 2.08561e-21)
(0.431128 0.0616579 7.94529e-20)
(0.459509 0.0660161 1.62071e-20)
(0.490805 0.0708487 2.68938e-19)
(0.525937 0.0762923 -2.40069e-20)
(0.566145 0.0826 3.61988e-20)
(0.612976 0.0903701 3.35294e-19)
(0.66928 0.0998756 3.01357e-19)
(0.734142 0.114589 4.18841e-19)
(0.138353 0.0269229 2.2422e-19)
(0.151464 0.02877 2.87951e-19)
(0.165068 0.0307723 -6.50673e-20)
(0.179174 0.0329435 1.37113e-19)
(0.19379 0.0352966 3.50861e-19)
(0.208924 0.0378429 1.12869e-19)
(0.224586 0.0405887 -8.29736e-20)
(0.240792 0.0435325 -7.31648e-20)
(0.257578 0.0466557 -6.5211e-20)
(0.27501 0.0499173 -1.54781e-20)
(0.293228 0.0532301 -1.39948e-19)
(0.3125 0.0564531 7.50411e-20)
(0.333501 0.0592825 4.46962e-19)
(0.356508 0.0620233 1.44799e-19)
(0.387477 0.0623181 1.59421e-19)
(0.417607 0.0676043 7.6477e-19)
(0.0392723 0.0192111 -1.86418e-19)
(0.0488815 0.0207881 2.08704e-19)
(0.0588189 0.022528 -5.32456e-19)
(0.0690661 0.0244499 3.43662e-19)
(0.0795933 0.0265747 2.22694e-19)
(0.0903541 0.0289234 9.53251e-20)
(0.101282 0.0315149 -3.30079e-19)
(0.112275 0.0343658 -1.14302e-19)
(0.123198 0.0374747 1.24797e-20)
(0.133851 0.0408226 -3.57582e-20)
(0.14398 0.0443292 -9.15976e-20)
(0.153123 0.0478947 2.62375e-19)
(0.161498 0.0508684 3.2031e-19)
(0.165855 0.0539162 2.2209e-19)
(0.175119 0.0521755 7.94031e-21)
(0.164583 0.0525774 9.88933e-20)
(-0.0396116 0.0135212 8.94039e-20)
(-0.0325416 0.0148954 2.0232e-20)
(-0.0251977 0.0164444 -1.6979e-19)
(-0.0175954 0.0181959 -4.89317e-20)
(-0.00976222 0.0201824 -6.28293e-20)
(-0.00174518 0.022442 3.99211e-19)
(0.00638616 0.0250185 -8.03011e-20)
(0.0145177 0.0279615 5.13306e-19)
(0.0224843 0.0313185 3.42633e-19)
(0.0300207 0.0351463 3.41947e-20)
(0.0368177 0.0394435 -1.79185e-20)
(0.0419578 0.0443188 2.02806e-19)
(0.0461026 0.0492223 7.95059e-19)
(0.0432792 0.0547764 1.91645e-19)
(0.0450191 0.0585947 7.76307e-20)
(0.0183941 0.0597906 -5.13282e-19)
(-0.101005 0.00962659 3.01009e-19)
(-0.0957564 0.0108262 6.82044e-19)
(-0.0902297 0.0122055 -2.69751e-19)
(-0.0844226 0.0137989 6.19047e-19)
(-0.0783402 0.0156488 7.04223e-20)
(-0.0720002 0.0178087 1.06379e-18)
(-0.0654358 0.0203448 5.07212e-19)
(-0.0587159 0.0233402 2.81286e-18)
(-0.0519396 0.0268878 3.53221e-19)
(-0.0453252 0.0311341 -2.77161e-19)
(-0.0390192 0.0361582 -1.01125e-18)
(-0.034018 0.0423323 4.97537e-19)
(-0.0292076 0.0494043 3.2505e-18)
(-0.0305196 0.0574297 1.02757e-18)
(-0.0275099 0.0669863 1.30851e-19)
(-0.0450259 0.0705706 -9.99019e-19)
)
;

boundaryField
{
    inlet
    {
        type            uniformFixedValue;
        uniformValue    constant (1 0 0);
        value           nonuniform 0();
    }
    outlet
    {
        type            pressureInletOutletVelocity;
        value           nonuniform 0();
    }
    polygon
    {
        type            fixedValue;
        value           nonuniform 0();
    }
    top
    {
        type            symmetryPlane;
    }
    bottom
    {
        type            symmetryPlane;
    }
    outside
    {
        type            zeroGradient;
    }
    procBoundary42to33
    {
        type            processor;
        value           nonuniform List<vector> 7((-0.0329726 0.0363767 -3.57581e-18) (-0.0402789 0.0852696 -1.66993e-18) (0.823292 0.125677 1.66341e-18) (0.490625 0.0610026 1.76043e-18) (0.197032 0.0363777 6.21223e-20) (0.0267984 0.0634286 -4.15939e-19) (-0.0402789 0.0852696 -1.66993e-18));
    }
    procBoundary42to34
    {
        type            processor;
        value           nonuniform List<vector> 
18
(
(-0.177343 0.00433777 -9.56723e-18)
(-0.174365 0.00509302 -1.3286e-17)
(-0.171068 0.00598212 -1.1875e-17)
(-0.167412 0.00703419 -2.06607e-18)
(-0.163348 0.00828632 -9.18587e-18)
(-0.158827 0.00978713 3.20022e-18)
(-0.153778 0.0115997 -8.50812e-18)
(-0.14815 0.0138086 1.11553e-17)
(-0.119111 0.0194575 -7.53803e-19)
(-0.112316 0.0232837 -5.16201e-18)
(-0.104849 0.0281047 -9.39739e-18)
(-0.0975571 0.0338961 3.47707e-18)
(-0.0886567 0.0417901 4.05577e-18)
(-0.0829994 0.0492975 3.57218e-18)
(-0.0714905 0.0630827 7.97657e-19)
(-0.069573 0.0655572 -6.15675e-18)
(-0.0536548 0.0806025 -6.84565e-18)
(-0.119111 0.0194575 -7.53803e-19)
)
;
    }
    procBoundary42to35
    {
        type            processor;
        value           nonuniform List<vector> 2((-0.139554 0.00604589 3.40267e-18) (-0.161213 0.00472209 7.44277e-18));
    }
    procBoundary42to41
    {
        type            processor;
        value           uniform (1.0799 0.187355 1.12431e-18);
    }
    procBoundary42to43
    {
        type            processor;
        value           nonuniform List<vector> 5((0.243034 0.0353018 3.56881e-20) (0.125728 0.0252177 2.19616e-19) (0.0300012 0.0177792 8.34398e-20) (-0.0464008 0.0122986 5.31489e-19) (-0.105982 0.00857903 1.15308e-18));
    }
    procBoundary42to50
    {
        type            processor;
        value           nonuniform List<vector> 
17
(
(0.772785 0.100324 -7.95723e-20)
(0.813273 0.107636 1.01358e-19)
(0.855956 0.115894 -1.9344e-19)
(0.900779 0.125228 2.27981e-20)
(0.947545 0.135747 -1.24613e-19)
(0.99584 0.147535 1.41394e-19)
(1.04496 0.160668 8.84537e-22)
(1.09397 0.175232 -7.3374e-20)
(1.1421 0.191235 3.52049e-19)
(1.18881 0.208583 -1.17851e-19)
(0.405241 0.0515201 1.13876e-19)
(0.428743 0.0544755 -1.2764e-19)
(0.453481 0.0576767 5.35041e-20)
(0.4796 0.0611626 -3.39564e-20)
(0.50728 0.0649824 -2.15839e-20)
(0.536742 0.0691991 6.59779e-20)
(0.536742 0.0691991 6.59779e-20)
)
;
    }
}


// ************************************************************************* //
