/*--------------------------------*- C++ -*----------------------------------*\
  =========                 |
  \\      /  F ield         | OpenFOAM: The Open Source CFD Toolbox
   \\    /   O peration     | Website:  https://openfoam.org
    \\  /    A nd           | Version:  7
     \\/     M anipulation  |
\*---------------------------------------------------------------------------*/
FoamFile
{
    version     2.0;
    format      ascii;
    class       volVectorField;
    location    "76";
    object      U;
}
// * * * * * * * * * * * * * * * * * * * * * * * * * * * * * * * * * * * * * //

dimensions      [0 1 -1 0 0 0 0];

internalField   nonuniform List<vector> 
11200
(
(-0.340497 -5.2874e-05 -1.192e-20)
(-0.340619 -0.000230958 1.02632e-19)
(-0.340924 -0.000503668 -5.84678e-20)
(-0.341451 -0.000749467 -3.68224e-20)
(-0.34212 -0.000929713 7.89374e-20)
(-0.342882 -0.00102402 -2.35618e-19)
(-0.343667 -0.00102598 -2.84391e-19)
(-0.344418 -0.000939424 6.92389e-21)
(-0.34508 -0.000772166 5.54651e-19)
(-0.34561 -0.000534389 -7.78798e-19)
(-0.345967 -0.000236696 -1.17417e-19)
(-0.346123 0.000109867 1.38027e-18)
(-0.346051 0.000497014 1.49465e-19)
(-0.345731 0.000914998 9.17779e-19)
(-0.34515 0.00135596 -1.60275e-18)
(-0.344297 0.0018127 6.35225e-19)
(-0.343165 0.00227862 6.50969e-19)
(-0.341753 0.0027479 -1.058e-18)
(-0.340061 0.00321523 -1.36491e-18)
(-0.33809 0.00367583 -1.89106e-18)
(-0.335848 0.00412521 -2.81651e-18)
(-0.33334 0.00455924 -8.01312e-19)
(-0.330579 0.00497398 -4.09068e-19)
(-0.327575 0.0053657 -2.52898e-19)
(-0.324342 0.00573082 -1.50103e-19)
(-0.320898 0.00606594 -1.24764e-18)
(-0.31726 0.00636786 7.34371e-19)
(-0.313448 0.00663362 1.049e-19)
(-0.309483 0.0068606 9.1475e-19)
(-0.305388 0.00704656 -6.36235e-20)
(-0.301188 0.00718977 -6.31412e-19)
(-0.296907 0.00728904 4.32146e-20)
(-0.292571 0.00734381 -9.84738e-19)
(-0.288205 0.00735414 9.367e-19)
(-0.283836 0.00732078 -2.82317e-19)
(-0.279489 0.00724513 -5.5736e-19)
(-0.275187 0.00712923 1.64138e-20)
(-0.270954 0.00697567 9.07053e-20)
(-0.26681 0.00678756 -7.30219e-19)
(-0.262777 0.00656841 -9.11206e-19)
(-0.25887 0.00632203 -1.10701e-18)
(-0.255106 0.00605243 -1.04162e-18)
(-0.251498 0.00576366 1.93865e-22)
(-0.248057 0.00545973 -2.7795e-19)
(-0.244792 0.00514451 1.28229e-19)
(-0.241709 0.00482165 4.93068e-19)
(-0.238814 0.00449458 -5.03382e-19)
(-0.236108 0.00416639 -9.58739e-19)
(-0.233593 0.00383994 2.91462e-20)
(-0.231268 0.00351782 -1.50178e-20)
(-0.229131 0.00320242 7.10579e-19)
(-0.227179 0.00289592 5.65579e-19)
(-0.225406 0.00260035 2.51862e-20)
(-0.223806 0.00231761 5.11272e-21)
(-0.222371 0.00204941 -2.19813e-19)
(-0.221092 0.00179735 -2.3201e-19)
(-0.219959 0.00156284 -9.68785e-19)
(-0.218962 0.0013471 6.86287e-19)
(-0.218089 0.00115113 2.94581e-19)
(-0.217326 0.00097564 1.31204e-19)
(-0.216662 0.000821006 -1.07827e-18)
(-0.216082 0.000687297 -7.16589e-19)
(-0.215575 0.00057416 -1.53412e-18)
(-0.215125 0.00048114 -1.58565e-18)
(-0.214719 0.000407458 -6.11364e-19)
(-0.214346 0.000352216 -9.14263e-19)
(-0.213991 0.0003145 -3.93328e-19)
(-0.213644 0.000293384 -1.9357e-19)
(-0.213291 0.000288075 -2.69099e-19)
(-0.212922 0.000297963 4.17006e-19)
(-0.212525 0.000322835 -1.97011e-18)
(-0.212089 0.000362823 -1.57715e-18)
(-0.211602 0.000418503 3.68942e-19)
(-0.211052 0.000491061 -2.14842e-18)
(-0.210427 0.000582124 1.30698e-18)
(-0.209715 0.000694253 -2.17086e-18)
(-0.208898 0.000830455 2.73473e-18)
(-0.207963 0.000995058 -9.18536e-19)
(-0.206889 0.00119254 -3.06861e-18)
(-0.205658 0.00142973 1.74296e-18)
(-0.204243 0.00171286 -1.02848e-18)
(-0.20262 0.00205269 -4.25425e-18)
(-0.200749 0.00245705 -1.602e-18)
(-0.198605 0.00294469 -4.90007e-21)
(-0.196118 0.00352379 8.11379e-19)
(-0.193276 0.00423043 -3.31452e-18)
(-0.189942 0.00506787 2.76133e-18)
(-0.186153 0.00611237 4.44777e-18)
(-0.18161 0.00734613 7.2301e-18)
(-0.176531 0.00893755 4.79844e-18)
(-0.170183 0.0108151 4.28967e-18)
(-0.163352 0.0133164 2.6535e-18)
(-0.154139 0.0163516 -1.41005e-18)
(-0.144953 0.0202752 -1.37041e-20)
(-0.131034 0.0257231 2.53856e-18)
(-0.118434 0.0311957 2.29935e-18)
(-0.0974956 0.0415345 -3.63752e-18)
(-0.0775736 0.0455024 -1.73753e-18)
(-0.0504774 0.0555705 -8.10657e-19)
(-0.0121623 0.0386111 -8.45996e-19)
(-0.345408 -4.35466e-05 -1.59741e-20)
(-0.345512 -0.000197722 1.19886e-19)
(-0.345789 -0.000436915 4.56185e-20)
(-0.346276 -0.000653841 1.86068e-19)
(-0.346901 -0.000814471 1.21509e-20)
(-0.347618 -0.000899338 1.30734e-19)
(-0.348359 -0.00090215 9.72449e-20)
(-0.349068 -0.000825826 1.10719e-19)
(-0.349689 -0.000677053 5.98325e-19)
(-0.350178 -0.000464797 7.52073e-20)
(-0.350495 -0.00019846 -6.41735e-19)
(-0.350609 0.00011204 1.48292e-18)
(-0.350495 0.000459679 4.81886e-19)
(-0.350132 0.000835185 1.40464e-18)
(-0.349506 0.00123157 -1.18147e-18)
(-0.348605 0.00164233 1.20247e-18)
(-0.347425 0.0020615 8.69875e-19)
(-0.345961 0.0024838 -1.24896e-18)
(-0.344214 0.00290444 -1.17117e-18)
(-0.342186 0.00331904 -1.12766e-18)
(-0.339884 0.00372358 -2.05112e-18)
(-0.337315 0.00411428 -7.25714e-19)
(-0.33449 0.00448759 -9.51667e-19)
(-0.33142 0.00484011 2.98815e-19)
(-0.32812 0.00516862 -1.04799e-19)
(-0.324607 0.00547002 -7.5156e-19)
(-0.320898 0.00574143 1.49743e-19)
(-0.317015 0.00598018 -8.77523e-20)
(-0.312978 0.00618389 9.84171e-19)
(-0.30881 0.00635056 -3.51931e-19)
(-0.304536 0.00647863 -7.43113e-19)
(-0.300182 0.00656701 2.1725e-19)
(-0.295773 0.00661521 -6.16109e-19)
(-0.291336 0.0066233 6.03153e-19)
(-0.286895 0.00659196 -1.20864e-19)
(-0.282477 0.00652247 -5.81087e-19)
(-0.278106 0.00641666 3.51195e-19)
(-0.273806 0.0062769 1.72486e-19)
(-0.269597 0.006106 -7.89092e-19)
(-0.2655 0.00590717 -1.08004e-18)
(-0.261533 0.00568386 -1.16256e-18)
(-0.257712 0.00543969 -8.51057e-19)
(-0.25405 0.00517837 -1.33728e-19)
(-0.250557 0.00490352 1.40293e-19)
(-0.247244 0.00461865 3.60213e-19)
(-0.244118 0.00432706 6.29385e-20)
(-0.241182 0.00403184 -3.82945e-19)
(-0.23844 0.00373577 -8.28914e-19)
(-0.235893 0.00344142 -1.75368e-19)
(-0.23354 0.00315112 -4.62135e-21)
(-0.23138 0.002867 2.90794e-19)
(-0.22941 0.00259102 6.2213e-19)
(-0.227623 0.00232496 -5.48106e-20)
(-0.226014 0.0020705 -8.31317e-20)
(-0.224576 0.00182917 -4.32331e-19)
(-0.2233 0.00160236 -2.93189e-19)
(-0.222176 0.00139131 -6.27536e-19)
(-0.221194 0.0011971 1.20659e-18)
(-0.220341 0.0010206 1.64173e-19)
(-0.219605 0.000862431 -1.1939e-19)
(-0.218974 0.000722907 -6.51928e-19)
(-0.218434 0.000602068 -1.15616e-18)
(-0.217972 0.000499561 -1.22354e-18)
(-0.217574 0.000414964 -1.25344e-18)
(-0.217227 0.000347552 -8.32279e-19)
(-0.216918 0.00029649 -1.7099e-18)
(-0.216633 0.000260941 -5.57139e-19)
(-0.216361 0.000240049 4.00141e-19)
(-0.21609 0.000233071 -6.94738e-19)
(-0.215807 0.000239428 1.00561e-18)
(-0.215501 0.000258924 -1.98012e-18)
(-0.21516 0.000291668 -1.80669e-18)
(-0.214774 0.000338184 -7.64483e-19)
(-0.21433 0.000399562 -2.39894e-18)
(-0.213815 0.000477278 1.1594e-18)
(-0.213217 0.000573694 -1.33553e-18)
(-0.212519 0.000691574 2.68534e-18)
(-0.211705 0.000834898 -1.05827e-18)
(-0.210757 0.00100776 -2.76899e-18)
(-0.209655 0.00121645 1.19007e-19)
(-0.20837 0.00146664 -1.28894e-18)
(-0.20688 0.00176815 -4.9056e-18)
(-0.205142 0.00212814 -2.0422e-18)
(-0.203131 0.00256369 -1.6615e-18)
(-0.200775 0.00308221 1.17427e-18)
(-0.198059 0.00371664 -2.47047e-18)
(-0.194839 0.00446982 2.40874e-18)
(-0.191157 0.00541146 3.12327e-18)
(-0.186693 0.00652524 8.10924e-18)
(-0.181677 0.0079647 4.96464e-18)
(-0.175326 0.00966644 5.05706e-18)
(-0.168464 0.0119346 1.98403e-18)
(-0.159088 0.0147025 -1.44694e-18)
(-0.149653 0.0182681 1.1837e-19)
(-0.135277 0.0232681 3.03344e-18)
(-0.121883 0.0282643 3.39998e-18)
(-0.100033 0.0377094 -4.5309e-18)
(-0.0783126 0.0414606 -1.22626e-18)
(-0.0497644 0.0500846 -5.3616e-19)
(-0.0116566 0.0346562 -1.04013e-18)
(-0.349787 -3.56938e-05 -2.21403e-20)
(-0.349875 -0.000168041 6.36286e-20)
(-0.350129 -0.000375592 -7.05553e-21)
(-0.350582 -0.000564961 2.01083e-19)
(-0.351169 -0.000706474 2.61449e-19)
(-0.351847 -0.000782024 1.2444e-19)
(-0.352549 -0.000785597 4.89747e-19)
(-0.35322 -0.000719342 2.57752e-19)
(-0.353804 -0.00058889 7.43212e-19)
(-0.354256 -0.000402007 1.47892e-19)
(-0.354537 -0.000166862 -4.61444e-19)
(-0.354616 0.0001076 1.10713e-18)
(-0.354464 0.000415223 8.46252e-19)
(-0.354063 0.000747907 1.1637e-18)
(-0.353396 0.00109939 -5.42605e-20)
(-0.352453 0.00146386 1.02053e-18)
(-0.351229 0.00183597 1.12796e-18)
(-0.349718 0.002211 -6.96782e-19)
(-0.347922 0.00258465 -1.11041e-18)
(-0.345844 0.00295301 -5.09841e-19)
(-0.343489 0.00331245 -1.64396e-18)
(-0.340865 0.00365959 -6.42597e-19)
(-0.337983 0.00399124 -4.4348e-19)
(-0.334854 0.00430436 9.85341e-19)
(-0.331494 0.00459606 -1.31265e-19)
(-0.327919 0.00486358 -4.45932e-19)
(-0.324148 0.00510433 6.88409e-19)
(-0.3202 0.00531594 -2.59694e-19)
(-0.316098 0.00549628 1.26272e-18)
(-0.311866 0.00564357 1.27556e-19)
(-0.307527 0.00575641 -8.52104e-20)
(-0.303107 0.00583386 4.79025e-19)
(-0.298633 0.00587546 -3.36518e-19)
(-0.29413 0.00588131 4.4514e-19)
(-0.289626 0.00585201 -3.68535e-20)
(-0.285145 0.00578871 -7.27469e-19)
(-0.280712 0.00569307 1.30161e-19)
(-0.276351 0.00556722 2.11671e-19)
(-0.272084 0.00541369 -1.02679e-18)
(-0.267931 0.00523536 -8.89604e-19)
(-0.26391 0.00503532 -8.63495e-19)
(-0.260036 0.00481684 -7.78745e-19)
(-0.256325 0.00458324 -2.2223e-19)
(-0.252787 0.00433776 5.99465e-19)
(-0.249431 0.00408357 6.65386e-19)
(-0.246264 0.0038236 -3.8171e-19)
(-0.243291 0.00356062 -3.68257e-19)
(-0.240516 0.00329711 -8.77533e-19)
(-0.23794 0.00303538 -3.58156e-19)
(-0.235562 0.00277748 1.21238e-20)
(-0.233381 0.00252529 -4.59352e-20)
(-0.231393 0.00228054 2.59095e-19)
(-0.229594 0.00204479 -1.90747e-19)
(-0.227977 0.00181952 -1.55743e-19)
(-0.226535 0.00160603 -1.2109e-19)
(-0.225261 0.00140555 -3.79608e-19)
(-0.224143 0.00121915 -4.06366e-19)
(-0.223173 0.00104773 1.29763e-18)
(-0.222337 0.000892047 1.23754e-20)
(-0.221625 0.000752602 3.66745e-19)
(-0.221022 0.00062965 -3.69678e-19)
(-0.220517 0.000523176 -9.43499e-19)
(-0.220094 0.000432798 -1.10811e-18)
(-0.219742 0.000358105 -1.12915e-18)
(-0.219446 0.000298394 -1.24404e-18)
(-0.219192 0.000252862 -1.64281e-18)
(-0.218969 0.000220726 -8.01802e-19)
(-0.218763 0.000201178 -2.2434e-19)
(-0.218562 0.000193517 -1.25668e-18)
(-0.218355 0.000197189 1.85685e-18)
(-0.218129 0.000212024 -2.44055e-18)
(-0.217873 0.000238117 -8.31657e-19)
(-0.217576 0.000275946 -3.51841e-19)
(-0.217225 0.000326511 -3.14588e-18)
(-0.216807 0.000391141 1.3647e-18)
(-0.216308 0.000471994 -8.13077e-19)
(-0.215714 0.000571587 3.20287e-18)
(-0.215009 0.000693544 -1.53882e-18)
(-0.214171 0.000841566 -8.69418e-19)
(-0.213182 0.00102137 8.36896e-19)
(-0.212012 0.00123807 5.17656e-19)
(-0.210639 0.00150052 -6.54518e-18)
(-0.209019 0.00181513 -2.53375e-18)
(-0.207125 0.00219729 -3.66097e-18)
(-0.204883 0.0026536 1.74122e-18)
(-0.202278 0.00321369 -2.11042e-18)
(-0.19916 0.00388002 2.53266e-18)
(-0.195571 0.00471522 2.44371e-18)
(-0.191175 0.00570486 7.43098e-18)
(-0.186214 0.00698616 5.55643e-18)
(-0.179861 0.00850494 3.61801e-18)
(-0.172969 0.0105285 1.46876e-18)
(-0.16345 0.0130133 -1.79599e-18)
(-0.153785 0.0161978 4.43175e-19)
(-0.139015 0.0207102 4.08307e-18)
(-0.124899 0.0251865 2.14481e-18)
(-0.102257 0.0336708 -3.47782e-18)
(-0.0789775 0.0371371 -9.66495e-19)
(-0.0491104 0.0444498 -5.22539e-19)
(-0.0112068 0.0307739 -1.43881e-18)
(-0.353628 -2.89866e-05 -3.26389e-20)
(-0.353704 -0.000141125 2.54351e-20)
(-0.353939 -0.000318588 -6.53106e-20)
(-0.354363 -0.000481443 2.70687e-19)
(-0.354917 -0.000604222 2.32963e-19)
(-0.355561 -0.000670512 -2.70508e-19)
(-0.35623 -0.000674729 4.92322e-19)
(-0.356867 -0.000618377 4.17099e-19)
(-0.357419 -0.000506111 1.01041e-18)
(-0.35784 -0.000344536 1.89731e-19)
(-0.358089 -0.000140623 -3.6784e-19)
(-0.358136 9.76728e-05 1.0234e-18)
(-0.357952 0.000365111 1.33264e-18)
(-0.357516 0.000654715 1.05938e-18)
(-0.356814 0.000960982 9.49241e-19)
(-0.355835 0.00127879 1.07448e-18)
(-0.354571 0.00160346 1.57916e-18)
(-0.35302 0.00193082 -3.74492e-19)
(-0.351181 0.00225708 -1.28391e-18)
(-0.349059 0.00257879 -3.83798e-20)
(-0.346657 0.00289274 -1.59497e-18)
(-0.343985 0.00319595 -6.11701e-19)
(-0.341052 0.0034856 1.01711e-19)
(-0.337872 0.00375901 8.10583e-19)
(-0.334459 0.00401362 -2.73337e-19)
(-0.33083 0.00424701 9.42185e-19)
(-0.327003 0.0044569 3.29503e-19)
(-0.322999 0.00464121 -5.75746e-19)
(-0.318841 0.00479806 1.80542e-18)
(-0.314551 0.00492589 5.38134e-19)
(-0.310154 0.00502348 -3.5915e-19)
(-0.305677 0.00509001 8.00052e-19)
(-0.301145 0.0051251 -1.93055e-19)
(-0.296586 0.00512882 3.76745e-19)
(-0.292025 0.00510172 1.07428e-20)
(-0.287488 0.00504484 -9.98878e-19)
(-0.283001 0.00495964 -1.2028e-20)
(-0.278587 0.00484802 2.57221e-19)
(-0.274268 0.00471222 -9.39289e-19)
(-0.270065 0.00455478 -8.32819e-19)
(-0.265995 0.00437847 -1.24641e-18)
(-0.262077 0.00418616 -8.48981e-19)
(-0.258322 0.00398078 -3.0873e-19)
(-0.254743 0.00376523 7.12288e-19)
(-0.251348 0.00354227 5.87481e-19)
(-0.248146 0.00331452 -4.66725e-19)
(-0.245141 0.00308439 -4.14352e-19)
(-0.242337 0.0028541 -6.08724e-19)
(-0.239735 0.00262564 -5.63093e-19)
(-0.237334 0.00240084 4.42609e-20)
(-0.235133 0.00218131 -4.05514e-19)
(-0.23313 0.00196854 -2.63011e-20)
(-0.231318 0.0017639 -3.65079e-19)
(-0.229693 0.00156862 -2.65444e-19)
(-0.228248 0.00138383 1.74813e-19)
(-0.226974 0.00121055 -5.59117e-19)
(-0.225862 0.00104967 -2.65745e-19)
(-0.224901 0.000901946 1.0153e-18)
(-0.22408 0.000767977 -2.02483e-19)
(-0.223386 0.00064815 9.32423e-19)
(-0.222808 0.000542639 -2.00719e-19)
(-0.222332 0.000451368 -8.94523e-19)
(-0.221944 0.000373919 -1.1793e-18)
(-0.22163 0.000309884 -1.15364e-18)
(-0.221378 0.000258591 -7.50014e-19)
(-0.221173 0.000219278 -1.90208e-18)
(-0.221002 0.000191234 -1.04868e-18)
(-0.220854 0.000173723 -7.91496e-19)
(-0.220714 0.000166104 -2.05656e-18)
(-0.220573 0.000167858 1.81427e-18)
(-0.220416 0.000178843 -2.0631e-18)
(-0.220234 0.000199131 -1.35332e-18)
(-0.220014 0.000229142 1.58637e-20)
(-0.219743 0.000269771 -2.77773e-18)
(-0.219409 0.000322186 3.0924e-19)
(-0.218998 0.00038833 -5.58024e-19)
(-0.218494 0.000470465 2.49904e-18)
(-0.217881 0.000571836 -6.08805e-19)
(-0.21714 0.000695739 -1.16416e-18)
(-0.216248 0.000847288 -3.97156e-19)
(-0.215179 0.00103103 -4.10296e-20)
(-0.213908 0.00125479 -7.10188e-18)
(-0.212389 0.00152422 -3.32607e-18)
(-0.210597 0.0018529 -3.61821e-18)
(-0.208454 0.00224658 3.1675e-19)
(-0.205945 0.00273139 -2.35333e-18)
(-0.202914 0.00330938 3.35766e-18)
(-0.199407 0.00403569 2.16737e-18)
(-0.19507 0.00489766 5.43052e-18)
(-0.190156 0.00601552 4.01902e-18)
(-0.183802 0.00734364 2.65694e-18)
(-0.176882 0.00911233 1.20874e-18)
(-0.16724 0.0112961 -2.60163e-18)
(-0.15737 0.0140803 8.12836e-19)
(-0.142262 0.0180649 5.90242e-18)
(-0.127507 0.0219878 1.24408e-18)
(-0.104184 0.029457 -2.96454e-19)
(-0.0795635 0.0325916 -7.68943e-19)
(-0.048507 0.0387703 -4.67975e-19)
(-0.0107949 0.0270143 -2.17263e-18)
(-0.356928 -2.32017e-05 -1.99563e-20)
(-0.356995 -0.000116491 -8.15344e-21)
(-0.357214 -0.000265235 -1.37548e-19)
(-0.357613 -0.000402527 1.65875e-19)
(-0.35814 -0.000506954 2.2398e-19)
(-0.358756 -0.000564078 -3.11884e-19)
(-0.359395 -0.000568862 6.3421e-19)
(-0.360005 -0.000522287 6.48809e-19)
(-0.360529 -0.000428099 1.48053e-18)
(-0.360922 -0.000291776 2.01244e-19)
(-0.361145 -0.000119138 -3.29042e-19)
(-0.361164 8.29378e-05 1.2014e-18)
(-0.360951 0.000310087 1.09367e-18)
(-0.360487 0.000556433 1.07995e-18)
(-0.359755 0.000817245 2.15648e-18)
(-0.358743 0.00108813 1.34724e-18)
(-0.357446 0.00136505 1.09271e-18)
(-0.35586 0.00164442 -3.59585e-19)
(-0.353985 0.00192296 -5.64244e-19)
(-0.351824 0.00219769 5.08702e-19)
(-0.349383 0.00246583 -6.93446e-19)
(-0.346669 0.00272481 -5.42503e-19)
(-0.343693 0.00297217 7.27144e-19)
(-0.340469 0.0032056 7.68211e-19)
(-0.33701 0.00342289 -4.74021e-19)
(-0.333334 0.00362193 1.47882e-18)
(-0.32946 0.00380078 -1.34582e-20)
(-0.325408 0.00395762 1.05235e-19)
(-0.3212 0.00409085 1.83397e-18)
(-0.316861 0.00419914 9.18679e-19)
(-0.312415 0.00428142 -7.30234e-19)
(-0.307888 0.00433701 4.63004e-19)
(-0.303307 0.00436558 -9.96485e-20)
(-0.298698 0.00436722 4.24499e-19)
(-0.294088 0.00434241 2.82776e-20)
(-0.289504 0.00429207 -7.93133e-19)
(-0.284969 0.00421747 -6.41331e-20)
(-0.280509 0.00412028 3.64341e-19)
(-0.276146 0.00400246 -4.55241e-19)
(-0.271899 0.00386621 -8.95702e-19)
(-0.267789 0.00371393 -1.31011e-18)
(-0.26383 0.00354815 -4.91856e-19)
(-0.260038 0.00337139 -4.17033e-19)
(-0.256423 0.00318617 4.97177e-19)
(-0.252996 0.0029949 5.84823e-19)
(-0.249763 0.00279983 -6.81073e-19)
(-0.24673 0.00260305 -5.51747e-19)
(-0.2439 0.00240648 -4.68894e-19)
(-0.241275 0.00221184 -8.68178e-19)
(-0.238854 0.00202068 1.1737e-19)
(-0.236636 0.00183437 -8.44219e-19)
(-0.234618 0.00165418 -3.1829e-19)
(-0.232796 0.00148125 -8.72604e-20)
(-0.231164 0.0013166 -4.035e-19)
(-0.229715 0.00116116 -1.08444e-19)
(-0.228441 0.00101576 -2.49333e-19)
(-0.227332 0.000881101 -7.95335e-19)
(-0.226379 0.000757775 9.62251e-19)
(-0.22557 0.000646236 -5.03331e-19)
(-0.224893 0.000546746 9.03693e-19)
(-0.224335 0.0004594 -1.49955e-19)
(-0.223883 0.000384051 -1.61342e-19)
(-0.223523 0.000320247 -1.43468e-18)
(-0.223243 0.000267583 -3.61561e-19)
(-0.223027 0.000225415 -3.79809e-19)
(-0.222863 0.000193018 -1.4219e-18)
(-0.222738 0.000169755 -1.40919e-18)
(-0.222638 0.000154958 -1.58336e-18)
(-0.222551 0.000148043 -3.2444e-18)
(-0.222465 0.000148527 8.70359e-19)
(-0.222368 0.000156298 -2.20834e-18)
(-0.222247 0.00017141 -2.06793e-18)
(-0.222092 0.000194229 -1.18701e-18)
(-0.22189 0.000225547 -2.96696e-18)
(-0.221628 0.000266373 -5.54837e-19)
(-0.221291 0.000318429 -4.27533e-19)
(-0.220864 0.000383724 2.2798e-18)
(-0.220331 0.000465118 7.70116e-20)
(-0.21967 0.000565498 -1.66231e-18)
(-0.218863 0.000689363 -1.59506e-18)
(-0.217879 0.000840671 -6.32301e-19)
(-0.216694 0.00102619 -6.74781e-18)
(-0.215261 0.00125081 -4.39676e-18)
(-0.213557 0.0015262 -4.14734e-18)
(-0.211497 0.00185729 -7.14429e-19)
(-0.209071 0.00226649 -3.05706e-18)
(-0.206114 0.0027555 2.26965e-18)
(-0.202677 0.00337153 -6.84578e-19)
(-0.19839 0.00410381 4.54363e-18)
(-0.193516 0.00505479 2.99309e-18)
(-0.18716 0.00618711 1.90518e-18)
(-0.180216 0.00769375 9.20643e-19)
(-0.170471 0.00956363 -3.95495e-18)
(-0.160424 0.0119349 1.38377e-18)
(-0.145033 0.0153607 5.64843e-18)
(-0.129725 0.018708 3.18361e-19)
(-0.105824 0.0251136 -3.88072e-19)
(-0.0800705 0.0278692 -7.00197e-19)
(-0.0479653 0.0330097 -5.46999e-19)
(-0.0104233 0.0231893 -3.37563e-18)
(-0.359684 -1.81462e-05 -1.34083e-20)
(-0.359743 -9.37056e-05 5.38312e-20)
(-0.359949 -0.000214898 -5.32074e-20)
(-0.360329 -0.000327461 1.1239e-19)
(-0.360834 -0.000413897 2.51777e-19)
(-0.361426 -0.000461963 -4.21208e-19)
(-0.362041 -0.000467275 4.85899e-19)
(-0.362627 -0.000430381 4.43575e-19)
(-0.363128 -0.000354181 1.54285e-18)
(-0.363499 -0.000243054 7.24368e-20)
(-0.363699 -0.000101704 -3.79102e-19)
(-0.363695 6.41196e-05 8.61846e-19)
(-0.363459 0.000250872 1.0206e-18)
(-0.36297 0.000453812 1.2941e-18)
(-0.362213 0.000668977 2.67508e-18)
(-0.361175 0.000892713 6.7249e-19)
(-0.35985 0.00112165 7.31843e-19)
(-0.358235 0.00135277 -5.21498e-19)
(-0.356329 0.00158333 -1.03467e-18)
(-0.354136 0.00181082 4.07638e-20)
(-0.351661 0.0020329 -1.56038e-20)
(-0.348913 0.00224739 -5.69672e-19)
(-0.345901 0.00245223 3.92794e-19)
(-0.34264 0.00264546 7.65547e-19)
(-0.339143 0.00282522 -7.8407e-19)
(-0.335428 0.00298975 1.27501e-18)
(-0.331514 0.00313739 5.58264e-19)
(-0.327421 0.00326663 8.55801e-19)
(-0.323173 0.00337613 1.20627e-18)
(-0.318792 0.00346476 3.89394e-19)
(-0.314305 0.00353167 -1.31133e-18)
(-0.309736 0.00357627 2.86583e-19)
(-0.305114 0.00359831 -6.90659e-20)
(-0.300464 0.00359787 -2.5785e-19)
(-0.295813 0.00357539 -7.74872e-19)
(-0.291188 0.00353165 -7.66361e-19)
(-0.286614 0.00346777 -7.40582e-20)
(-0.282116 0.00338514 -1.27222e-19)
(-0.277715 0.00328545 -7.17569e-19)
(-0.273432 0.00317059 -5.90836e-19)
(-0.269287 0.00304259 -1.06935e-18)
(-0.265295 0.00290358 -7.04086e-19)
(-0.261471 0.00275573 -5.52038e-19)
(-0.257827 0.00260116 4.52758e-19)
(-0.254372 0.00244192 1.74774e-19)
(-0.251113 0.00227989 -6.21468e-19)
(-0.248056 0.00211686 -7.597e-19)
(-0.245204 0.00195441 -4.19667e-19)
(-0.242559 0.001794 -8.41454e-19)
(-0.240122 0.00163692 -2.3609e-19)
(-0.237889 0.0014843 -9.70595e-19)
(-0.23586 0.00133718 -6.106e-19)
(-0.234028 0.00119647 -3.61659e-19)
(-0.232389 0.001063 -6.58818e-19)
(-0.230937 0.000937483 -3.69385e-19)
(-0.229662 0.000820555 2.53346e-20)
(-0.228556 0.000712744 -8.2169e-19)
(-0.227609 0.000614465 4.54781e-19)
(-0.226809 0.000526026 -2.18858e-19)
(-0.226145 0.000447556 2.97207e-19)
(-0.225603 0.000379068 -1.77886e-19)
(-0.225171 0.000320337 -3.744e-19)
(-0.224836 0.000270867 -1.97727e-18)
(-0.224582 0.000230252 4.38408e-19)
(-0.224397 0.000197871 -8.61557e-20)
(-0.224267 0.000173032 -2.31957e-18)
(-0.224178 0.000155166 -8.25411e-19)
(-0.224118 0.000143678 -1.31532e-18)
(-0.224075 0.000138042 -3.70886e-18)
(-0.224035 0.000137812 2.56322e-19)
(-0.223987 0.000142913 -2.94772e-18)
(-0.223918 0.000153383 -3.19215e-18)
(-0.223818 0.000169533 -2.47066e-18)
(-0.223672 0.000192057 -3.70915e-18)
(-0.223469 0.000221797 -1.31137e-18)
(-0.223193 0.000260255 -3.04379e-19)
(-0.22283 0.000309187 6.75062e-19)
(-0.222363 0.00037106 5.33796e-19)
(-0.22177 0.000448348 -2.4933e-18)
(-0.221032 0.000544922 -3.01522e-18)
(-0.220118 0.000664155 -1.2413e-18)
(-0.219005 0.000811723 -5.50367e-18)
(-0.217644 0.000991744 -6.07694e-18)
(-0.216011 0.00121394 -5.18594e-18)
(-0.214021 0.00148241 -1.67013e-18)
(-0.211663 0.00181571 -4.35641e-18)
(-0.208769 0.00221523 1.84022e-18)
(-0.205388 0.00271993 -1.01701e-18)
(-0.201144 0.00332103 4.62488e-18)
(-0.196303 0.00410257 2.34476e-18)
(-0.189947 0.0050353 1.44793e-18)
(-0.182983 0.00627471 8.32281e-19)
(-0.173153 0.00782078 -6.286e-18)
(-0.162958 0.00977015 2.50329e-18)
(-0.147336 0.0126118 6.53835e-18)
(-0.131564 0.0153667 -7.65575e-19)
(-0.107188 0.0206679 -4.32388e-19)
(-0.0804997 0.022998 -7.5024e-19)
(-0.0474983 0.0271591 -4.68828e-19)
(-0.0100985 0.0192597 -2.77346e-18)
(-0.361892 -1.36503e-05 -7.41617e-21)
(-0.361945 -7.23605e-05 1.28379e-19)
(-0.362142 -0.000166955 1.16159e-20)
(-0.362506 -0.000255478 9.71422e-20)
(-0.362994 -0.000324231 2.94126e-19)
(-0.363567 -0.000363344 -2.15941e-19)
(-0.364163 -0.000369156 4.69819e-19)
(-0.36473 -0.000341867 3.46787e-19)
(-0.365213 -0.000283579 1.2524e-18)
(-0.365566 -0.0001976 -1.74542e-19)
(-0.365748 -8.75443e-05 -5.02634e-19)
(-0.365725 4.20268e-05 7.19854e-19)
(-0.365471 0.000188261 1.12663e-18)
(-0.364962 0.000347673 1.77446e-18)
(-0.364184 0.000517031 2.65692e-18)
(-0.363126 0.00069343 9.75152e-19)
(-0.361779 0.00087417 1.51328e-18)
(-0.36014 0.00105683 -8.2785e-19)
(-0.35821 0.00123919 -5.39614e-19)
(-0.355991 0.00141922 -3.88912e-19)
(-0.353489 0.00159503 6.45332e-19)
(-0.350713 0.00176484 -6.90954e-19)
(-0.347672 0.00192697 2.10782e-19)
(-0.344381 0.00207982 9.28812e-19)
(-0.340854 0.00222189 -1.30946e-18)
(-0.337107 0.00235174 1.40978e-18)
(-0.333161 0.00246803 1.15166e-18)
(-0.329037 0.00256955 7.00135e-19)
(-0.324755 0.00265521 8.43065e-19)
(-0.320342 0.00272412 7.2836e-19)
(-0.315821 0.00277558 -1.28074e-18)
(-0.311219 0.00280914 2.70115e-19)
(-0.306563 0.00282462 -5.65819e-20)
(-0.30188 0.00282211 -1.76103e-19)
(-0.297197 0.00280198 -9.78105e-19)
(-0.29254 0.0027649 -8.19009e-19)
(-0.287934 0.00271179 -3.79269e-20)
(-0.283405 0.00264383 -6.21995e-19)
(-0.278974 0.0025624 -5.1562e-19)
(-0.274662 0.00246908 -3.49875e-19)
(-0.270489 0.00236553 -4.84198e-19)
(-0.26647 0.00225352 -4.54936e-19)
(-0.26262 0.00213481 -7.5876e-19)
(-0.258952 0.00201115 5.22871e-19)
(-0.255474 0.0018842 2.47383e-19)
(-0.252194 0.00175551 -2.43376e-19)
(-0.249118 0.00162652 -6.25774e-19)
(-0.246249 0.00149852 -4.19859e-19)
(-0.243588 0.00137268 -9.61411e-19)
(-0.241137 0.00125005 -5.94977e-19)
(-0.238892 0.00113151 -1.30704e-18)
(-0.236853 0.00101787 -4.62532e-19)
(-0.235013 0.000909833 -6.59246e-19)
(-0.233369 0.000808 -4.31596e-19)
(-0.231913 0.000712896 -6.21515e-20)
(-0.230638 0.000624956 3.19216e-19)
(-0.229534 0.000544524 -3.51324e-19)
(-0.228591 0.000471843 7.12552e-20)
(-0.227799 0.000407063 -2.21031e-20)
(-0.227145 0.00035018 -2.64068e-19)
(-0.226616 0.000301119 -2.74276e-19)
(-0.2262 0.00025957 -6.83643e-19)
(-0.225882 0.000225 -1.99051e-18)
(-0.22565 0.000196972 4.76556e-19)
(-0.225489 0.000174902 1.3567e-19)
(-0.225386 0.000158126 -2.61229e-18)
(-0.225327 0.000146149 -2.39654e-19)
(-0.225299 0.000138448 -7.89026e-20)
(-0.22529 0.000134557 -3.44658e-18)
(-0.225287 0.000134069 -1.11625e-19)
(-0.225278 0.000136949 -2.85293e-18)
(-0.22525 0.000143223 -3.1529e-18)
(-0.225193 0.000153152 -2.51161e-18)
(-0.225093 0.00016733 -3.43536e-18)
(-0.224936 0.000186432 -2.13439e-18)
(-0.22471 0.000211735 -1.97551e-18)
(-0.224397 0.000244739 1.1971e-18)
(-0.223982 0.00028751 1.1067e-18)
(-0.223443 0.000342097 -3.83765e-18)
(-0.22276 0.000411742 -2.6457e-18)
(-0.221903 0.000499231 -1.97904e-18)
(-0.220846 0.000609127 -5.34412e-18)
(-0.219543 0.000744779 -6.19061e-18)
(-0.217967 0.000913903 -4.34925e-18)
(-0.216033 0.00111979 -2.61598e-18)
(-0.21373 0.00137701 -6.49444e-18)
(-0.210884 0.00168671 -7.24822e-19)
(-0.20755 0.00207928 -1.59216e-18)
(-0.203339 0.00254807 2.79335e-18)
(-0.198526 0.00315825 1.80565e-18)
(-0.192169 0.0038884 1.17613e-18)
(-0.18519 0.0048568 6.48661e-19)
(-0.175294 0.00607123 -6.67367e-18)
(-0.164981 0.00759236 1.33306e-18)
(-0.149177 0.00982911 5.54347e-18)
(-0.133034 0.0119795 -2.47715e-18)
(-0.10828 0.0161434 -5.9938e-19)
(-0.0808505 0.0180066 -9.00169e-19)
(-0.0471144 0.0212306 -5.96117e-19)
(-0.00982606 0.0152258 -2.94776e-18)
(-0.36355 -9.56779e-06 -1.08605e-21)
(-0.363599 -5.20986e-05 1.31336e-19)
(-0.363789 -0.000120841 7.1435e-20)
(-0.364142 -0.000185869 1.11059e-19)
(-0.364616 -0.000237193 3.89878e-19)
(-0.365175 -0.000267441 -8.21888e-20)
(-0.365758 -0.000273736 5.81818e-19)
(-0.366311 -0.00025599 3.02282e-19)
(-0.36678 -0.000215547 1.19072e-18)
(-0.367119 -0.00015467 1.08924e-19)
(-0.367287 -7.59004e-05 1.14556e-19)
(-0.367251 1.79675e-05 8.25748e-19)
(-0.366982 0.000123144 1.43174e-18)
(-0.366459 0.000238858 1.65243e-18)
(-0.365667 0.000362246 2.05464e-18)
(-0.364592 0.000491137 1.27294e-18)
(-0.363228 0.000623509 1.41861e-18)
(-0.361572 0.000757538 -3.75317e-19)
(-0.359623 0.000891537 -7.37751e-20)
(-0.357385 0.00102396 -8.09819e-19)
(-0.354863 0.00115335 1.49268e-18)
(-0.352066 0.00127835 -9.76366e-19)
(-0.349004 0.00139763 1.59323e-19)
(-0.34569 0.00150999 1.23783e-18)
(-0.34214 0.00161424 -2.14679e-18)
(-0.33837 0.00170931 8.78979e-19)
(-0.3344 0.00179417 8.31057e-19)
(-0.330251 0.00186788 6.70214e-19)
(-0.325945 0.00192963 6.38186e-19)
(-0.321506 0.00197874 1.18549e-18)
(-0.31696 0.0020147 -1.55794e-18)
(-0.312334 0.00203719 4.25922e-19)
(-0.307653 0.00204608 -8.39958e-20)
(-0.302945 0.00204148 -1.37633e-19)
(-0.298237 0.00202371 -1.3801e-18)
(-0.293556 0.00199331 -2.90275e-19)
(-0.288926 0.00195103 1.1018e-20)
(-0.284373 0.0018978 -6.27244e-19)
(-0.27992 0.00183473 -4.19298e-19)
(-0.275586 0.00176305 -1.77854e-19)
(-0.271392 0.00168409 2.15093e-20)
(-0.267353 0.00159921 -2.73496e-19)
(-0.263484 0.0015098 -6.07071e-19)
(-0.259797 0.00141722 8.05572e-19)
(-0.256302 0.00132275 3.52677e-19)
(-0.253007 0.0012276 5.19457e-20)
(-0.249916 0.00113285 -6.34324e-19)
(-0.247033 0.00103951 -4.97084e-19)
(-0.244361 0.000948496 -7.92682e-19)
(-0.241898 0.000860588 -5.28151e-19)
(-0.239645 0.000776448 -1.39684e-18)
(-0.237598 0.00069664 -3.5012e-19)
(-0.235752 0.000621643 -5.61185e-19)
(-0.234104 0.00055185 -2.50207e-19)
(-0.232645 0.000487576 2.25154e-19)
(-0.231369 0.000429055 6.94615e-19)
(-0.230266 0.000376441 -6.58834e-19)
(-0.229327 0.000329799 -2.69665e-19)
(-0.22854 0.000289124 1.57441e-19)
(-0.227893 0.000254264 -8.69233e-19)
(-0.227374 0.000225063 -4.16571e-19)
(-0.226969 0.000201118 -2.23514e-19)
(-0.226666 0.000181882 -1.42751e-18)
(-0.226449 0.000166873 7.42058e-19)
(-0.226307 0.000155537 3.50646e-19)
(-0.226223 0.00014724 -2.33779e-18)
(-0.226186 0.00014156 4.23233e-19)
(-0.226182 0.000138047 1.15447e-18)
(-0.226199 0.000136288 -2.61651e-18)
(-0.226223 0.000135912 -3.43261e-19)
(-0.226243 0.000136927 -1.92499e-18)
(-0.226247 0.000139351 -3.68569e-18)
(-0.226221 0.0001434 -2.89666e-18)
(-0.226155 0.000149574 -3.77484e-18)
(-0.226034 0.000158382 -3.2365e-18)
(-0.225844 0.000170875 -2.07793e-18)
(-0.22557 0.000188304 2.07354e-18)
(-0.225194 0.000212328 1.80749e-18)
(-0.224695 0.000244604 -4.04962e-18)
(-0.224053 0.000287705 -2.61216e-18)
(-0.223237 0.000343831 -3.11865e-18)
(-0.222224 0.000416409 -3.97787e-18)
(-0.220963 0.00050801 -4.78855e-18)
(-0.21943 0.000624296 -4.15283e-18)
(-0.217538 0.000767746 -3.93862e-18)
(-0.215275 0.000948856 -7.13229e-18)
(-0.212466 0.00116853 -3.13202e-19)
(-0.209167 0.00144847 4.18599e-19)
(-0.204981 0.00178413 1.65888e-18)
(-0.200189 0.00222166 1.49297e-18)
(-0.193832 0.0027471 1.0415e-18)
(-0.186843 0.0034422 5.73024e-19)
(-0.176897 0.00431974 -5.49445e-18)
(-0.166498 0.00540923 7.73984e-19)
(-0.150559 0.00702598 2.65782e-18)
(-0.134139 0.0085647 -1.97628e-18)
(-0.109103 0.0115666 -8.42572e-19)
(-0.0811202 0.0129289 -1.22053e-18)
(-0.0468193 0.015241 -6.73907e-19)
(-0.00961187 0.0110804 -3.90617e-18)
(-0.364657 -5.77429e-06 8.86589e-21)
(-0.364704 -3.26105e-05 6.02798e-20)
(-0.364889 -7.60508e-05 1.49208e-19)
(-0.365234 -0.00011799 1.58179e-19)
(-0.3657 -0.000152088 5.5636e-19)
(-0.36625 -0.000173554 3.64597e-20)
(-0.366823 -0.000180334 8.26562e-19)
(-0.367367 -0.000172096 3.43724e-19)
(-0.367827 -0.000149446 1.33409e-18)
(-0.368156 -0.00011366 3.31157e-19)
(-0.368315 -6.62361e-05 7.87714e-19)
(-0.36827 -8.66752e-06 1.13105e-18)
(-0.367992 5.64206e-05 1.11145e-18)
(-0.367459 0.000128144 1.81628e-18)
(-0.366656 0.000205392 1.78555e-18)
(-0.365571 0.000286646 1.68588e-18)
(-0.364196 0.000370534 1.52703e-18)
(-0.362528 0.000455821 -1.64879e-19)
(-0.360567 0.000541356 -7.64104e-19)
(-0.358316 0.000626074 -1.35165e-18)