/*--------------------------------*- C++ -*----------------------------------*\
  =========                 |
  \\      /  F ield         | OpenFOAM: The Open Source CFD Toolbox
   \\    /   O peration     | Website:  https://openfoam.org
    \\  /    A nd           | Version:  7
     \\/     M anipulation  |
\*---------------------------------------------------------------------------*/
FoamFile
{
    version     2.0;
    format      ascii;
    class       volVectorField;
    location    "96";
    object      U;
}
// * * * * * * * * * * * * * * * * * * * * * * * * * * * * * * * * * * * * * //

dimensions      [0 1 -1 0 0 0 0];

internalField   nonuniform List<vector> 
175
(
(-0.191965 0.00210593 -2.66963e-18)
(-0.19062 0.00151395 -1.71358e-18)
(-0.189328 0.000974215 2.5737e-19)
(-0.18808 0.000496722 2.35815e-18)
(-0.186859 9.83574e-05 1.66345e-18)
(-0.185661 -0.000251191 7.22863e-19)
(-0.184473 -0.0005156 9.92419e-19)
(-0.183277 -0.000695974 -8.84942e-19)
(-0.182064 -0.000791869 2.93812e-18)
(-0.180819 -0.000802504 -6.61983e-19)
(-0.179532 -0.000728988 8.77467e-19)
(-0.178189 -0.000573393 5.38259e-19)
(-0.176779 -0.000342354 -1.57443e-18)
(-0.175291 -3.73763e-05 5.74939e-19)
(-0.173709 0.000321415 2.54934e-18)
(-0.172026 0.000735134 3.6653e-18)
(-0.170234 0.0011956 4.28795e-18)
(-0.195778 0.00194877 -1.69801e-18)
(-0.194478 0.00136457 -2.20606e-18)
(-0.193239 0.00083077 8.75834e-20)
(-0.192051 0.000357765 2.87382e-18)
(-0.190903 -3.97952e-05 1.57932e-18)
(-0.189785 -0.000393382 2.2001e-19)
(-0.188687 -0.000660392 7.01132e-19)
(-0.187591 -0.000846002 -1.99222e-19)
(-0.186486 -0.000949246 2.66887e-18)
(-0.185362 -0.000969369 -1.36086e-18)
(-0.184204 -0.000907445 7.36488e-19)
(-0.183002 -0.000765681 7.76553e-20)
(-0.181742 -0.000550467 -1.58938e-18)
(-0.180419 -0.000261024 1.44025e-19)
(-0.179012 0.000103585 1.48114e-18)
(-0.177511 0.000485107 2.82418e-18)
(-0.175913 0.000925282 5.61593e-18)
(-0.199396 0.00179935 -1.06134e-18)
(-0.198135 0.00122326 -1.95859e-18)
(-0.196944 0.000695429 1.04888e-18)
(-0.195812 0.000226253 2.70916e-18)
(-0.194729 -0.000178199 1.69334e-18)
(-0.193685 -0.000525457 8.19483e-19)
(-0.19267 -0.000793058 5.53465e-19)
(-0.191665 -0.00098214 4.9278e-19)
(-0.190663 -0.00109103 2.63711e-18)
(-0.189649 -0.00111894 -1.18094e-18)
(-0.188612 -0.00106678 -3.92841e-19)
(-0.187541 -0.00093675 -3.06637e-19)
(-0.186422 -0.000734794 -1.93767e-18)
(-0.185248 -0.000463572 -3.33142e-19)
(-0.184007 -0.000108518 5.36331e-19)
(-0.182679 0.000261162 2.31716e-18)
(-0.181261 0.000685194 6.32546e-18)
(-0.20282 0.00165012 -7.35896e-19)
(-0.201594 0.00108341 -1.93574e-18)
(-0.200446 0.00056317 1.22693e-18)
(-0.199366 0.000102555 2.94133e-18)
(-0.198342 -0.000304381 1.92538e-18)
(-0.197366 -0.000648324 4.73298e-19)
(-0.196426 -0.00091633 1.50273e-18)
(-0.195507 -0.00110792 1.04299e-18)
(-0.194598 -0.00122122 1.82053e-18)
(-0.193687 -0.00125546 -1.25606e-18)
(-0.192763 -0.00121143 -3.1623e-19)
(-0.191813 -0.00109132 -9.21369e-19)
(-0.190824 -0.000900404 -1.22466e-18)
(-0.189792 -0.000643261 6.13776e-19)
(-0.188701 -0.00031705 -2.17849e-19)
(-0.187533 6.84852e-05 2.255e-18)
(-0.186285 0.000467904 6.49166e-18)
(-0.206052 0.00150395 -5.53965e-19)
(-0.204858 0.000948011 -2.17678e-18)
(-0.203749 0.000437054 7.31081e-19)
(-0.202715 -1.48943e-05 2.60141e-18)
(-0.201746 -0.000421048 1.20819e-18)
(-0.200832 -0.000761278 1.74066e-20)
(-0.199961 -0.00102845 1.54449e-18)
(-0.19912 -0.00122126 6.55907e-19)
(-0.198298 -0.00133767 1.29082e-18)
(-0.197482 -0.00137689 -1.58269e-18)
(-0.196661 -0.00133957 -1.63433e-19)
(-0.195823 -0.00122792 -1.61703e-18)
(-0.194956 -0.00104653 -2.01775e-18)
(-0.194054 -0.00080107 1.52002e-18)
(-0.193102 -0.000486335 -1.05521e-18)
(-0.192085 -0.000114218 2.46709e-18)
(-0.190997 0.000274005 4.66522e-18)
(-0.209095 0.00136107 -5.88526e-19)
(-0.20793 0.000816955 -1.77196e-18)
(-0.206854 0.000316363 4.19098e-19)
(-0.205864 -0.0001318 1.55266e-18)
(-0.204945 -0.00053009 1.59795e-18)
(-0.204086 -0.000865496 -4.05907e-19)
(-0.203279 -0.00113053 1.86145e-18)
(-0.202509 -0.0013233 2.36629e-19)
(-0.201766 -0.00144154 1.03401e-18)
(-0.201038 -0.00148445 -1.09176e-18)
(-0.200312 -0.00145256 -2.22057e-20)
(-0.199579 -0.00134806 -2.49992e-18)
(-0.198824 -0.00117488 -1.65255e-18)
(-0.198042 -0.000939648 1.55095e-18)
(-0.197219 -0.000637345 -2.08214e-18)
(-0.196341 -0.000287235 1.87816e-18)
(-0.1954 0.000110322 3.2643e-18)
(-0.211951 0.0012207 1.92965e-19)
(-0.210811 0.000689382 -1.61445e-18)
(-0.209767 0.000200421 2.34272e-19)
(-0.208814 -0.000243408 7.51819e-19)
(-0.20794 -0.000632159 2.17845e-18)
(-0.207132 -0.000961889 1.27881e-19)
(-0.206383 -0.00122365 2.54616e-18)
(-0.205679 -0.00141518 -2.15276e-19)
(-0.205008 -0.00153405 8.76959e-19)
(-0.20436 -0.00157944 -8.05463e-19)
(-0.203722 -0.00155172 -1.12259e-18)
(-0.203085 -0.00145312 -2.55934e-18)
(-0.202433 -0.00128691 -1.3938e-18)
(-0.201763 -0.00106053 1.93882e-18)
(-0.201059 -0.000769003 -2.05764e-18)
(-0.200307 -0.000429449 1.62558e-18)
(-0.199505 -3.99367e-05 2.43145e-18)
(-0.214622 0.00108238 9.00167e-19)
(-0.213503 0.000564785 -7.01449e-19)
(-0.212487 9.07167e-05 1.79917e-19)
(-0.211569 -0.000347816 -9.789e-19)
(-0.210735 -0.000728055 1.95037e-18)
(-0.209973 -0.00105124 5.34569e-19)
(-0.209277 -0.00130865 1.26543e-18)
(-0.208632 -0.00149785 -8.84628e-19)
(-0.208028 -0.00161624 9.50797e-19)
(-0.207453 -0.00166295 -6.76475e-19)
(-0.206896 -0.00163821 -2.37526e-18)
(-0.206346 -0.0015443 -1.70565e-18)
(-0.20579 -0.00138385 -1.19633e-18)
(-0.205222 -0.00116492 1.33225e-18)
(-0.204628 -0.000882625 -2.64484e-18)
(-0.203994 -0.000553792 1.79446e-18)
(-0.203317 -0.000180833 1.82464e-18)
(-0.21711 0.000945976 6.4089e-19)
(-0.21601 0.000443141 -9.53718e-19)
(-0.215019 -1.68453e-05 1.64523e-19)
(-0.214131 -0.000447695 -1.85884e-18)
(-0.213333 -0.000818876 1.10166e-18)
(-0.212613 -0.00113481 1.00728e-18)
(-0.211965 -0.00138712 1.26568e-18)
(-0.211374 -0.00157316 -1.65075e-18)
(-0.21083 -0.00169023 -1.19389e-19)
(-0.210322 -0.00173738 -1.8161e-18)
(-0.209838 -0.00171471 -2.75881e-18)
(-0.209368 -0.00162447 -7.87228e-19)
(-0.208899 -0.00146878 -1.11442e-18)
(-0.208425 -0.00125607 -3.5963e-19)
(-0.207932 -0.000981634 -2.16571e-18)
(-0.207406 -0.000661408 7.64099e-19)
(-0.206844 -0.000298265 1.3474e-19)
(-0.219415 0.000810573 3.42693e-19)
(-0.218332 0.000323593 -3.54561e-19)
(-0.217364 -0.000126863 -7.88428e-19)
(-0.216503 -0.000544073 -2.98334e-18)
(-0.215737 -0.000905315 1.62283e-18)
(-0.215055 -0.00121306 1.53536e-18)
(-0.214449 -0.00145928 1.41817e-18)
(-0.213907 -0.00164122 -2.76937e-18)
(-0.213417 -0.00175606 -1.10088e-18)
(-0.21297 -0.00180282 -3.46944e-18)
(-0.212553 -0.00178146 -3.39305e-18)
(-0.212156 -0.00169425 -1.27682e-18)
(-0.170416 -0.000132538 2.00128e-19)
(-0.168899 -0.000204647 2.38291e-18)
(-0.167323 -0.000186485 3.82232e-19)
(-0.165675 -7.89788e-05 1.61852e-18)
(-0.163944 0.000115931 2.07192e-18)
(-0.162114 0.000393522 1.56148e-18)
(-0.16017 0.000745605 2.26714e-18)
(-0.15811 0.00113721 2.86025e-18)
(-0.155927 0.00161244 3.402e-18)
(-0.153602 0.00213642 2.07936e-18)
)
;

boundaryField
{
    inlet
    {
        type            uniformFixedValue;
        uniformValue    constant (1 0 0);
        value           nonuniform 0();
    }
    outlet
    {
        type            pressureInletOutletVelocity;
        value           nonuniform 0();
    }
    polygon
    {
        type            fixedValue;
        value           nonuniform 0();
    }
    top
    {
        type            symmetryPlane;
    }
    bottom
    {
        type            symmetryPlane;
    }
    outside
    {
        type            zeroGradient;
    }
    procBoundary44to36
    {
        type            processor;
        value           nonuniform List<vector> 
18
(
(-0.221649 0.000664562 5.3778e-20)
(-0.220578 0.000195075 -8.56675e-19)
(-0.219628 -0.000242736 -8.57664e-19)
(-0.218789 -0.000640606 -3.48906e-18)
(-0.21805 -0.000987615 2.58196e-18)
(-0.2174 -0.00128306 1.04697e-18)
(-0.216831 -0.0015192 5.96363e-19)
(-0.216331 -0.00169312 -3.30498e-18)
(-0.21589 -0.00180198 -2.14833e-18)
(-0.215496 -0.00184472 -4.4462e-18)
(-0.215137 -0.00182124 -4.48191e-18)
(-0.214805 -0.00173381 -1.81054e-18)
(-0.211766 -0.00154284 -1.04256e-18)
(-0.211377 -0.00133595 -8.00359e-19)
(-0.210976 -0.00106924 -1.95175e-18)
(-0.210549 -0.00075771 -1.02334e-19)
(-0.210091 -0.000405255 -2.06686e-19)
(-0.211766 -0.00154284 -1.04256e-18)
)
;
    }
    procBoundary44to43
    {
        type            processor;
        value           nonuniform List<vector> 8((-0.174204 0.00140657 -3.16157e-21) (-0.179743 0.00114835 -5.13987e-19) (-0.184947 0.000913001 2.40655e-19) (-0.189824 0.000703763 4.3915e-19) (-0.194383 0.000519576 6.32279e-19) (-0.198633 0.000357392 7.90077e-19) (-0.202579 0.000214855 -6.12629e-19) (-0.206229 9.95509e-05 -6.97639e-19));
    }
    procBoundary44to45
    {
        type            processor;
        value           nonuniform List<vector> 10((-0.193373 0.00274139 1.39197e-18) (-0.197151 0.00257464 1.34778e-18) (-0.200737 0.00241514 1.49797e-18) (-0.204132 0.00225477 1.80514e-18) (-0.20734 0.00209618 2.31868e-18) (-0.210362 0.00193983 2.20698e-18) (-0.213199 0.00178505 2.35449e-18) (-0.215854 0.00163146 1.81817e-18) (-0.218327 0.00147902 1.5383e-18) (-0.220621 0.00132661 4.21421e-19));
    }
    procBoundary44to51
    {
        type            processor;
        value           nonuniform List<vector> 2((-0.168319 0.00169711 2.56203e-19) (-0.151125 0.00270154 4.35522e-19));
    }
    procBoundary44to52
    {
        type            processor;
        value           nonuniform List<vector> 
18
(
(-0.180468 0.00266477 -6.93155e-18)
(-0.179007 0.00205601 -8.11931e-19)
(-0.177573 0.00150372 1.23449e-18)
(-0.176155 0.00101657 1.94292e-18)
(-0.174744 0.00059682 2.13136e-18)
(-0.173326 0.000276692 1.84564e-18)
(-0.171888 2.86263e-05 2.21651e-18)
(-0.142619 0.00108806 8.14085e-19)
(-0.140373 0.00105669 9.90822e-18)
(-0.138011 0.00112432 5.25364e-19)
(-0.135518 0.0012897 8.9693e-18)
(-0.132882 0.00154968 1.07783e-17)
(-0.130091 0.00189943 1.12947e-17)
(-0.127134 0.00233717 1.16282e-17)
(-0.123996 0.00285614 1.22141e-17)
(-0.120665 0.00344026 1.2489e-17)
(-0.117134 0.00408082 2.47704e-18)
(-0.171888 2.86263e-05 2.21651e-18)
)
;
    }
}


// ************************************************************************* //
