/*--------------------------------*- C++ -*----------------------------------*\
  =========                 |
  \\      /  F ield         | OpenFOAM: The Open Source CFD Toolbox
   \\    /   O peration     | Website:  https://openfoam.org
    \\  /    A nd           | Version:  7
     \\/     M anipulation  |
\*---------------------------------------------------------------------------*/
FoamFile
{
    version     2.0;
    format      ascii;
    class       volScalarField;
    location    "86";
    object      p;
}
// * * * * * * * * * * * * * * * * * * * * * * * * * * * * * * * * * * * * * //

dimensions      [0 2 -2 0 0 0 0];

internalField   nonuniform List<scalar> 
175
(
-0.02836
-0.028132
-0.0279193
-0.0277273
-0.0275605
-0.0274231
-0.0273187
-0.0272502
-0.0272201
-0.0272303
-0.0272823
-0.0273772
-0.0275156
-0.0276974
-0.0279248
-0.0281959
-0.0285105
-0.0288686
-0.0283581
-0.0281285
-0.0279143
-0.0277209
-0.0275529
-0.0274145
-0.0273093
-0.0272402
-0.0272098
-0.02722
-0.0272723
-0.0273679
-0.0275076
-0.0276925
-0.02792
-0.0281918
-0.0285068
-0.0288671
-0.0283552
-0.0281238
-0.027908
-0.0277131
-0.0275438
-0.0274044
-0.0272984
-0.0272289
-0.0271983
-0.0272086
-0.0272613
-0.0273577
-0.0274983
-0.0276839
-0.0279136
-0.0281884
-0.0285082
-0.0288697
-0.0283528
-0.0281194
-0.0279017
-0.0277052
-0.0275345
-0.0273939
-0.0272871
-0.0272169
-0.027186
-0.0271964
-0.0272495
-0.0273465
-0.0274881
-0.0276747
-0.0279062
-0.0281827
-0.0285038
-0.0288684
-0.028351
-0.0281155
-0.0278958
-0.0276974
-0.0275252
-0.0273833
-0.0272754
-0.0272045
-0.0271732
-0.0271835
-0.0272369
-0.0273345
-0.0274771
-0.0276649
-0.0278979
-0.0281762
-0.0284991
-0.028866
-0.0283498
-0.0281119
-0.02789
-0.0276897
-0.0275157
-0.0273724
-0.0272633
-0.0271917
-0.0271599
-0.02717
-0.0272236
-0.0273218
-0.0274652
-0.0276543
-0.0278888
-0.0281689
-0.0284939
-0.028863
-0.028349
-0.0281086
-0.0278844
-0.027682
-0.0275061
-0.0273612
-0.0272509
-0.0271783
-0.0271459
-0.0271558
-0.0272095
-0.0273082
-0.0274525
-0.0276427
-0.0278788
-0.0281606
-0.0284877
-0.0288591
-0.0283487
-0.0281055
-0.0278788
-0.0276741
-0.0274962
-0.0273495
-0.0272378
-0.0271641
-0.027131
-0.0271405
-0.0271943
-0.0272933
-0.0274384
-0.0276298
-0.0278673
-0.0281509
-0.02848
-0.0288538
-0.0283487
-0.0281027
-0.0278732
-0.027666
-0.0274859
-0.0273373
-0.027224
-0.0271491
-0.0271152
-0.0271242
-0.0271779
-0.0272773
-0.027423
-0.0276154
-0.0278544
-0.0281397
-0.0284708
-0.0288467
-0.0283498
-0.028101
-0.0278689
-0.0276593
-0.0274772
-0.0273269
-0.0272122
-0.0271363
-0.0271018
-0.0271107
-0.0271645
-0.0272644
-0.027411
)
;

boundaryField
{
    inlet
    {
        type            zeroGradient;
    }
    outlet
    {
        type            fixedValue;
        value           nonuniform 0();
    }
    polygon
    {
        type            zeroGradient;
    }
    top
    {
        type            symmetryPlane;
    }
    bottom
    {
        type            symmetryPlane;
    }
    outside
    {
        type            slip;
    }
    procBoundary29to21
    {
        type            processor;
        value           nonuniform List<scalar> 
19
(
-0.028353
-0.0281021
-0.0278683
-0.0276572
-0.0274738
-0.0273225
-0.0272072
-0.027131
-0.0270966
-0.0271059
-0.0271605
-0.0272615
-0.0274095
-0.0276046
-0.0278451
-0.0281322
-0.0284652
-0.0288434
-0.0276046
)
;
    }
    procBoundary29to28
    {
        type            processor;
        value           nonuniform List<scalar> 9(-0.0292691 -0.0292702 -0.0292733 -0.0292767 -0.0292764 -0.0292757 -0.0292743 -0.0292715 -0.0292669);
    }
    procBoundary29to30
    {
        type            processor;
        value           nonuniform List<scalar> 10(-0.0285975 -0.0285972 -0.0285963 -0.028596 -0.0285965 -0.0285977 -0.0285996 -0.0286021 -0.0286052 -0.0286093);
    }
    procBoundary29to37
    {
        type            processor;
        value           nonuniform List<scalar> 
18
(
-0.0283611
-0.0281345
-0.0279232
-0.0277324
-0.0275668
-0.0274304
-0.0273268
-0.027259
-0.0272293
-0.0272399
-0.027292
-0.0273868
-0.027525
-0.0277068
-0.0279332
-0.0282033
-0.0285169
-0.0288735
)
;
    }
}


// ************************************************************************* //
