/*--------------------------------*- C++ -*----------------------------------*\
  =========                 |
  \\      /  F ield         | OpenFOAM: The Open Source CFD Toolbox
   \\    /   O peration     | Website:  https://openfoam.org
    \\  /    A nd           | Version:  7
     \\/     M anipulation  |
\*---------------------------------------------------------------------------*/
FoamFile
{
    version     2.0;
    format      ascii;
    class       volVectorField;
    location    "20";
    object      U;
}
// * * * * * * * * * * * * * * * * * * * * * * * * * * * * * * * * * * * * * //

dimensions      [0 1 -1 0 0 0 0];

internalField   nonuniform List<vector> 
225
(
(1.04673 -0.000252715 -1.85979e-18)
(0.953387 0.000542293 -1.04849e-17)
(1.04553 0.00040052 -8.18238e-18)
(0.948931 0.00143544 2.93293e-18)
(1.04044 0.000414604 3.54946e-18)
(0.943351 0.0067018 -2.82377e-18)
(1.00851 0.0037251 -3.15049e-18)
(0.918427 0.0339984 -4.83756e-18)
(0.843367 0.0333395 -5.42578e-18)
(1.04699 -0.000253293 -8.8963e-19)
(0.952974 0.00055281 -1.17534e-17)
(1.04599 0.000434754 -9.09737e-18)
(0.948276 0.00147735 2.85911e-18)
(1.04123 0.000466148 3.73619e-18)
(0.942299 0.00696382 -3.98309e-18)
(1.00991 0.0039941 -3.86385e-18)
(0.916692 0.0353997 -3.08459e-18)
(0.847526 0.0353091 -3.69245e-18)
(1.04725 -0.000252566 -5.94278e-20)
(0.952552 0.00056152 -1.22958e-17)
(1.04646 0.000471075 -1.01853e-17)
(0.947603 0.00151597 1.80171e-18)
(1.04205 0.00052143 3.93157e-18)
(0.941213 0.00721778 -2.86397e-18)
(1.01136 0.00426992 -4.34927e-18)
(0.914896 0.03676 -1.67313e-18)
(0.851846 0.0372667 -1.9937e-18)
(1.04752 -0.000250612 7.23716e-19)
(0.952121 0.000568641 -1.32379e-17)
(1.04695 0.000509279 -1.13464e-17)
(0.946915 0.00155215 8.94657e-19)
(1.04289 0.00058015 2.82558e-18)
(0.940095 0.007468 -1.92971e-18)
(1.01286 0.00455332 -5.182e-18)
(0.913041 0.038107 -1.70633e-18)
(0.856328 0.0392198 -6.26202e-19)
(1.04779 -0.000247383 1.44647e-18)
(0.951685 0.000574084 -1.35447e-17)
(1.04745 0.000549482 -1.15594e-17)
(0.946214 0.00158564 1.23269e-18)
(1.04375 0.000642613 1.7397e-18)
(0.938949 0.0077137 -9.89239e-19)
(1.01441 0.00484554 -6.13151e-18)
(0.911128 0.0394373 -1.83491e-18)
(0.860971 0.041179 6.62652e-19)
(1.04443 -0.000175976 -4.02399e-18)
(0.957009 0.000338948 2.44137e-18)
(1.04152 0.000142987 -9.35505e-18)
(0.954528 0.000837197 1.0642e-18)
(1.03381 9.49535e-05 2.29443e-19)
(0.951991 0.0036496 3.52642e-18)
(0.997201 0.00160806 9.79777e-18)
(0.932093 0.018304 2.16319e-18)
(0.810794 0.0163342 3.95652e-18)
(1.04461 -0.000188493 -3.66669e-18)
(0.956729 0.000365518 1.18654e-18)
(1.04182 0.000161681 -8.65178e-18)
(0.954103 0.000906911 2.29358e-18)
(1.03431 0.00011466 1.14224e-18)
(0.951347 0.00397349 2.54518e-18)
(0.998037 0.00179199 8.53311e-18)
(0.931085 0.0199534 1.11043e-18)
(0.813202 0.018021 3.44529e-18)
(1.0448 -0.000200018 -3.52397e-18)
(0.956429 0.000390698 1.02454e-18)
(1.04215 0.000181907 -6.87654e-18)
(0.953644 0.00097403 3.65409e-18)
(1.03485 0.000136852 2.10844e-18)
(0.95065 0.0042905 1.79824e-18)
(0.998943 0.00198028 7.51357e-18)
(0.929995 0.0215671 -5.60557e-20)
(0.815808 0.0196945 -1.74765e-18)
(1.04501 -0.0002106 -3.46737e-18)
(0.956108 0.000414719 1.04492e-18)
(1.04251 0.000203483 -5.36965e-18)
(0.953153 0.00103949 4.14032e-18)
(1.03543 0.000161338 3.11891e-18)
(0.949901 0.00460515 1.08458e-18)
(0.999917 0.00217393 6.78175e-18)
(0.928824 0.0231724 -1.41201e-18)
(0.81861 0.0213714 -2.64849e-18)
(1.04523 -0.000220163 -3.54462e-18)
(0.955768 0.000437465 -7.82389e-20)
(1.04288 0.000226556 -4.04426e-18)
(0.95263 0.00110304 4.77114e-18)
(1.03604 0.000188385 4.2237e-18)
(0.949102 0.00491682 5.26364e-19)
(1.00096 0.00237366 6.36846e-18)
(0.927571 0.0247664 -4.44953e-18)
(0.821603 0.0230542 -3.7564e-18)
(1.04545 -0.000228632 -3.74384e-18)
(0.955409 0.00045882 -1.28167e-18)
(1.04328 0.000251253 -4.29004e-18)
(0.952077 0.00116444 5.64479e-18)
(1.0367 0.000218208 3.79722e-18)
(0.948254 0.00522474 -1.17216e-19)
(1.00207 0.00257976 4.02402e-18)
(0.926239 0.0263451 -6.17425e-18)
(0.824787 0.0247412 -4.71878e-18)
(1.04569 -0.000235946 -4.21906e-18)
(0.955032 0.000478699 -2.52113e-18)
(1.0437 0.000277671 -4.53955e-18)
(0.951495 0.00122354 5.60972e-18)
(1.03738 0.000250971 3.46647e-18)
(0.947357 0.00552865 -8.06701e-19)
(1.00324 0.00279249 1.86507e-18)
(0.924827 0.0279074 -6.6041e-18)
(0.828156 0.0264315 -5.89048e-18)
(1.04594 -0.000242044 -4.86731e-18)
(0.954639 0.000497 -5.08603e-18)
(1.04413 0.000305912 -4.88906e-18)
(0.950886 0.00128015 4.59154e-18)
(1.03811 0.000286752 3.36404e-18)
(0.946414 0.00582801 -1.43878e-18)
(1.00447 0.00301141 -2.49276e-19)
(0.923337 0.0294504 -5.72793e-18)
(0.831708 0.0281178 -7.70542e-18)
(1.0462 -0.000246868 -4.44041e-18)
(0.95423 0.000513611 -6.62067e-18)
(1.04459 0.000336072 -5.40014e-18)
(0.95025 0.00133403 3.85232e-18)
(1.03886 0.000325518 3.38716e-18)
(0.945426 0.00612203 -2.25093e-18)
(1.00577 0.00323512 -2.50024e-18)
(0.921768 0.0309696 -5.12145e-18)
(0.835439 0.0297791 -9.30289e-18)
(1.04647 -0.000250429 -3.06235e-18)
(0.953806 0.000528691 -8.46605e-18)
(1.04506 0.000368079 -7.38243e-18)
(0.94959 0.00138577 3.31431e-18)
(1.03965 0.000367771 3.39885e-18)
(0.944394 0.00641312 -1.85875e-18)
(1.00713 0.00346767 -2.791e-18)
(0.920121 0.0324767 -5.01351e-18)
(0.839346 0.0314474 -7.27559e-18)
(1.04347 -9.37013e-06 3.27668e-18)
(0.958504 1.76517e-05 8.04705e-18)
(1.03988 5.27485e-06 -1.56364e-18)
(0.956784 4.29844e-05 2.96907e-18)
(1.03119 2.31418e-06 1.01035e-18)
(0.955351 0.000183025 -2.27737e-18)
(0.992853 7.38904e-05 -6.44647e-19)
(0.937257 0.000917966 2.60295e-18)
(0.798418 0.000804838 2.02846e-17)
(1.04349 -2.77353e-05 3.01117e-18)
(0.958476 5.19467e-05 8.29516e-18)
(1.03991 1.6686e-05 -3.02596e-18)
(0.956742 0.00012578 3.57786e-18)
(1.03124 7.55152e-06 1.52955e-18)
(0.955288 0.00053621 -7.00807e-19)
(0.992932 0.000217577 1.1334e-18)
(0.937161 0.00268445 4.39403e-18)
(0.798647 0.00234502 1.84097e-17)
(1.04352 -4.588e-05 2.98082e-18)
(0.958421 8.585e-05 8.74408e-18)
(1.03997 2.84257e-05 -4.51339e-18)
(0.956658 0.000207633 4.33815e-18)
(1.03134 1.32572e-05 2.1226e-18)
(0.955164 0.000886001 -4.09255e-19)
(0.993092 0.000361484 2.9298e-18)
(0.936971 0.0044331 4.87247e-18)
(0.799105 0.00387626 1.6886e-17)
(1.04358 -6.38132e-05 3.21586e-18)
(0.958337 0.000119514 9.57849e-18)
(1.04007 4.0462e-05 -6.35956e-18)
(0.956533 0.000289186 4.16746e-18)
(1.03148 1.95248e-05 2.70402e-18)
(0.954979 0.0012356 -1.42182e-19)
(0.993331 0.000507218 4.98562e-18)
(0.936686 0.00618185 5.74835e-18)
(0.79979 0.00541565 1.6081e-17)
(1.04365 -8.14432e-05 2.3184e-18)
(0.958226 0.000152811 1.07169e-17)
(1.04019 5.29413e-05 -8.31271e-18)
(0.956366 0.000370211 4.16605e-18)
(1.03168 2.65425e-05 1.80417e-18)
(0.954731 0.00158445 1.63769e-19)
(0.99365 0.000654934 7.25525e-18)
(0.936308 0.0079278 6.91497e-18)
(0.8007 0.00695919 1.12056e-17)
(1.04374 -9.86755e-05 1.67022e-18)
(0.958087 0.000185612 9.6604e-18)
(1.04034 6.59951e-05 -9.2354e-18)
(0.956158 0.000450486 3.15666e-18)
(1.03192 3.44966e-05 8.85292e-19)
(0.954423 0.00193198 4.8267e-19)
(0.994049 0.000804839 9.76135e-18)
(0.935837 0.00966821 6.7699e-18)
(0.801835 0.0085042 6.31638e-18)
(1.04385 -0.000115423 -2.07858e-19)
(0.957922 0.000217804 8.74945e-18)
(1.04052 7.97455e-05 -1.06709e-17)
(0.955909 0.000529841 2.38035e-18)
(1.03221 4.35683e-05 3.7299e-20)
(0.954054 0.00227789 2.16708e-18)
(0.994527 0.000957221 1.05066e-17)
(0.935273 0.0114017 6.84893e-18)
(0.803193 0.0100494 1.45377e-18)
(1.04397 -0.000131592 -1.98313e-18)
(0.957731 0.00024925 6.92791e-18)
(1.04073 9.43344e-05 -1.1034e-17)
(0.955621 0.000608021 1.76887e-18)
(1.03254 5.39092e-05 8.15046e-19)
(0.953625 0.00262148 4.02101e-18)
(0.995084 0.00111193 1.17314e-17)
(0.934616 0.0131247 7.09255e-18)
(0.804772 0.0115885 1.21371e-18)
(1.04411 -0.0001471 -3.81676e-18)
(0.957513 0.000279828 5.2746e-18)
(1.04096 0.000109889 -1.04156e-17)
(0.955293 0.000684815 1.34598e-18)
(1.03292 6.56053e-05 1.57291e-18)
(0.953136 0.0029622 4.84274e-18)
(0.995717 0.00126848 1.14271e-17)
(0.933865 0.014834 5.88879e-18)
(0.80657 0.0131101 4.8842e-19)
(1.04427 -0.000161955 -4.44979e-18)
(0.957271 0.000309727 3.77836e-18)
(1.04123 0.000126309 -1.0473e-17)
(0.954926 0.000761004 1.1289e-18)
(1.03335 7.89392e-05 8.26399e-19)
(0.952588 0.00330362 4.65998e-18)
(0.996427 0.00143018 1.15317e-17)
(0.933021 0.016549 3.21571e-18)
(0.808585 0.0146467 4.47376e-18)
)
;

boundaryField
{
    inlet
    {
        type            uniformFixedValue;
        uniformValue    constant (1 0 0);
        value           uniform (1 0 0);
    }
    outlet
    {
        type            pressureInletOutletVelocity;
        value           nonuniform 0();
    }
    polygon
    {
        type            fixedValue;
        value           nonuniform 0();
    }
    top
    {
        type            symmetryPlane;
    }
    bottom
    {
        type            symmetryPlane;
    }
    outside
    {
        type            zeroGradient;
    }
    procBoundary8to4
    {
        type            processor;
        value           nonuniform List<vector> 9((1.04347 9.36788e-06 3.80515e-18) (0.958504 -1.76506e-05 8.0593e-18) (1.03988 -5.27108e-06 1.16764e-18) (0.956784 -4.29857e-05 2.46739e-18) (1.03119 -2.31284e-06 -1.20504e-18) (0.955351 -0.000183034 -3.92139e-18) (0.992853 -7.38879e-05 -2.34865e-18) (0.937257 -0.000917962 -5.28901e-19) (0.798418 -0.000804841 2.28802e-17));
    }
    procBoundary8to9
    {
        type            processor;
        value           nonuniform List<vector> 
25
(
(0.780846 0.273412 -5.21572e-18)
(0.782402 0.28485 -4.95376e-18)
(0.78404 0.296059 -5.4211e-18)
(0.785753 0.307288 -6.10242e-18)
(0.787533 0.318534 -3.59727e-18)
(0.768031 0.144682 -1.33704e-17)
(0.768981 0.157751 -1.51025e-17)
(0.770024 0.170695 -1.35772e-17)
(0.771155 0.18364 -1.24597e-17)
(0.77237 0.196588 -1.13622e-17)
(0.77366 0.209526 -1.07272e-17)
(0.775019 0.222451 -1.05546e-17)
(0.776434 0.235386 -1.04515e-17)
(0.777892 0.248375 -1.1328e-17)
(0.779374 0.26128 -8.4626e-18)
(0.763089 0.00690573 -1.64938e-17)
(0.763185 0.0207626 -1.92064e-17)
(0.763376 0.0345915 -1.86014e-17)
(0.763659 0.048408 -1.88409e-17)
(0.764034 0.0622187 -1.98105e-17)
(0.764498 0.0760249 -2.21432e-17)
(0.765048 0.089829 -1.69925e-17)
(0.765681 0.103644 -1.65542e-17)
(0.766394 0.117488 -1.21723e-17)
(0.767181 0.131289 -1.23481e-17)
)
;
    }
    procBoundary8to12
    {
        type            processor;
        value           nonuniform List<vector> 9((1.04806 -0.000242844 9.84737e-19) (0.951242 0.000577774 -1.22285e-17) (1.04795 0.000591767 -1.076e-17) (0.9455 0.00161625 1.79629e-18) (1.04463 0.000709016 9.47542e-19) (0.937775 0.00795419 -2.39861e-19) (1.01601 0.00514697 -7.16705e-18) (0.909159 0.040747 -1.92419e-18) (0.865775 0.0431454 2.0264e-18));
    }
}


// ************************************************************************* //
