/*--------------------------------*- C++ -*----------------------------------*\
  =========                 |
  \\      /  F ield         | OpenFOAM: The Open Source CFD Toolbox
   \\    /   O peration     | Website:  https://openfoam.org
    \\  /    A nd           | Version:  7
     \\/     M anipulation  |
\*---------------------------------------------------------------------------*/
FoamFile
{
    version     2.0;
    format      ascii;
    class       volScalarField;
    location    "15";
    object      p;
}
// * * * * * * * * * * * * * * * * * * * * * * * * * * * * * * * * * * * * * //

dimensions      [0 2 -2 0 0 0 0];

internalField   nonuniform List<scalar> 
75
(
0.00158581
-0.00359022
0.00650176
-0.00383024
0.0166149
0.000787715
0.0516585
0.0255734
0.00157506
-0.00356579
0.00647463
-0.0037388
0.0165919
0.00117723
0.0517662
0.0276035
0.00156719
-0.00355346
0.00644833
-0.00368912
0.0165417
0.00139272
0.0516284
0.0285211
0.00155679
-0.00354077
0.00641215
-0.00363003
0.0164635
0.00163426
0.0513919
0.0294902
0.00154573
-0.00353129
0.00636977
-0.00357917
0.0163586
0.00183521
0.0510023
0.0301045
0.00153349
-0.00352444
0.0063204
-0.00353242
0.0162273
0.00200921
0.0504797
0.0304759
0.00152024
-0.00352025
0.00626436
-0.00349096
0.0160697
0.00215217
0.0498227
0.0305836
0.00150572
-0.00351892
0.00620104
-0.00345485
0.0158873
0.00226018
0.0490312
0.0304268
0.00149157
-0.00352259
0.00613542
-0.00342989
0.015685
0.00233084
0.048124
0.0300204
0.00147157
-0.00351873
0.006051
)
;

boundaryField
{
    inlet
    {
        type            zeroGradient;
    }
    outlet
    {
        type            fixedValue;
        value           nonuniform 0();
    }
    polygon
    {
        type            zeroGradient;
    }
    top
    {
        type            symmetryPlane;
    }
    bottom
    {
        type            symmetryPlane;
    }
    outside
    {
        type            slip;
    }
    procBoundary8to4
    {
        type            processor;
        value           nonuniform List<scalar> 8(0.00158581 -0.00359022 0.00650176 -0.00383024 0.0166149 0.000787715 0.0516585 0.0255734);
    }
    procBoundary8to9
    {
        type            processor;
        value           nonuniform List<scalar> 9(0.204004 0.205976 0.205493 0.204447 0.202071 0.198568 0.193856 0.187825 0.180436);
    }
    procBoundary8to12
    {
        type            processor;
        value           nonuniform List<scalar> 9(-0.00338352 0.0154329 0.00243115 0.0470939 0.029582 0.0014117 -0.0035056 -0.00338352 0.00572864);
    }
}


// ************************************************************************* //
