/*--------------------------------*- C++ -*----------------------------------*\
  =========                 |
  \\      /  F ield         | OpenFOAM: The Open Source CFD Toolbox
   \\    /   O peration     | Website:  https://openfoam.org
    \\  /    A nd           | Version:  7
     \\/     M anipulation  |
\*---------------------------------------------------------------------------*/
FoamFile
{
    version     2.0;
    format      ascii;
    class       volVectorField;
    location    "10";
    object      U;
}
// * * * * * * * * * * * * * * * * * * * * * * * * * * * * * * * * * * * * * //

dimensions      [0 1 -1 0 0 0 0];

internalField   nonuniform List<vector> 
50
(
(0.94085 0.0185107 1.85823e-20)
(0.940576 0.0177306 5.20746e-21)
(0.939662 0.0172477 5.01841e-20)
(0.938133 0.016528 8.36928e-19)
(0.935719 0.0156821 2.08396e-20)
(0.930409 0.0353348 -2.42967e-20)
(0.92955 0.033621 2.61364e-20)
(0.927689 0.0326125 4.32925e-20)
(0.924639 0.0311896 1.13743e-19)
(0.91972 0.0295897 -1.41654e-20)
(0.938934 0.0442867 3.49286e-20)
(0.937658 0.0427207 8.17598e-19)
(0.935392 0.0415174 1.37086e-19)
(0.931769 0.0400438 1.93702e-18)
(0.925655 0.0382378 -4.91031e-20)
(0.904196 0.0541613 2.50843e-19)
(0.901524 0.0530241 1.0003e-17)
(0.897587 0.0517079 -9.49416e-20)
(0.891717 0.0504033 -4.24797e-19)
(0.88219 0.0484492 -1.11225e-18)
(0.946263 0.057892 1.32325e-19)
(0.942336 0.061218 -1.11819e-19)
(0.937428 0.0617899 -7.95138e-18)
(0.929799 0.0633385 -8.94941e-19)
(0.917089 0.063207 -8.86596e-18)
(0.907509 0.0504993 3.14629e-19)
(0.899977 0.0568924 1.12787e-17)
(0.891833 0.0580879 -7.42434e-19)
(0.877773 0.0628142 -4.20664e-19)
(0.854165 0.0641601 -1.40935e-17)
(1.00838 0.0526616 -2.36701e-19)
(1.00388 0.0748369 -2.01016e-18)
(0.998421 0.0808734 -2.39708e-17)
(0.9842 0.0974628 -1.18527e-18)
(0.954341 0.104941 -2.4892e-17)
(1.02907 0.00146902 -2.45981e-19)
(1.02232 0.023035 -5.07699e-18)
(1.01075 0.0284372 9.42596e-19)
(0.980761 0.0477763 1.27359e-17)
(0.917737 0.0563641 1.6881e-18)
(1.15732 0.00160443 -1.72779e-18)
(1.17375 0.0506955 -5.05653e-17)
(1.17331 0.0621775 -1.32453e-17)
(1.16105 0.102812 8.90535e-18)
(1.10654 0.123097 -1.83599e-17)
(1.328 -0.202284 1.05779e-17)
(1.34507 -0.199361 8.57137e-17)
(1.33642 -0.194199 -8.36978e-17)
(1.30763 -0.193331 8.27201e-17)
(1.20967 -0.181072 -1.324e-16)
)
;

boundaryField
{
    inlet
    {
        type            uniformFixedValue;
        uniformValue    constant (1 0 0);
        value           nonuniform 0();
    }
    outlet
    {
        type            pressureInletOutletVelocity;
        value           nonuniform List<vector> 5((0.94085 0.0185107 1.85823e-20) (0.940576 0.0177306 5.20746e-21) (0.939662 0.0172477 5.01841e-20) (0.938133 0.016528 8.36928e-19) (0.935719 0.0156821 2.08396e-20));
    }
    polygon
    {
        type            fixedValue;
        value           nonuniform 0();
    }
    top
    {
        type            symmetryPlane;
    }
    bottom
    {
        type            symmetryPlane;
    }
    outside
    {
        type            zeroGradient;
    }
    procBoundary3to2
    {
        type            processor;
        value           nonuniform List<vector> 4((1.26194 -0.163264 -7.59009e-18) (1.26354 -0.191611 2.70957e-17) (1.26549 -0.206536 1.98093e-18) (1.27079 -0.232443 -1.55258e-17));
    }
    procBoundary3to6
    {
        type            processor;
        value           uniform (1.26433 -0.248728 -1.22602e-17);
    }
    procBoundary3to7
    {
        type            processor;
        value           nonuniform List<vector> 10((0.931849 0.0145602 -7.80111e-19) (0.91136 0.0275762 -2.38968e-19) (0.914293 0.0359608 -2.62451e-18) (0.864462 0.0458714 -1.11726e-17) (0.892728 0.0619214 -4.20831e-19) (0.810923 0.0648207 -1.73791e-18) (0.895934 0.111672 -2.91266e-18) (0.800108 0.0682757 -3.88582e-18) (0.990781 0.150617 6.9893e-17) (0.995863 -0.151739 -1.35147e-16));
    }
}


// ************************************************************************* //
