/*--------------------------------*- C++ -*----------------------------------*\
  =========                 |
  \\      /  F ield         | OpenFOAM: The Open Source CFD Toolbox
   \\    /   O peration     | Website:  https://openfoam.org
    \\  /    A nd           | Version:  7
     \\/     M anipulation  |
\*---------------------------------------------------------------------------*/
FoamFile
{
    version     2.0;
    format      ascii;
    class       volScalarField;
    location    "72";
    object      p;
}
// * * * * * * * * * * * * * * * * * * * * * * * * * * * * * * * * * * * * * //

dimensions      [0 2 -2 0 0 0 0];

internalField   nonuniform List<scalar> 
8000
(
-0.000506597
-0.00171725
-0.00295998
-0.00432472
-0.00574976
-0.00720201
-0.00865645
-0.010089
-0.0114793
-0.0128108
-0.0140695
-0.0152447
-0.0163258
-0.0173101
-0.0181923
-0.0189706
-0.0196448
-0.0202165
-0.0206886
-0.0210654
-0.0213522
-0.0215553
-0.021682
-0.0217401
-0.0217379
-0.0216843
-0.0215885
-0.0214595
-0.0213065
-0.0211383
-0.0209633
-0.0207895
-0.0206243
-0.0204745
-0.020346
-0.0202442
-0.0201738
-0.0201384
-0.0201415
-0.0201857
-0.020273
-0.0204047
-0.0205819
-0.0208049
-0.0210741
-0.0213892
-0.02175
-0.0221558
-0.022606
-0.0230998
-0.0236362
-0.0242144
-0.0248334
-0.0254923
-0.0261902
-0.0269263
-0.0276997
-0.0285097
-0.0293554
-0.0302362
-0.0311514
-0.0321003
-0.0330824
-0.0340971
-0.0351439
-0.0362222
-0.0373318
-0.0384722
-0.0396428
-0.040843
-0.0420725
-0.0433304
-0.0446158
-0.0459278
-0.0472649
-0.0486254
-0.0500071
-0.0514074
-0.0528229
-0.0542496
-0.0556826
-0.0571159
-0.0585424
-0.0599533
-0.0613384
-0.0626854
-0.0639794
-0.0652036
-0.0663377
-0.0673569
-0.0682407
-0.0689481
-0.0694897
-0.0697413
-0.070001
-0.0695003
-0.070703
-0.0686318
-0.0761542
-0.0725383
-0.000535198
-0.00174459
-0.00299055
-0.00434486
-0.00575479
-0.00719169
-0.00863137
-0.0100504
-0.011429
-0.0127505
-0.0140009
-0.0151692
-0.0162467
-0.0172292
-0.0181105
-0.0188889
-0.0195642
-0.020138
-0.020613
-0.0209934
-0.0212845
-0.0214924
-0.0216243
-0.0216879
-0.0216916
-0.0216441
-0.0215544
-0.0214316
-0.0212846
-0.0211221
-0.0209525
-0.0207837
-0.0206231
-0.0204773
-0.0203524
-0.0202536
-0.0201856
-0.0201521
-0.0201566
-0.0202015
-0.0202889
-0.0204201
-0.0205961
-0.0208176
-0.0210847
-0.0213974
-0.0217553
-0.0221579
-0.0226045
-0.0230945
-0.0236268
-0.0242007
-0.0248153
-0.0254696
-0.0261628
-0.026894
-0.0276625
-0.0284675
-0.0293082
-0.030184
-0.0310942
-0.0320382
-0.0330153
-0.0340253
-0.0350678
-0.0361423
-0.0372479
-0.0383842
-0.039551
-0.040748
-0.0419743
-0.0432287
-0.0445108
-0.0458195
-0.0471533
-0.0485105
-0.0498889
-0.051286
-0.0526983
-0.0541219
-0.0555519
-0.0569823
-0.0584059
-0.059814
-0.0611961
-0.0625398
-0.06383
-0.065049
-0.0661764
-0.0671852
-0.0680545
-0.0687362
-0.0692447
-0.069437
-0.0696349
-0.0690127
-0.0699441
-0.0677349
-0.0734837
-0.0709443
-0.000557297
-0.00176686
-0.00301714
-0.00436173
-0.0057582
-0.00718105
-0.00860707
-0.0100137
-0.0113815
-0.012694
-0.0139374
-0.0151008
-0.0161742
-0.0171535
-0.0180332
-0.0188114
-0.0194878
-0.0200635
-0.0205414
-0.0209254
-0.0212206
-0.0214333
-0.0215704
-0.0216395
-0.0216489
-0.0216073
-0.0215235
-0.0214064
-0.0212649
-0.0211076
-0.0209429
-0.0207787
-0.020622
-0.0204797
-0.0203577
-0.0202613
-0.020195
-0.0201629
-0.020168
-0.020213
-0.0202998
-0.0204301
-0.0206048
-0.0208246
-0.0210897
-0.0214
-0.0217553
-0.0221552
-0.0225989
-0.0230858
-0.023615
-0.0241857
-0.024797
-0.0254481
-0.0261381
-0.0268661
-0.0276314
-0.0284333
-0.0292709
-0.0301438
-0.0310511
-0.0319923
-0.0329669
-0.0339745
-0.0350129
-0.0360829
-0.0371848
-0.0383179
-0.0394811
-0.0406723
-0.0418928
-0.0431425
-0.0444195
-0.0457229
-0.0470513
-0.048403
-0.0497759
-0.0511672
-0.0525738
-0.0539915
-0.0554155
-0.0568397
-0.0582571
-0.0596587
-0.0610343
-0.0623711
-0.0636543
-0.0648654
-0.0659842
-0.0669821
-0.0678388
-0.0685001
-0.0689853
-0.0691265
-0.0692607
-0.0685262
-0.0691845
-0.0668909
-0.0711391
-0.0692316
-0.000574105
-0.00178645
-0.00304046
-0.00437684
-0.0057615
-0.00717165
-0.00858517
-0.00998035
-0.0113381
-0.0126422
-0.0138787
-0.0150365
-0.0161066
-0.0170837
-0.0179622
-0.0187403
-0.0194176
-0.0199951
-0.0204756
-0.0208628
-0.021162
-0.021379
-0.0215208
-0.021595
-0.0216097
-0.0215735
-0.021495
-0.0213831
-0.0212467
-0.0210943
-0.0209341
-0.0207739
-0.0206209
-0.0204818
-0.0203624
-0.0202681
-0.0202035
-0.0201724
-0.020178
-0.0202231
-0.0203096
-0.0204391
-0.0206126
-0.0208308
-0.021094
-0.0214022
-0.0217551
-0.0221523
-0.0225931
-0.0230769
-0.0236029
-0.0241702
-0.0247781
-0.0254255
-0.0261118
-0.026836
-0.0275973
-0.0283951
-0.0292285
-0.0300969
-0.0309994
-0.0319355
-0.0329046
-0.0339051
-0.0349415
-0.0360095
-0.037107
-0.0382336
-0.0393906
-0.0405813
-0.0418007
-0.0430459
-0.044319
-0.0456187
-0.0469432
-0.0482908
-0.0496594
-0.0510463
-0.0524481
-0.053861
-0.05528
-0.0566991
-0.0581111
-0.0595071
-0.0608766
-0.0622068
-0.0634827
-0.0646852
-0.0657941
-0.0667789
-0.0676197
-0.0682566
-0.068713
-0.0688008
-0.0688617
-0.0680204
-0.0684016
-0.066069
-0.0691013
-0.0674297
-0.000586753
-0.00180288
-0.00305995
-0.00438939
-0.00576374
-0.00716258
-0.00856486
-0.00994967
-0.0112984
-0.0125947
-0.0138251
-0.0149792
-0.0160454
-0.01702
-0.0178975
-0.0186757
-0.0193539
-0.0199332
-0.0204161
-0.0208064
-0.0211092
-0.0213302
-0.0214764
-0.0215553
-0.0215748
-0.0215434
-0.0214697
-0.0213627
-0.0212308
-0.0210827
-0.0209266
-0.02077
-0.0206203
-0.0204839
-0.0203669
-0.0202745
-0.0202112
-0.0201809
-0.0201869
-0.0202319
-0.0203179
-0.0204464
-0.0206186
-0.0208351
-0.0210963
-0.0214021
-0.0217524
-0.0221468
-0.0225846
-0.0230652
-0.0235879
-0.0241518
-0.0247561
-0.0253999
-0.0260825
-0.0268031
-0.0275608
-0.028355
-0.029185
-0.0300503
-0.0309504
-0.0318849
-0.0328523
-0.0338564
-0.0348835
-0.0359437
-0.0370383
-0.0381666
-0.0393252
-0.0405032
-0.0417118
-0.0429548
-0.044223
-0.045517
-0.046836
-0.0481783
-0.0495416
-0.0509233
-0.0523201
-0.0537279
-0.0551418
-0.0565558
-0.0579627
-0.0593535
-0.0607178
-0.0620425
-0.0633124
-0.0645081
-0.0656089
-0.0665828
-0.06741
-0.0680246
-0.0684532
-0.0684911
-0.0684817
-0.0675478
-0.0676661
-0.0653003
-0.067353
-0.0656814
-0.000596106
-0.00181603
-0.00307549
-0.00439909
-0.00576461
-0.00715363
-0.0085461
-0.00992183
-0.0112625
-0.0125521
-0.0137768
-0.0149243
-0.0159905
-0.0169633
-0.01784
-0.0186183
-0.0192974
-0.0198784
-0.0203636
-0.0207568
-0.0210629
-0.0212876
-0.0214378
-0.0215208
-0.0215446
-0.0215176
-0.0214484
-0.0213455
-0.0212177
-0.0210735
-0.0209208
-0.0207674
-0.0206204
-0.0204864
-0.0203712
-0.0202802
-0.0202179
-0.0201882
-0.0201942
-0.0202388
-0.020324
-0.0204514
-0.0206221
-0.0208367
-0.0210958
-0.0213992
-0.0217469
-0.0221384
-0.0225732
-0.0230507
-0.0235701
-0.0241306
-0.0247314
-0.0253716
-0.0260504
-0.0267671
-0.0275208
-0.0283107
-0.0291361
-0.0299962
-0.0308898
-0.0318163
-0.0327781
-0.0337658
-0.0347956
-0.0358557
-0.0369443
-0.0380613
-0.0392091
-0.0403978
-0.041614
-0.0428449
-0.0441096
-0.0454012
-0.0467174
-0.0480565
-0.0494164
-0.0507943
-0.0521872
-0.0535909
-0.0550007
-0.0564106
-0.0578133
-0.0591999
-0.06056
-0.0618804
-0.0631459
-0.0643365
-0.0654317
-0.0663979
-0.0672155
-0.0678135
-0.0682206
-0.0682192
-0.0681501
-0.0671435
-0.0670288
-0.0646313
-0.0659015
-0.0640327
-0.000602795
-0.00182598
-0.00308707
-0.0044058
-0.00576397
-0.00714473
-0.00852891
-0.00989693
-0.0112309
-0.0125148
-0.0137353
-0.0148814
-0.0159433
-0.0169143
-0.0177903
-0.0185688
-0.0192489
-0.0198315
-0.0203188
-0.0207147
-0.0210237
-0.0212518
-0.0214055
-0.0214923
-0.0215199
-0.0214967
-0.0214312
-0.0213321
-0.0212077
-0.0210667
-0.0209169
-0.0207661
-0.0206213
-0.0204891
-0.0203754
-0.0202854
-0.0202237
-0.0201941
-0.0201999
-0.0202438
-0.020328
-0.0204539
-0.0206229
-0.0208356
-0.0210924
-0.0213933
-0.0217383
-0.022127
-0.0225588
-0.0230331
-0.0235493
-0.0241065
-0.0247039
-0.0253408
-0.0260164
-0.0267299
-0.0274805
-0.0282676
-0.0290906
-0.0299492
-0.0308433
-0.0317732
-0.0327267
-0.0337205
-0.0347425
-0.035796
-0.0368821
-0.0380002
-0.0391477
-0.0403194
-0.0415209
-0.0427654
-0.0440226
-0.0453068
-0.046616
-0.0479485
-0.0493022
-0.0506745
-0.0520619
-0.0534604
-0.0548652
-0.0562703
-0.0576685
-0.059051
-0.0604071
-0.0617239
-0.0629861
-0.0641735
-0.0652657
-0.0662278
-0.067041
-0.0676297
-0.0680254
-0.0679984
-0.0678857
-0.0668286
-0.0665239
-0.0640943
-0.0647543
-0.0625354
-0.000607269
-0.00183281
-0.00309474
-0.0044095
-0.00576175
-0.00713584
-0.0085133
-0.00987505
-0.0112034
-0.0124824
-0.0136986
-0.0148406
-0.0159026
-0.016873
-0.017749
-0.0185279
-0.019209
-0.0197931
-0.0202824
-0.0206806
-0.0209923
-0.0212232
-0.02138
-0.02147
-0.021501
-0.0214811
-0.0214188
-0.0213227
-0.0212012
-0.0210628
-0.0209153
-0.0207665
-0.0206234
-0.0204925
-0.0203797
-0.0202902
-0.0202286
-0.0201987
-0.0202039
-0.0202468
-0.0203297
-0.0204541
-0.0206212
-0.0208318
-0.0210862
-0.0213846
-0.0217268
-0.0221124
-0.022541
-0.023012
-0.0235246
-0.024078
-0.0246715
-0.0253043
-0.0259755
-0.0266842
-0.0274298
-0.0282115
-0.0290283
-0.0298793
-0.0307631
-0.0316789
-0.0326376
-0.0336243
-0.0346438
-0.0356946
-0.0367754
-0.0378859
-0.0390268
-0.0401994
-0.0413994
-0.0426204
-0.0438815
-0.045164
-0.0464726
-0.047804
-0.0491561
-0.0505263
-0.0519115
-0.0533079
-0.0547107
-0.056114
-0.0575108
-0.0588922
-0.0602479
-0.0615648
-0.0628278
-0.0640166
-0.0651111
-0.0660754
-0.0668919
-0.0674808
-0.0678772
-0.0678404
-0.067707
-0.0666239
-0.0661845
-0.0637247
-0.0639268
-0.0612707
-0.000609902
-0.00183665
-0.00309863
-0.00441023
-0.00575803
-0.00712721
-0.00849981
-0.00985715
-0.0111818
-0.012458
-0.0136727
-0.0148143
-0.015873
-0.0168418
-0.0177172
-0.0184963
-0.0191782
-0.0197635
-0.0202545
-0.0206547
-0.0209687
-0.0212021
-0.0213616
-0.0214543
-0.021488
-0.0214709
-0.0214113
-0.0213177
-0.0211984
-0.021062
-0.0209162
-0.0207688
-0.0206267
-0.0204964
-0.0203839
-0.0202943
-0.0202323
-0.0202016
-0.0202058
-0.0202475
-0.0203288
-0.0204515
-0.0206166
-0.0208251
-0.0210773
-0.0213733
-0.0217131
-0.0220964
-0.0225225
-0.0229911
-0.0235013
-0.0240524
-0.0246437
-0.0252743
-0.0259436
-0.0266506
-0.0273948
-0.0281755
-0.028992
-0.0298441
-0.0307317
-0.0316517
-0.032601
-0.0335841
-0.0345993
-0.0356461
-0.0367245
-0.037834
-0.0389735
-0.0401417
-0.0413396
-0.0425688
-0.0438208
-0.0451003
-0.0464012
-0.0477254
-0.0490712
-0.0504355
-0.0518154
-0.0532067
-0.0546047
-0.0560037
-0.0573965
-0.0587745
-0.0601274
-0.0614423
-0.0627044
-0.0638933
-0.0649895
-0.0659566
-0.0667785
-0.0673724
-0.0677768
-0.0677473
-0.0676317
-0.0665512
-0.0660546
-0.0635669
-0.0634797
-0.0603254
-0.000610543
-0.00183674
-0.00309755
-0.00440628
-0.00575046
-0.00711568
-0.00848431
-0.00983784
-0.0111589
-0.0124318
-0.0136433
-0.0147825
-0.0158429
-0.0168129
-0.0176895
-0.0184701
-0.0191537
-0.0197411
-0.0202343
-0.0206368
-0.0209531
-0.0211889
-0.0213506
-0.0214454
-0.0214809
-0.0214653
-0.0214073
-0.0213152
-0.0211973
-0.021062
-0.0209171
-0.0207702
-0.0206284
-0.0204982
-0.0203854
-0.0202954
-0.0202327
-0.0202013
-0.0202044
-0.0202443
-0.0203235
-0.0204436
-0.0206058
-0.020811
-0.0210597
-0.0213519
-0.0216876
-0.0220664
-0.022488
-0.0229517
-0.0234568
-0.0240027
-0.0245884
-0.0252133
-0.0258765
-0.0265772
-0.0273147
-0.0280882
-0.028897
-0.0297401
-0.0306168
-0.0315293
-0.0324767
-0.0334553
-0.0344656
-0.0355071
-0.0365793
-0.0376816
-0.0388139
-0.0399758
-0.0411661
-0.0423835
-0.0436288
-0.0449011
-0.0462002
-0.0475222
-0.0488651
-0.0502267
-0.0516038
-0.0529929
-0.0543892
-0.0557872
-0.05718
-0.0585593
-0.0599149
-0.0612344
-0.0625033
-0.0637014
-0.0648104
-0.0657932
-0.0666364
-0.0672531
-0.0676894
-0.0676763
-0.0675803
-0.0665062
-0.0659994
-0.0634552
-0.0631807
-0.0594671
0.082338
0.0880424
0.0901214
0.0924871
0.093448
0.0935579
0.0924707
0.090145
0.0863393
0.0808392
0.0732168
0.0631106
0.049692
0.0323505
0.00915977
-0.0212431
-0.0647595
-0.121999
-0.207454
-0.30981
0.0766204
0.0820947
0.0840275
0.0861543
0.0868974
0.0867757
0.0854581
0.0828964
0.0788568
0.0731232
0.0652929
0.0549336
0.0413172
0.023639
-9.28273e-05
-0.0317484
-0.0775277
-0.136574
-0.202293
-0.250661
0.0711456
0.0764402
0.0782196
0.0801112
0.0805889
0.0801682
0.0785043
0.0755428
0.0710368
0.06475
0.0562675
0.0451072
0.0304762
0.0114129
-0.0141286
-0.0476424
-0.0934874
-0.147709
-0.19158
-0.242682
0.0658615
0.0709659
0.0725836
0.074246
0.0744581
0.0737308
0.0717062
0.0683253
0.0633291
0.056464
0.0473053
0.0353393
0.0197357
-0.000491319
-0.0272369
-0.0614772
-0.104925
-0.15289
-0.182528
-0.224895
0.0607385
0.0656289
0.0670749
0.0685135
0.0684767
0.0674661
0.0651173
0.0613698
0.0559601
0.0486284
0.0389534
0.0264125
0.0101932
-0.0106007
-0.0375653
-0.0713245
-0.110841
-0.150065
-0.173642
-0.203789
0.055777
0.0604369
0.061704
0.0629228
0.0626514
0.061381
0.0587446
0.0546823
0.0489308
0.0412303
0.0311703
0.018233
0.00164784
-0.0193183
-0.045791
-0.0781416
-0.113268
-0.141925
-0.164379
-0.179461
0.0509871
0.0554039
0.0564895
0.0574923
0.0569967
0.0554836
0.0525856
0.0482447
0.042201
0.0342021
0.0238602
0.0106921
-0.00599957
-0.0267576
-0.0521417
-0.0822725
-0.113419
-0.132207
-0.154478
-0.157861
0.0463761
0.0505347
0.0514404
0.052231
0.051521
0.0497794
0.0466413
0.0420512
0.035756
0.0275137
0.0169599
0.00364996
-0.0130367
-0.0334463
-0.0574535
-0.084612
-0.111507
-0.123613
-0.14368
-0.139311
0.0419506
0.0458219
0.0465584
0.047138
0.0462271
0.0442716
0.040916
0.0361064
0.0296021
0.0211811
0.0105255
-0.00271694
-0.0189994
-0.038434
-0.0603481
-0.0839302
-0.106919
-0.116782
-0.132258
-0.123975
0.0377192
0.0412546
0.0418481
0.0422098
0.0411117
0.0389511
0.0353946
0.0303866
0.0237041
0.0151439
0.00441943
-0.0087832
-0.0248466
-0.043772
-0.0643955
-0.085294
-0.104991
-0.115082
-0.127582
-0.110094
0.148541
0.157461
0.161804
0.167136
0.171392
0.17524
0.178404
0.180832
0.182355
0.182817
0.181957
0.179589
0.175212
0.168663
0.158717
0.145579
0.12668
0.105678
0.0781487
0.0652164
0.14048
0.149284
0.152958
0.157813
0.161299
0.164253
0.166327
0.167469
0.167471
0.166145
0.163168
0.158321
0.151059
0.141247
0.127502
0.110327
0.0867406
0.0623775
0.032176
0.035968
0.133096
0.141624
0.144932
0.149434
0.152461
0.154918
0.156413
0.156923
0.15623
0.154166
0.150402
0.144735
0.136503
0.12562
0.110448
0.0918743
0.066004
0.0404524
0.00617975
0.0139436
0.126371
0.134531
0.137671
0.141897
0.14462
0.146755
0.147871
0.147963
0.146798
0.144202
0.139814
0.133415
0.124204
0.112138
0.09525
0.0748428
0.0459168
0.0183296
-0.0205182
-0.0113955
0.11988
0.127662
0.13066
0.134617
0.137045
0.138855
0.139575
0.139209
0.137497
0.13425
0.129052
0.121678
0.111206
0.0976499
0.078696
0.0560954
0.0237423
-0.00613078
-0.0482969
-0.0372521
0.113412
0.120831
0.123659
0.12733
0.129448
0.130904
0.1312
0.130345
0.128054
0.124128
0.11811
0.109783
0.0981289
0.0832255
0.0624357
0.0379528
0.00264196
-0.0291871
-0.0741497
-0.0621815
0.10697
0.114038
0.116685
0.120067
0.121883
0.122993
0.12289
0.121586
0.118782
0.114276
0.107587
0.0985132
0.0859556
0.0700162
0.0477767
0.0216229
-0.0164748
-0.051277
-0.0994882
-0.0871226
0.100615
0.107339
0.109816
0.112922
0.114467
0.115264
0.114818
0.113137
0.109921
0.104967
0.0977713
0.0881463
0.0749314
0.0581792
0.0348727
0.00735413
-0.0325548
-0.0696857
-0.121076
-0.111954
0.0943887
0.100771
0.103096
0.105943
0.107251
0.107772
0.107039
0.105051
0.101514
0.0962218
0.0886652
0.0786577
0.065039
0.0476742
0.023691
-0.00551356
-0.0475335
-0.0909351
-0.146645
-0.147387
0.088294
0.0943373
0.0965339
0.0991368
0.100249
0.100535
0.0995765
0.0973564
0.0935981
0.0880865
0.0803209
0.070101
0.0562457
0.0384359
0.014428
-0.0152102
-0.0559638
-0.0988052
-0.153376
-0.140968
0.397266
0.396493
0.3978
0.396764
0.398806
0.397522
0.400859
0.399292
0.40489
0.403116
0.412848
0.41114
0.428851
0.427898
0.462251
0.463663
0.53674
0.546307
0.71095
0.772246
0.397264
0.396494
0.397797
0.396773
0.398804
0.397543
0.400865
0.399346
0.404924
0.403248
0.412958
0.411459
0.429151
0.428671
0.463023
0.465584
0.538756
0.550706
0.716531
0.765018
0.397261
0.396492
0.397791
0.396774
0.398797
0.397551
0.400859
0.399368
0.404924
0.403307
0.41298
0.411605
0.429229
0.429025
0.463222
0.466405
0.539154
0.551832
0.716821
0.752558
0.397258
0.396488
0.397783
0.396776
0.398785
0.397558
0.400844
0.39939
0.404911
0.403367
0.412984
0.411759
0.429283
0.429402
0.463377
0.467238
0.539347
0.552384
0.715906
0.733626
0.397253
0.396481
0.397772
0.396775
0.398769
0.39756
0.400821
0.399401
0.40488
0.403404
0.412947
0.411859
0.429242
0.429643
0.463287
0.467676
0.538772
0.551465
0.712254
0.7085
0.397247
0.396472
0.397758
0.396773
0.398748
0.397558
0.400789
0.399404
0.404832
0.403422
0.412875
0.411919
0.429126
0.429786
0.46301
0.46782
0.537584
0.54935
0.706158
0.67721
0.397241
0.396461
0.397742
0.396768
0.398722
0.397551
0.400747
0.399398
0.404765
0.403421
0.412767
0.411935
0.42893
0.429819
0.462531
0.467637
0.535731
0.546029
0.697417
0.639524
0.397234
0.396447
0.397724
0.396762
0.398692
0.397541
0.400698
0.399383
0.404681
0.4034
0.412621
0.411904
0.42865
0.429737
0.461845
0.467122
0.533213
0.541564
0.685763
0.595024
0.397226
0.396429
0.397705
0.396752
0.398659
0.397525
0.400642
0.399356
0.404585
0.403355
0.412446
0.411822
0.428297
0.42953
0.460954
0.466245
0.530028
0.535965
0.671092
0.543311
0.397217
0.396411
0.397678
0.396739
0.398613
0.397506
0.400566
0.399328
0.404457
0.403311
0.41223
0.411741
0.427892
0.429323
0.459986
0.465328
0.526508
0.529977
0.654207
0.483244
0.397217
0.396411
0.397678
0.396739
0.398613
0.397506
0.400566
0.399328
0.404457
0.403311
0.41223
0.411741
0.427892
0.429323
0.459986
0.465328
0.526508
0.529977
0.654207
0.483244
0.397226
0.396429
0.397705
0.396752
0.398659
0.397525
0.400642
0.399356
0.404585
0.403355
0.412446
0.411822
0.428297
0.42953
0.460954
0.466245
0.530028
0.535965
0.671092
0.543311
0.397234
0.396447
0.397724
0.396762
0.398692
0.397541
0.400698
0.399383
0.404681
0.4034
0.412621
0.411904
0.42865
0.429737
0.461845
0.467121
0.533213
0.541564
0.685763
0.595024
0.397241
0.396461
0.397742
0.396768
0.398722
0.397551
0.400747
0.399398
0.404765
0.403421
0.412767
0.411935
0.42893
0.429819
0.462531
0.467637
0.535731
0.546029
0.697417
0.639524
0.397247
0.396472
0.397758
0.396773
0.398748
0.397558
0.400789
0.399404
0.404832
0.403422
0.412875
0.411919
0.429126
0.429786
0.46301
0.46782
0.537584
0.54935
0.706158
0.677209
0.397253
0.396481
0.397772
0.396775
0.398769
0.39756
0.400821
0.399401
0.40488
0.403404
0.412947
0.411859
0.429242
0.429643
0.463287
0.467676
0.538772
0.551465
0.712254
0.7085
0.397258
0.396488
0.397783
0.396776
0.398785
0.397558
0.400844
0.39939
0.404911
0.403367
0.412984
0.411759
0.429283
0.429402
0.463377
0.467238
0.539347
0.552384
0.715906
0.733626
0.397261
0.396492
0.397791
0.396774
0.398797
0.397551
0.400859
0.399368
0.404924
0.403307
0.41298
0.411605
0.429229
0.429025
0.463222
0.466405
0.539154
0.551832
0.716821
0.752558
0.397264
0.396494
0.397797
0.396773
0.398804
0.397543
0.400865
0.399346
0.404924
0.403248
0.412958
0.411459
0.429151
0.428671
0.463023
0.465584
0.538756
0.550706
0.716531
0.765018
0.397266
0.396493
0.3978
0.396764
0.398806
0.397522
0.400859
0.399292
0.40489
0.403116
0.412848
0.41114
0.428851
0.427898
0.462251
0.463663
0.53674
0.546307
0.71095
0.772246
0.0882939
0.0943373
0.0965338
0.0991368
0.100249
0.100534
0.0995764
0.0973563
0.093598
0.0880864
0.0803208
0.0701009
0.0562456
0.0384358
0.0144279
-0.0152103
-0.055964
-0.0988054
-0.153376
-0.140968
0.0943886
0.100771
0.103096
0.105943
0.107251
0.107772
0.107039
0.105051
0.101514
0.0962217
0.088665
0.0786575
0.0650388
0.0476741
0.0236908
-0.00551372
-0.0475337
-0.0909353
-0.146646
-0.147387
0.100615
0.107339
0.109816
0.112922
0.114467
0.115264
0.114818
0.113137
0.109921
0.104966
0.0977712
0.0881461
0.0749313
0.058179
0.0348726
0.00735397
-0.032555
-0.0696859
-0.121076
-0.111954
0.10697
0.114037
0.116685
0.120067
0.121883
0.122993
0.12289
0.121585
0.118781
0.114276
0.107587
0.0985131
0.0859554
0.0700161
0.0477766
0.0216228
-0.0164749
-0.0512772
-0.0994883
-0.0871227
0.113412
0.12083
0.123659
0.12733
0.129448
0.130904
0.1312
0.130345
0.128054
0.124127
0.11811
0.109783
0.0981288
0.0832253
0.0624356
0.0379526
0.00264181
-0.0291873
-0.0741499
-0.0621817
0.11988
0.127662
0.13066
0.134617
0.137045
0.138855
0.139575
0.139209
0.137497
0.13425
0.129052
0.121678
0.111206
0.0976497
0.0786958
0.0560953
0.0237422
-0.00613094
-0.0482971
-0.0372522
0.126371
0.134531
0.137671
0.141897
0.14462
0.146755
0.147871
0.147963
0.146798
0.144202
0.139814
0.133415
0.124204
0.112138
0.0952499
0.0748427
0.0459167
0.0183295
-0.0205184
-0.0113956
0.133096
0.141624
0.144932
0.149433
0.152461
0.154918
0.156413
0.156922
0.15623
0.154165
0.150402
0.144735
0.136503
0.12562
0.110448
0.0918742
0.0660039
0.0404523
0.00617959
0.0139434
0.14048
0.149283
0.152958
0.157812
0.161299
0.164253
0.166326
0.167469
0.167471
0.166145
0.163168
0.158321
0.151059
0.141247
0.127502
0.110327
0.0867404
0.0623773
0.0321758
0.0359678
0.148541
0.157461
0.161804
0.167135
0.171392
0.17524
0.178404
0.180832
0.182355
0.182817
0.181957
0.179589
0.175212
0.168663
0.158717
0.145579
0.12668
0.105678
0.0781486
0.0652162
0.0377192
0.0412545
0.0418481
0.0422097
0.0411117
0.038951
0.0353945
0.0303865
0.023704
0.0151438
0.00441928
-0.00878337
-0.0248468
-0.0437721
-0.0643957
-0.0852942
-0.104991
-0.115082
-0.127582
-0.110094
0.0419506
0.0458219
0.0465584
0.0471379
0.0462271
0.0442715
0.0409159
0.0361063
0.029602
0.0211809
0.0105254
-0.0027171
-0.0189996
-0.0384342
-0.0603483
-0.0839304
-0.106919
-0.116783
-0.132259
-0.123975
0.0463761
0.0505347
0.0514403
0.0522309
0.0515209
0.0497793
0.0466412
0.0420511
0.0357559
0.0275135
0.0169597
0.00364981
-0.0130369
-0.0334464
-0.0574537
-0.0846122
-0.111507
-0.123613
-0.14368
-0.139311
0.0509871
0.0554038
0.0564894
0.0574923
0.0569967
0.0554835
0.0525856
0.0482446
0.0422009
0.0342019
0.02386
0.010692
-0.00599973
-0.0267578
-0.0521419
-0.0822727
-0.113419
-0.132208
-0.154478
-0.157861
0.055777
0.0604369
0.0617039
0.0629227
0.0626513
0.0613809
0.0587445
0.0546822
0.0489307
0.0412302
0.0311701
0.0182328
0.00164768
-0.0193185
-0.0457912
-0.0781417
-0.113269
-0.141925
-0.16438
-0.179461
0.0607384
0.0656289
0.0670748
0.0685135
0.0684767
0.0674661
0.0651172
0.0613697
0.05596
0.0486282
0.0389533
0.0264123
0.0101931
-0.0106009
-0.0375655
-0.0713246
-0.110841
-0.150065
-0.173642
-0.20379
0.0658615
0.0709658
0.0725835
0.074246
0.074458
0.0737308
0.0717061
0.0683252
0.063329
0.0564639
0.0473052
0.0353391
0.0197355
-0.000491474
-0.027237
-0.0614774
-0.104925
-0.15289
-0.182529
-0.224895
0.0711456
0.0764402
0.0782195
0.0801111
0.0805888
0.0801681
0.0785042
0.0755427
0.0710367
0.0647498
0.0562674
0.0451071
0.030476
0.0114127
-0.0141288
-0.0476426
-0.0934876
-0.147709
-0.19158
-0.242682
0.0766203
0.0820946
0.0840275
0.0861542
0.0868973
0.0867757
0.0854581
0.0828963
0.0788567
0.0731231
0.0652928
0.0549334
0.041317
0.0236388
-9.29809e-05
-0.0317486
-0.0775278
-0.136574
-0.202293
-0.250661
0.0823379
0.0880424
0.0901213
0.092487
0.093448
0.0935579
0.0924706
0.0901449
0.0863392
0.0808391
0.0732167
0.0631105
0.0496919
0.0323503
0.00915962
-0.0212433
-0.0647596
-0.121999
-0.207454
-0.309811
-0.000610541
-0.00183673
-0.00309754
-0.00440627
-0.00575045
-0.00711567
-0.00848431
-0.00983784
-0.0111589
-0.0124319
-0.0136433
-0.0147823
-0.0158429
-0.0168129
-0.0176895
-0.0184701
-0.0191538
-0.0197411
-0.0202343
-0.0206368
-0.0209531
-0.021189
-0.0213507
-0.0214454
-0.0214809
-0.0214653
-0.0214073
-0.0213152
-0.0211973
-0.021062
-0.0209171
-0.0207702
-0.0206284
-0.0204982
-0.0203854
-0.0202953
-0.0202326
-0.0202013
-0.0202043
-0.0202443
-0.0203234
-0.0204435
-0.0206058
-0.020811
-0.0210596
-0.0213518
-0.0216875
-0.0220664
-0.022488
-0.0229517
-0.0234568
-0.0240027
-0.0245884
-0.0252133
-0.0258765
-0.0265773
-0.0273148
-0.0280883
-0.0288972
-0.0297405
-0.0306176
-0.0315291
-0.0324763
-0.0334548
-0.034465
-0.0355064
-0.0365785
-0.0376809
-0.0388131
-0.0399747
-0.0411642
-0.0423809
-0.0436263
-0.0449015
-0.0462006
-0.0475224
-0.0488652
-0.0502267
-0.0516038
-0.0529928
-0.0543891
-0.0557871
-0.0571799
-0.0585592
-0.0599149
-0.0612343
-0.0625032
-0.0637014
-0.0648104
-0.0657932
-0.0666364
-0.0672531
-0.0676894
-0.0676763
-0.0675803
-0.0665062
-0.0659994
-0.0634552
-0.0631807
-0.0594671
-0.000609894
-0.00183663
-0.0030986
-0.00441019
-0.00575799
-0.00712716
-0.00849977
-0.00985712
-0.0111817
-0.012458
-0.0136727
-0.0148145
-0.0158731
-0.0168419
-0.0177173
-0.0184964
-0.0191783
-0.0197636
-0.0202546
-0.0206548
-0.0209688
-0.0212023
-0.0213617
-0.0214544
-0.0214881
-0.021471
-0.0214114
-0.0213177
-0.0211985
-0.021062
-0.0209162
-0.0207687
-0.0206266
-0.0204963
-0.0203838
-0.0202942
-0.0202322
-0.0202015
-0.0202057
-0.0202473
-0.0203287
-0.0204514
-0.0206165
-0.020825
-0.0210772
-0.0213733
-0.0217131
-0.0220964
-0.0225226
-0.0229911
-0.0235014
-0.0240525
-0.0246438
-0.0252745
-0.0259438
-0.0266509
-0.0273951
-0.0281757
-0.0289921
-0.029844
-0.0307312
-0.0316516
-0.0326014
-0.0335846
-0.0346
-0.0356469
-0.0367253
-0.0378347
-0.0389741
-0.0401427
-0.0413415
-0.0425713
-0.0438235
-0.0451
-0.0464006
-0.0477251
-0.0490709
-0.0504353
-0.0518152
-0.0532065
-0.0546046
-0.0560036
-0.0573964
-0.0587744
-0.0601274
-0.0614423
-0.0627044
-0.0638933
-0.0649895
-0.0659566
-0.0667786
-0.0673724
-0.0677768
-0.0677473
-0.0676317
-0.0665512
-0.0660547
-0.063567
-0.0634797
-0.0603255
-0.000607257
-0.00183277
-0.00309469
-0.00440944
-0.00576169
-0.00713577
-0.00851325
-0.00987501
-0.0112034
-0.0124825
-0.0136987
-0.0148406
-0.0159026
-0.0168731
-0.0177491
-0.0185281
-0.0192092
-0.0197933
-0.0202826
-0.0206808
-0.0209925
-0.0212234
-0.0213802
-0.0214702
-0.0215011
-0.0214813
-0.0214189
-0.0213228
-0.0212013
-0.0210628
-0.0209153
-0.0207664
-0.0206233
-0.0204923
-0.0203795
-0.02029
-0.0202284
-0.0201985
-0.0202037
-0.0202466
-0.0203295
-0.020454
-0.0206211
-0.0208317
-0.0210861
-0.0213845
-0.0217267
-0.0221124
-0.0225411
-0.0230121
-0.0235247
-0.0240782
-0.0246718
-0.0253046
-0.0259758
-0.0266846
-0.0274302
-0.0282118
-0.0290287
-0.0298798
-0.030764
-0.0316805
-0.0326381
-0.0336246
-0.0346436
-0.0356942
-0.036775
-0.0378855
-0.0390266
-0.0401987
-0.0413972
-0.0426176
-0.0438794
-0.0451637
-0.0464725
-0.0478039
-0.0491559
-0.050526
-0.0519113
-0.0533077
-0.0547105
-0.0561138
-0.0575106
-0.058892
-0.0602478
-0.0615647
-0.0628278
-0.0640166
-0.0651111
-0.0660754
-0.0668919
-0.0674808
-0.0678773
-0.0678405
-0.0677071
-0.066624
-0.0661846
-0.0637248
-0.0639269
-0.0612708
-0.000602778
-0.00182594
-0.003087
-0.00440571
-0.00576388
-0.00714464
-0.00852883
-0.00989688
-0.0112308
-0.0125148
-0.0137354
-0.0148816
-0.0159434
-0.0169144
-0.0177905
-0.0185691
-0.0192492
-0.0198318
-0.0203191
-0.020715
-0.021024
-0.0212521
-0.0214058
-0.0214925
-0.0215201
-0.0214969
-0.0214314
-0.0213322
-0.0212078
-0.0210667
-0.0209169
-0.020766
-0.0206212
-0.020489
-0.0203752
-0.0202851
-0.0202234
-0.0201938
-0.0201996
-0.0202435
-0.0203277
-0.0204537
-0.0206227
-0.0208354
-0.0210922
-0.0213932
-0.0217383
-0.022127
-0.0225589
-0.0230333
-0.0235495
-0.0241068
-0.0247043
-0.0253412
-0.0260168
-0.0267303
-0.027481
-0.0282681
-0.0290911
-0.0299495
-0.0308434
-0.0317726
-0.0327265
-0.0337205
-0.0347432
-0.0357968
-0.0368829
-0.0380007
-0.0391474
-0.0403196
-0.0415231
-0.0427676
-0.0440234
-0.0453065
-0.0466155
-0.047948
-0.0493018
-0.050674
-0.0520614
-0.05346
-0.0548649
-0.05627
-0.0576682
-0.0590508
-0.060407
-0.0617238
-0.0629861
-0.0641735
-0.0652658
-0.0662279
-0.0670411
-0.0676298
-0.0680255
-0.0679986
-0.0678859
-0.0668287
-0.066524
-0.0640944
-0.0647544
-0.0625355
-0.000596085
-0.00181597
-0.00307539
-0.00439897
-0.0057645
-0.00715352
-0.00854601
-0.00992176
-0.0112625
-0.0125521
-0.0137768
-0.0149242
-0.0159906
-0.0169636
-0.0178403
-0.0186186
-0.0192978
-0.0198788
-0.020364
-0.0207572
-0.0210633
-0.021288
-0.0214382
-0.0215212
-0.0215449
-0.0215179
-0.0214486
-0.0213456
-0.0212178
-0.0210735
-0.0209207
-0.0207672
-0.0206202
-0.0204861
-0.020371
-0.0202799
-0.0202175
-0.0201878
-0.0201939
-0.0202385
-0.0203237
-0.0204511
-0.0206218
-0.0208365
-0.0210956
-0.0213991
-0.0217468
-0.0221384
-0.0225734
-0.0230509
-0.0235704
-0.0241309
-0.0247318
-0.0253721
-0.026051
-0.0267677
-0.0275214
-0.0283114
-0.0291368
-0.0299969
-0.0308906
-0.0318175
-0.0327797
-0.0337675
-0.0347954
-0.0358552
-0.0369438
-0.0380609
-0.0392102
-0.0403979
-0.0416121
-0.0428432
-0.0441086
-0.0454006
-0.046717
-0.0480561
-0.0494158
-0.0507938
-0.0521866
-0.0535904
-0.0550002
-0.0564102
-0.0578129
-0.0591997
-0.0605598
-0.0618803
-0.0631459
-0.0643365
-0.0654318
-0.066398
-0.0672157
-0.0678136
-0.0682208
-0.0682194
-0.0681502
-0.0671436
-0.0670289
-0.0646314
-0.0659016
-0.0640328
-0.000586726
-0.00180281
-0.00305984
-0.00438926
-0.0057636
-0.00716244
-0.00856475
-0.00994959
-0.0112983
-0.0125947
-0.0138252
-0.0149797
-0.0160456
-0.0170203
-0.0178978
-0.018676
-0.0193543
-0.0199336
-0.0204166
-0.0208069
-0.0211097
-0.0213307
-0.0214769
-0.0215557
-0.0215751
-0.0215437
-0.02147
-0.0213628
-0.0212309
-0.0210827
-0.0209265
-0.0207699
-0.02062
-0.0204836
-0.0203666
-0.0202741
-0.0202107
-0.0201804
-0.0201865
-0.0202314
-0.0203174
-0.020446
-0.0206182
-0.0208348
-0.0210961
-0.021402
-0.0217524
-0.0221468
-0.0225848
-0.0230655
-0.0235883
-0.0241522
-0.0247566
-0.0254006
-0.0260832
-0.0268038
-0.0275616
-0.0283558
-0.0291858
-0.030051
-0.0309511
-0.0318853
-0.0328523
-0.0338559
-0.0348846
-0.035945
-0.0370395
-0.0381673
-0.0393241
-0.0405028
-0.0417123
-0.0429551
-0.0442228
-0.0455165
-0.0468354
-0.0481776
-0.0495409
-0.0509227
-0.0523195
-0.0537273
-0.0551413
-0.0565554
-0.0579623
-0.0593532
-0.0607176
-0.0620424
-0.0633124
-0.0645081
-0.065609
-0.0665829
-0.0674102
-0.0680248
-0.0684534
-0.0684913
-0.0684819
-0.0675479
-0.0676663
-0.0653004
-0.0673531
-0.0656815
-0.000574074
-0.00178636
-0.00304033
-0.00437668
-0.00576132
-0.00717149
-0.00858504
-0.00998025
-0.0113381
-0.0126422
-0.0138788
-0.0150365
-0.0161069
-0.017084
-0.0179626
-0.0187408
-0.0194181
-0.0199957
-0.0204762
-0.0208634
-0.0211626
-0.0213796
-0.0215214
-0.0215955
-0.0216102
-0.0215738
-0.0214953
-0.0213833
-0.0212468
-0.0210943
-0.020934
-0.0207737
-0.0206206