/*--------------------------------*- C++ -*----------------------------------*\
  =========                 |
  \\      /  F ield         | OpenFOAM: The Open Source CFD Toolbox
   \\    /   O peration     | Website:  https://openfoam.org
    \\  /    A nd           | Version:  7
     \\/     M anipulation  |
\*---------------------------------------------------------------------------*/
FoamFile
{
    version     2.0;
    format      ascii;
    class       volVectorField;
    location    "72";
    object      U;
}
// * * * * * * * * * * * * * * * * * * * * * * * * * * * * * * * * * * * * * //

dimensions      [0 1 -1 0 0 0 0];

internalField   nonuniform List<vector> 
8000
(
(-0.254603 -0.000270744 -5.1271e-20)
(-0.255181 -0.000797994 2.21593e-19)
(-0.256002 -0.00145851 -2.25065e-19)
(-0.25717 -0.00200208 6.09846e-19)
(-0.258496 -0.00235505 -4.77174e-19)
(-0.259878 -0.00251421 -6.01994e-19)
(-0.261244 -0.00248978 9.87438e-19)
(-0.262535 -0.00230101 2.96183e-19)
(-0.263703 -0.00197117 2.37238e-19)
(-0.264715 -0.00152345 2.96899e-19)
(-0.265542 -0.000979971 -8.36552e-19)
(-0.26616 -0.000360724 -7.42808e-19)
(-0.266556 0.000314602 -5.1858e-18)
(-0.266722 0.00102639 -1.38646e-18)
(-0.266648 0.00176481 8.1398e-19)
(-0.266331 0.00251653 9.4046e-19)
(-0.265773 0.00326968 3.69104e-18)
(-0.264975 0.00401381 -7.65529e-19)
(-0.263944 0.00473961 1.14317e-18)
(-0.262687 0.00543863 1.61749e-19)
(-0.261214 0.00610321 1.48158e-18)
(-0.259538 0.00672636 2.44663e-18)
(-0.257672 0.00730174 7.79202e-19)
(-0.255631 0.00782368 -5.70605e-19)
(-0.253433 0.00828713 4.72235e-20)
(-0.251096 0.00868787 9.97988e-19)
(-0.248639 0.00902265 -2.47106e-19)
(-0.246083 0.00928917 1.72826e-18)
(-0.243447 0.00948616 6.49647e-20)
(-0.240753 0.00961339 -3.09991e-20)
(-0.238021 0.00967164 7.51948e-19)
(-0.235272 0.0096627 7.95416e-20)
(-0.232523 0.00958926 3.45062e-18)
(-0.229793 0.00945485 -4.61036e-19)
(-0.227099 0.00926375 -2.39047e-18)
(-0.224456 0.00902085 -3.36464e-20)
(-0.221877 0.00873158 1.72666e-19)
(-0.219373 0.00840179 3.46489e-18)
(-0.216953 0.00803761 1.38132e-18)
(-0.214626 0.00764543 3.77915e-18)
(-0.212396 0.00723168 9.6044e-19)
(-0.210268 0.00680267 6.12406e-19)
(-0.208242 0.00636447 3.75587e-18)
(-0.206318 0.00592282 -4.37591e-19)
(-0.204496 0.00548302 1.34094e-19)
(-0.202771 0.00504986 4.02115e-19)
(-0.201139 0.00462759 -3.14831e-18)
(-0.199595 0.00421986 -4.34353e-19)
(-0.198132 0.00382976 1.91451e-19)
(-0.196743 0.00345975 5.42463e-19)
(-0.19542 0.0031118 5.38333e-19)
(-0.194155 0.00278739 -7.80713e-19)
(-0.192939 0.00248761 -9.21152e-19)
(-0.191762 0.00221322 -1.69629e-18)
(-0.190617 0.00196473 -1.17397e-18)
(-0.189494 0.00174245 -7.85227e-20)
(-0.188384 0.00154658 -1.19223e-18)
(-0.187277 0.00137718 1.40945e-19)
(-0.186164 0.00123425 -6.98131e-19)
(-0.185036 0.00111771 3.87468e-19)
(-0.183885 0.00102743 4.59526e-18)
(-0.182701 0.000963262 9.72178e-19)
(-0.181476 0.000925312 5.34661e-18)
(-0.180202 0.000912998 1.92066e-19)
(-0.17887 0.00092618 5.4367e-19)
(-0.177473 0.000964331 3.14656e-18)
(-0.176002 0.00102752 1.39682e-18)
(-0.17445 0.00111582 7.12826e-18)
(-0.172809 0.00122942 1.7492e-18)
(-0.17107 0.00136918 4.83913e-19)
(-0.169225 0.00153592 6.82963e-18)
(-0.167265 0.00173171 3.72241e-18)
(-0.165182 0.00195847 9.57704e-18)
(-0.162965 0.00221885 1.62754e-18)
(-0.160604 0.00251621 2.44909e-18)
(-0.158089 0.00285482 -2.50687e-18)
(-0.155407 0.00323989 -2.18728e-18)
(-0.152545 0.00367777 4.60064e-18)
(-0.14949 0.00417598 7.9302e-18)
(-0.146227 0.00474366 8.50532e-19)
(-0.142739 0.0053918 6.90959e-18)
(-0.139009 0.00613376 2.92298e-18)
(-0.135019 0.00698579 8.94579e-18)
(-0.130749 0.00796793 -4.2213e-18)
(-0.126178 0.00910499 6.41419e-18)
(-0.121287 0.0104282 7.22478e-18)
(-0.116056 0.0119764 9.60942e-18)
(-0.110469 0.0138033 -2.84739e-18)
(-0.104511 0.0159701 6.66325e-18)
(-0.0981924 0.0185675 -6.63923e-18)
(-0.091516 0.0217003 -2.07025e-18)
(-0.084587 0.0255369 -2.03664e-18)
(-0.0774056 0.0302339 -3.62649e-19)
(-0.0705192 0.0361066 -9.66277e-20)
(-0.0634002 0.0433654 -2.96071e-19)
(-0.0590137 0.0519956 3.0122e-18)
(-0.0526029 0.0632434 2.67808e-20)
(-0.0559595 0.0709882 -1.47753e-17)
(-0.0469991 0.0838284 -3.96561e-18)
(-0.0369859 0.0507787 -2.18524e-17)
(-0.268787 -0.000191596 -6.955e-20)
(-0.269206 -0.000618239 2.73774e-20)
(-0.269871 -0.00117646 -1.49317e-19)
(-0.270856 -0.00164983 2.62292e-19)
(-0.272007 -0.00196717 -4.66168e-19)
(-0.27323 -0.00211771 -1.13094e-18)
(-0.274452 -0.0021058 -2.24286e-19)
(-0.275611 -0.00194631 1.612e-19)
(-0.276658 -0.00165894 6.77457e-20)
(-0.277555 -0.00126392 7.79537e-20)
(-0.27827 -0.000781239 -3.05871e-19)
(-0.278779 -0.000228773 -1.34426e-18)
(-0.279066 0.000374083 -4.60073e-18)
(-0.279119 0.00101261 -1.50967e-18)
(-0.278929 0.00167599 1.97931e-18)
(-0.278492 0.00235209 1.55448e-18)
(-0.277808 0.00303015 1.78189e-18)
(-0.27688 0.00370066 -3.18173e-19)
(-0.275713 0.00435508 2.58514e-18)
(-0.274314 0.0049857 1.21581e-19)
(-0.272695 0.00558551 1.88649e-19)
(-0.270868 0.00614813 5.33179e-18)
(-0.268846 0.00666779 3.72516e-18)
(-0.266645 0.00713931 -1.39188e-18)
(-0.264284 0.00755805 -1.34149e-19)
(-0.261782 0.0079201 1.35759e-18)
(-0.259157 0.00822257 -1.33246e-18)
(-0.256432 0.00846338 3.13565e-18)
(-0.253627 0.00864133 -9.01424e-19)
(-0.250765 0.00875614 -6.81516e-19)
(-0.247866 0.00880846 1.08899e-18)
(-0.244951 0.00879982 -7.14348e-19)
(-0.242041 0.00873258 1.28402e-18)
(-0.239155 0.00860983 -2.6079e-18)
(-0.236309 0.00843535 -3.43446e-19)
(-0.23352 0.00821349 -1.15252e-19)
(-0.230803 0.00794907 -1.77758e-19)
(-0.22817 0.00764732 1.49658e-18)
(-0.225631 0.00731378 1.65847e-18)
(-0.223195 0.00695434 1.8699e-18)
(-0.220868 0.00657479 6.64452e-19)
(-0.218655 0.00618075 3.90487e-19)
(-0.216558 0.00577769 1.79053e-18)
(-0.214577 0.0053708 -2.38028e-18)
(-0.212713 0.00496489 -3.65849e-19)
(-0.210962 0.00456433 9.45335e-20)
(-0.20932 0.00417301 -1.40909e-18)
(-0.207782 0.00379426 -3.57817e-19)
(-0.206343 0.0034309 4.13098e-20)
(-0.204994 0.00308522 5.74677e-19)
(-0.20373 0.00275902 3.68033e-19)
(-0.20254 0.00245366 9.14431e-19)
(-0.201418 0.00217016 -1.27911e-18)
(-0.200354 0.0019092 -3.45992e-19)
(-0.19934 0.00167129 -1.94415e-18)
(-0.198366 0.00145671 -3.2908e-19)
(-0.197423 0.00126565 -3.5006e-18)
(-0.196501 0.0010982 -2.44768e-19)
(-0.195593 0.000954364 -2.18577e-18)
(-0.194688 0.000834079 3.41807e-19)
(-0.193778 0.000737223 1.21366e-18)
(-0.192854 0.000663676 4.44568e-19)
(-0.191907 0.00061364 2.25117e-18)
(-0.190929 0.000586447 -1.80114e-18)
(-0.189911 0.000582781 -1.78998e-19)
(-0.188846 0.000601606 5.72527e-18)
(-0.187725 0.000642606 1.32724e-18)
(-0.18654 0.000705794 3.24527e-18)
(-0.185283 0.0007917 1.01993e-18)
(-0.183945 0.000901761 4.20132e-19)
(-0.182519 0.00103586 3.05139e-18)
(-0.180995 0.00119567 6.62464e-18)
(-0.179364 0.00138321 7.87607e-18)
(-0.177617 0.00160088 1.38817e-18)
(-0.175742 0.00185166 4.63422e-18)
(-0.173728 0.00213942 -5.93103e-18)
(-0.171563 0.00246893 -5.11219e-18)
(-0.169233 0.00284606 1.05129e-17)
(-0.166724 0.00327773 1.66279e-18)
(-0.164017 0.00377244 2.50958e-20)
(-0.161096 0.00434042 -2.70065e-19)
(-0.157941 0.00499416 3.98944e-18)
(-0.154528 0.00574896 3.09889e-18)
(-0.150834 0.00662378 -1.14771e-17)
(-0.146832 0.0076422 -1.98266e-18)
(-0.142493 0.00883433 -3.21164e-18)
(-0.137785 0.0102376 2.42284e-18)
(-0.132678 0.0119043 -9.28321e-18)
(-0.127134 0.0138958 -2.61586e-18)
(-0.121136 0.0163027 -1.58645e-17)
(-0.11464 0.0192336 -2.60028e-18)
(-0.107703 0.0228603 -3.57132e-18)
(-0.100214 0.0273678 -8.51027e-19)
(-0.0926458 0.0330513 -1.91199e-19)
(-0.0842308 0.0402895 -5.15567e-20)
(-0.0776403 0.0488505 6.70052e-18)
(-0.0680494 0.0606085 1.5755e-19)
(-0.0651771 0.068302 -1.17886e-17)
(-0.0500565 0.0803241 -3.64467e-18)
(-0.0252725 0.0465527 -1.00836e-17)
(-0.281484 -0.000135286 -6.75573e-21)
(-0.281786 -0.000476837 -1.33319e-19)
(-0.282324 -0.000942883 -1.73768e-19)
(-0.283154 -0.00134781 1.01275e-19)
(-0.284152 -0.00162735 -9.33549e-19)
(-0.285232 -0.00176554 -4.46341e-19)
(-0.286324 -0.00176247 9.19112e-19)
(-0.287364 -0.00162925 2.61122e-19)
(-0.2883 -0.00138216 -1.05617e-19)
(-0.289093 -0.00103856 -8.45646e-20)
(-0.289708 -0.000616171 -1.27653e-19)
(-0.290119 -0.000130391 8.7313e-19)
(-0.290308 0.000400363 -2.84623e-18)
(-0.290261 0.000965374 -1.48172e-18)
(-0.289968 0.00155301 2.07434e-19)
(-0.289425 0.00215253 2.92809e-18)
(-0.28863 0.00275433 7.04226e-19)
(-0.287586 0.00334986 -3.68166e-19)
(-0.286298 0.00393144 5.05915e-19)
(-0.284774 0.00449214 -5.11283e-19)
(-0.283024 0.00502567 -6.08857e-19)
(-0.281061 0.0055263 6.15178e-18)
(-0.2789 0.00598885 2.20983e-18)
(-0.276556 0.00640868 1.74149e-18)
(-0.274049 0.00678169 -2.6461e-21)
(-0.271397 0.00710437 2.6978e-18)
(-0.268621 0.0073741 -3.51671e-18)
(-0.265743 0.00758897 1.32369e-18)
(-0.262785 0.00774787 -3.37315e-18)
(-0.259769 0.00785049 -1.543e-18)
(-0.256718 0.00789735 2.22598e-18)
(-0.253652 0.00788976 -2.0501e-18)
(-0.250594 0.00782973 -2.41693e-20)
(-0.247562 0.00771997 -1.36125e-18)
(-0.244576 0.00756377 2.02756e-18)
(-0.241652 0.00736494 -2.19881e-19)
(-0.238807 0.00712774 -6.61463e-19)
(-0.236052 0.00685676 7.99718e-19)
(-0.2334 0.00655694 2.86093e-18)
(-0.23086 0.0062334 1.08599e-18)
(-0.228439 0.00589127 4.34467e-19)
(-0.226143 0.00553554 4.05343e-19)
(-0.223975 0.00517108 1.03502e-18)
(-0.221936 0.00480254 -6.58972e-19)
(-0.220026 0.00443421 -5.54902e-19)
(-0.218243 0.00407003 -6.30341e-20)
(-0.216584 0.00371348 -8.25762e-19)
(-0.215043 0.00336759 -1.03599e-19)
(-0.213616 0.00303491 2.07194e-20)
(-0.212295 0.00271751 8.2189e-19)
(-0.211073 0.00241704 3.76688e-19)
(-0.209942 0.00213474 3.2014e-18)
(-0.208894 0.00187156 -2.64604e-18)
(-0.207921 0.00162814 9.89317e-19)
(-0.207013 0.00140494 -4.26573e-18)
(-0.206162 0.00120225 -4.34517e-19)
(-0.205358 0.00102028 -7.71608e-19)
(-0.204592 0.000859137 2.79995e-20)
(-0.203856 0.000718883 2.59995e-18)
(-0.203139 0.000599519 6.26118e-19)
(-0.202434 0.000500997 -1.20546e-18)
(-0.201731 0.000423271 -2.54431e-19)
(-0.201022 0.000366685 9.507e-19)
(-0.200297 0.000330941 -5.58174e-18)
(-0.199548 0.000314681 -5.70234e-19)
(-0.198768 0.000318195 2.60334e-18)
(-0.197948 0.000342055 1.46907e-18)
(-0.197079 0.000386297 1.63445e-18)
(-0.196153 0.00045058 5.63396e-19)
(-0.195162 0.000534555 1.64616e-19)
(-0.194097 0.000639734 1.39044e-18)
(-0.192949 0.000768775 1.78798e-18)
(-0.191709 0.000922361 -1.32382e-18)
(-0.190367 0.00110259 5.46596e-19)
(-0.188912 0.00131221 1.03055e-17)
(-0.187331 0.00155471 -1.43312e-18)
(-0.185613 0.00183443 3.46203e-18)
(-0.183741 0.00215663 1.07856e-17)
(-0.181701 0.00252764 -5.19704e-18)
(-0.179475 0.00295519 -9.67204e-19)
(-0.177042 0.00344863 -7.60236e-18)
(-0.174379 0.00401944 7.77824e-18)
(-0.171462 0.00468168 -9.55236e-19)
(-0.16826 0.00545289 -1.17724e-17)
(-0.164742 0.00635496 -9.59091e-18)
(-0.160871 0.00741601 -1.58144e-17)
(-0.156603 0.00867118 -1.95338e-18)
(-0.151894 0.0101696 -4.50503e-18)
(-0.146685 0.0119702 -1.15409e-17)
(-0.140931 0.0141597 -1.67566e-17)
(-0.134543 0.0168447 -2.63541e-18)
(-0.127533 0.0201909 -7.04719e-18)
(-0.119679 0.0243968 -1.39075e-18)
(-0.11137 0.0297335 7.38753e-20)
(-0.101617 0.0366949 1.27664e-19)
(-0.0927739 0.0448956 1.37099e-17)
(-0.0800322 0.0565095 1.21382e-18)
(-0.0713494 0.0639477 -1.77162e-17)
(-0.0512303 0.0743357 -3.87656e-18)
(-0.0196575 0.0431096 -7.48824e-18)
(-0.292659 -9.51502e-05 4.06644e-20)
(-0.292878 -0.000366901 -4.00016e-19)
(-0.293314 -0.000749518 -2.81932e-19)
(-0.294017 -0.00108969 2.04804e-21)
(-0.294883 -0.00133033 -5.55814e-19)
(-0.29584 -0.00145326 2.15405e-19)
(-0.296816 -0.00145575 5.74307e-19)
(-0.29775 -0.00134578 2.83426e-19)
(-0.298588 -0.00113648 -4.36058e-19)
(-0.299288 -0.000842356 -2.08293e-19)
(-0.299814 -0.000478808 5.60268e-20)
(-0.300139 -5.86643e-05 -4.19032e-19)
(-0.300242 0.000400051 -3.21161e-18)
(-0.300107 0.000890221 -1.71058e-18)
(-0.299725 0.00140082 -1.01672e-18)
(-0.299088 0.00192243 1.30722e-18)
(-0.298196 0.00244658 -6.44233e-19)
(-0.297051 0.00296572 -8.26616e-19)
(-0.295658 0.00347306 -1.08148e-18)
(-0.294024 0.00396248 -1.67107e-18)
(-0.29216 0.00442843 -1.30118e-18)
(-0.290079 0.00486587 6.06519e-18)
(-0.287795 0.00527023 7.57929e-19)
(-0.285325 0.00563741 -1.59236e-19)
(-0.282688 0.00596384 1.98944e-20)
(-0.279904 0.00624641 -5.92173e-20)
(-0.276994 0.00648277 -2.8889e-18)
(-0.273981 0.00667119 1.19207e-18)
(-0.270886 0.00681067 -2.77115e-18)
(-0.267733 0.0069009 -2.56009e-18)
(-0.264545 0.0069423 -3.38519e-19)
(-0.261344 0.00693594 4.86332e-20)
(-0.258152 0.00688355 -8.45383e-19)
(-0.25499 0.00678744 -9.90364e-19)
(-0.251876 0.00665042 8.18648e-19)
(-0.24883 0.00647579 -9.59382e-19)
(-0.245867 0.00626722 -1.64099e-18)
(-0.243001 0.0060287 9.55303e-19)
(-0.240245 0.00576447 3.64859e-19)
(-0.237608 0.00547898 4.72007e-19)
(-0.2351 0.00517671 2.1238e-19)
(-0.232725 0.00486206 5.55044e-19)
(-0.230489 0.00453929 8.15208e-19)
(-0.228392 0.00421247 3.01284e-19)
(-0.226436 0.00388539 -1.15758e-18)
(-0.224618 0.00356152 -1.87192e-19)
(-0.222937 0.00324392 -7.91176e-19)
(-0.221387 0.00293529 9.06432e-20)
(-0.219963 0.00263789 1.59502e-19)
(-0.218658 0.00235356 1.52061e-18)
(-0.217467 0.00208377 5.71122e-19)
(-0.21638 0.00182964 1.03076e-18)
(-0.21539 0.001592 2.21311e-19)
(-0.214488 0.00137145 3.46642e-18)
(-0.213666 0.00116838 -2.81661e-18)
(-0.212915 0.000983077 6.07107e-20)
(-0.212225 0.00081572 1.45387e-18)
(-0.211587 0.000666421 5.12624e-19)
(-0.210994 0.000535222 1.31042e-18)
(-0.210435 0.000422088 8.57415e-19)
(-0.209901 0.000326835 -4.78884e-18)
(-0.209384 0.000249421 -6.03755e-19)
(-0.208874 0.000190561 3.76074e-19)
(-0.208364 0.000148001 -4.47334e-18)
(-0.207844 0.000126425 -2.13415e-19)
(-0.207305 0.000121754 1.52124e-18)
(-0.20674 0.000132886 1.77377e-18)
(-0.20614 0.000159724 1.16757e-18)
(-0.205496 0.000203403 4.89305e-19)
(-0.2048 0.000268841 3.55924e-19)
(-0.204043 0.000352365 7.48174e-19)
(-0.203215 0.000453908 -1.82853e-18)
(-0.202309 0.000577381 7.87001e-20)
(-0.201312 0.000724314 6.22429e-19)
(-0.200214 0.000896733 1.04392e-17)
(-0.199002 0.00109767 -5.09697e-19)
(-0.197664 0.00133096 1.25403e-18)
(-0.196183 0.00160129 4.35041e-18)
(-0.194544 0.00191429 -3.17066e-18)
(-0.192726 0.00227684 -1.49162e-18)
(-0.190707 0.0026973 -4.94112e-18)
(-0.188464 0.00318593 2.584e-18)
(-0.185967 0.00375539 -6.86475e-18)
(-0.183183 0.00442147 -3.75406e-18)
(-0.180074 0.00520398 -4.2309e-18)
(-0.176596 0.00612848 -2.02064e-17)
(-0.172696 0.00722708 -4.03098e-18)
(-0.168317 0.00854467 -2.85955e-18)
(-0.163379 0.0101361 -8.81411e-18)
(-0.157816 0.0120818 -9.57904e-18)
(-0.151494 0.0144831 -1.16741e-18)
(-0.144382 0.0174933 -1.51502e-17)
(-0.13616 0.0213149 -2.20256e-18)
(-0.12713 0.0261796 2.00933e-19)
(-0.11611 0.0326473 -8.55141e-20)
(-0.105135 0.0402287 1.16024e-17)
(-0.0894926 0.051201 1.67016e-18)
(-0.0756895 0.0582025 -1.65554e-17)
(-0.0514732 0.0669045 -3.52424e-18)
(-0.016835 0.0395949 -1.1669e-17)
(-0.302286 -6.65536e-05 1.04789e-19)
(-0.302445 -0.000279912 -4.95656e-19)
(-0.302804 -0.000587811 -4.7884e-19)
(-0.303402 -0.000867098 -4.66815e-20)
(-0.30416 -0.0010687 -5.4863e-19)
(-0.305011 -0.00117438 1.22929e-18)
(-0.305888 -0.00117989 5.75132e-19)
(-0.30673 -0.00109067 3.30756e-19)
(-0.307482 -0.000917066 -1.15717e-18)
(-0.308102 -0.000670904 -4.14325e-19)
(-0.308551 -0.000365126 3.07255e-19)
(-0.308801 -9.13265e-06 -2.07191e-18)
(-0.308831 0.00037659 -1.5281e-18)
(-0.308621 0.000791407 -2.42358e-18)
(-0.308162 0.00122426 -2.28531e-18)
(-0.307446 0.00166698 9.22693e-19)
(-0.306472 0.00211231 -2.8014e-18)
(-0.30524 0.00255375 -1.85019e-18)
(-0.303757 0.00298547 -3.29492e-18)
(-0.302029 0.00340221 -3.8082e-18)
(-0.300067 0.0037992 -2.00927e-18)
(-0.297884 0.00417212 1.05857e-17)
(-0.295495 0.00451704 -1.61451e-18)
(-0.292916 0.00483044 -2.42831e-18)
(-0.290168 0.00510925 -1.49496e-20)
(-0.28727 0.00535076 -2.95536e-18)
(-0.284244 0.0055529 -4.26867e-18)
(-0.281112 0.0057142 2.46198e-18)
(-0.277898 0.00583375 -4.57085e-18)
(-0.274626 0.00591128 -4.75201e-18)
(-0.271318 0.00594709 -2.52774e-18)
(-0.267998 0.00594208 2.29001e-18)
(-0.264689 0.00589766 -2.27695e-18)
(-0.261412 0.00581576 -8.6459e-19)
(-0.258186 0.00569876 1.62245e-19)
(-0.255031 0.00554941 -2.71599e-18)
(-0.251964 0.0053708 -3.46019e-18)
(-0.248998 0.00516631 2.09864e-18)
(-0.246149 0.00493951 -1.94875e-18)
(-0.243425 0.00469424 1.38898e-19)
(-0.240837 0.00443433 -9.46813e-21)
(-0.238391 0.00416352 1.15678e-18)
(-0.236091 0.00388545 1.05861e-18)
(-0.23394 0.00360361 1.29983e-18)
(-0.23194 0.00332122 -2.58219e-18)
(-0.230087 0.00304126 -2.49525e-19)
(-0.228382 0.00276638 -1.40911e-18)
(-0.226818 0.00249887 7.10703e-19)
(-0.225392 0.00224068 3.66643e-19)
(-0.224097 0.00199341 3.32485e-18)
(-0.222925 0.00175833 7.00031e-19)
(-0.221871 0.00153641 -6.93476e-19)
(-0.220925 0.00132837 3.00771e-18)
(-0.220079 0.00113473 8.3493e-18)
(-0.219324 0.000955843 -4.00801e-18)
(-0.218653 0.000791972 1.26687e-18)
(-0.218055 0.00064329 4.94341e-18)
(-0.217522 0.000509933 1.0765e-18)
(-0.217045 0.000391995 9.19411e-19)
(-0.216615 0.000289567 1.2478e-18)
(-0.216223 0.000202694 -1.19239e-17)
(-0.215859 0.000131476 -8.15294e-19)
(-0.215516 7.55537e-05 -3.32882e-20)
(-0.215182 3.83585e-05 -6.44292e-18)
(-0.21485 1.05625e-05 8.56302e-19)
(-0.214514 -2.13987e-06 1.52371e-18)
(-0.214163 7.5727e-07 3.17215e-18)
(-0.213787 1.93567e-05 1.15353e-18)
(-0.213378 5.36377e-05 6.3191e-19)
(-0.212927 9.67612e-05 6.72962e-19)
(-0.212429 0.00015543 6.81678e-19)
(-0.21187 0.000236028 4.73183e-18)
(-0.211242 0.000333283 1.84797e-18)
(-0.210534 0.00044995 1.29037e-18)
(-0.209735 0.000588259 5.00979e-18)
(-0.208833 0.000750852 -2.0886e-18)
(-0.207813 0.000941019 2.20282e-19)
(-0.20666 0.00116275 8.63011e-19)
(-0.205355 0.00142085 -4.28193e-18)
(-0.203879 0.00172124 -2.59823e-18)
(-0.202208 0.00207114 -5.58713e-18)
(-0.200315 0.00247941 6.00115e-19)
(-0.19817 0.00295703 -2.45777e-18)
(-0.195734 0.00351778 3.09981e-18)
(-0.192967 0.00417891 -1.96135e-18)
(-0.189817 0.00496286 -2.10167e-17)
(-0.186222 0.00589786 -5.07341e-18)
(-0.182116 0.00702343 -1.70274e-18)
(-0.1774 0.00838864 -1.21325e-17)
(-0.171988 0.0100649 -7.07641e-18)
(-0.165708 0.012145 1.761e-18)
(-0.158494 0.0147643 -1.45024e-17)
(-0.149935 0.0181203 -1.5469e-18)
(-0.140254 0.0223976 7.06046e-19)
(-0.12811 0.0281761 1.75585e-17)
(-0.115227 0.0349114 1.82818e-17)
(-0.0970398 0.0448394 2.48068e-18)
(-0.0788863 0.0512397 -1.04122e-17)
(-0.0512526 0.058467 -2.48844e-18)
(-0.0152686 0.0356117 -7.39882e-18)
(-0.310343 -4.6064e-05 7.79431e-20)
(-0.31046 -0.00020989 -5.16473e-19)
(-0.310759 -0.000450935 -6.2149e-20)
(-0.311276 -0.000673247 -7.38514e-20)
(-0.311946 -0.00083638 7.26621e-19)
(-0.31271 -0.000923671 1.36767e-18)
(-0.313505 -0.000930318 6.7211e-19)
(-0.314269 -0.000859878 3.19567e-19)
(-0.31495 -0.000720242 2.1496e-19)
(-0.315502 -0.000520761 -7.16899e-19)
(-0.315886 -0.000272031 7.77347e-19)
(-0.316075 1.80297e-05 -1.39377e-18)
(-0.316043 0.000333173 -6.05755e-19)
(-0.31577 0.000672647 -2.79963e-19)
(-0.315247 0.00102725 1.93131e-19)
(-0.314465 0.00139032 1.63017e-18)
(-0.313423 0.00175587 -2.11766e-18)
(-0.31212 0.00211852 1.7347e-18)
(-0.310562 0.00247344 -2.27514e-18)
(-0.308756 0.00281627 -2.35321e-18)
(-0.306712 0.00314307 -2.45404e-18)
(-0.304444 0.00345024 1.15019e-17)
(-0.301967 0.00373454 -2.23434e-18)
(-0.299298 0.00399305 -3.12685e-19)
(-0.296456 0.0042232 3.29718e-19)
(-0.293462 0.00442271 -2.41034e-18)
(-0.290338 0.00458983 -1.94374e-18)
(-0.287107 0.00472332 4.52776e-19)
(-0.283792 0.00482242 -4.67844e-18)
(-0.280419 0.00488687 -3.72345e-18)
(-0.27701 0.00491691 4.07879e-19)
(-0.273589 0.00491324 9.58076e-19)
(-0.27018 0.004877 -5.15217e-19)
(-0.266805 0.00480976 -8.59378e-19)
(-0.263483 0.00471342 -2.21654e-20)
(-0.260235 0.00459022 -1.11487e-18)
(-0.257078 0.00444268 -1.63559e-18)
(-0.254027 0.00427355 7.87717e-20)
(-0.251097 0.00408577 -6.37531e-19)
(-0.248298 0.00388256 2.33064e-19)
(-0.24564 0.00366706 -1.93321e-19)
(-0.243131 0.00344236 2.65245e-18)
(-0.240775 0.00321146 1.88323e-18)
(-0.238575 0.00297723 2.94227e-18)
(-0.236534 0.00274232 -5.39826e-19)
(-0.234649 0.0025092 -2.90359e-20)
(-0.23292 0.00228005 -2.87444e-18)
(-0.231341 0.00205678 2.02848e-18)
(-0.229909 0.00184102 9.4298e-19)
(-0.228618 0.00163408 1.32715e-18)
(-0.22746 0.00143702 7.21359e-19)
(-0.226428 0.00125065 -3.0633e-18)
(-0.225514 0.00107558 1.79478e-18)
(-0.224711 0.000912229 4.54014e-18)
(-0.224009 0.000760903 -2.74913e-18)
(-0.2234 0.000621812 4.30868e-18)
(-0.222874 0.000495105 4.04136e-18)
(-0.222424 0.000380892 1.37669e-18)
(-0.22204 0.000279234 1.01947e-18)
(-0.221713 0.00019014 2.01637e-18)
(-0.221434 0.000113281 -1.09696e-17)
(-0.221194 4.86317e-05 8.12855e-19)
(-0.220982 1.06914e-06 -2.96705e-19)
(-0.220794 -3.65574e-05 -3.66962e-18)
(-0.220619 -6.70086e-05 3.98924e-18)
(-0.220445 -8.33792e-05 2.61706e-18)
(-0.220265 -8.56311e-05 6.49548e-18)
(-0.220071 -7.39854e-05 1.30887e-18)
(-0.219857 -4.91665e-05 5.30716e-19)
(-0.219611 -1.63324e-05 1.45597e-18)
(-0.21932 3.17554e-05 6.14906e-19)
(-0.218978 8.5807e-05 3.12189e-18)
(-0.218579 0.000159947 3.86282e-18)
(-0.218107 0.000250879 2.72018e-18)
(-0.217553 0.000359576 3.06475e-18)
(-0.216903 0.000488069 -6.28555e-18)
(-0.216144 0.000639046 -6.43003e-19)
(-0.215258 0.000815825 -2.13997e-18)
(-0.214227 0.00102242 -8.98796e-18)
(-0.21303 0.00126373 -4.61049e-18)
(-0.211643 0.00154576 -9.45143e-18)
(-0.210037 0.0018759 -3.55657e-19)
(-0.208178 0.00226328 4.77381e-19)
(-0.206028 0.0027194 -3.93991e-18)
(-0.20354 0.00325868 -1.41312e-18)
(-0.200658 0.00389995 -2.04335e-17)
(-0.197313 0.00466693 -5.31328e-18)
(-0.193429 0.00559286 -1.61156e-18)
(-0.188894 0.00671947 -6.31085e-18)
(-0.183604 0.00810718 -7.47397e-18)
(-0.177357 0.00983658 7.50593e-18)
(-0.170053 0.0120209 -6.31975e-18)
(-0.161209 0.0148418 6.15164e-22)
(-0.150978 0.0184367 1.78806e-18)
(-0.137891 0.0233648 2.69386e-17)
(-0.123389 0.0290717 1.59653e-17)
(-0.103062 0.0376314 2.03917e-18)
(-0.0813261 0.0432489 -1.20248e-17)
(-0.0507986 0.0492182 -2.26409e-18)
(-0.0142424 0.0310357 -9.83501e-18)
(-0.31681 -3.11575e-05 8.25951e-20)
(-0.316899 -0.00015226 -4.43562e-19)
(-0.317155 -0.000333035 4.41006e-19)
(-0.31761 -0.000501992 -6.61589e-20)
(-0.318212 -0.000627598 1.09481e-18)
(-0.318907 -0.000695893 4.40417e-19)
(-0.319636 -0.000702344 8.4494e-19)
(-0.320338 -0.000649129 3.34131e-19)
(-0.320961 -0.000541995 1.69023e-18)
(-0.321458 -0.000387964 -1.45807e-18)
(-0.321791 -0.000195198 1.81176e-18)
(-0.32193 2.88867e-05 -1.97864e-18)
(-0.321849 0.000274151 2.68584e-19)
(-0.321527 0.000537907 1.9521e-18)
(-0.320953 0.000813765 2.94892e-18)
(-0.320119 0.00109656 3.35293e-18)
(-0.319021 0.00138156 1.7072e-18)
(-0.317662 0.00166454 1.53211e-18)
(-0.316044 0.00194169 1.98625e-18)
(-0.314176 0.00220959 -2.1444e-18)
(-0.312068 0.00246513 -3.19835e-18)
(-0.309732 0.00270549 9.56296e-18)
(-0.307184 0.00292813 -1.79722e-18)
(-0.304442 0.00313074 2.20173e-18)
(-0.301525 0.00331133 8.93556e-19)
(-0.298453 0.00346799 -3.74786e-18)
(-0.29525 0.00359931 -2.89506e-19)
(-0.291939 0.00370432 -1.03631e-18)
(-0.288543 0.00378241 -2.80221e-18)
(-0.285088 0.00383337 -4.16851e-18)
(-0.281597 0.00385737 -1.05841e-18)
(-0.278094 0.00385495 3.70467e-19)
(-0.274604 0.00382696 6.38141e-19)
(-0.271148 0.00377462 -1.19681e-18)
(-0.267748 0.00369939 -6.26052e-20)
(-0.264424 0.003603 -4.50168e-19)
(-0.261193 0.00348738 -6.48091e-19)
(-0.258072 0.00335468 -1.4988e-18)
(-0.255075 0.00320714 2.09971e-19)
(-0.252213 0.00304737 5.56475e-19)
(-0.249498 0.00287787 -4.23016e-19)
(-0.246935 0.00270104 5.70075e-19)
(-0.244532 0.00251924 3.43871e-18)
(-0.242291 0.00233469 6.59536e-19)
(-0.240215 0.00214949 2.82767e-19)
(-0.238302 0.00196556 1.92665e-19)
(-0.236551 0.00178463 -6.41414e-18)
(-0.234958 0.0016082 -4.63223e-19)
(-0.233519 0.00143754 1.67786e-18)
(-0.232227 0.00127372 -1.70549e-19)
(-0.231077 0.00111757 9.0496e-19)
(-0.230061 0.00096974 -7.83015e-18)
(-0.229171 0.000830709 2.71456e-18)
(-0.228399 0.000700829 3.50713e-18)
(-0.227736 0.000580351 -4.27851e-18)
(-0.227174 0.00046946 3.87327e-18)
(-0.226704 0.000368296 5.33362e-18)
(-0.226318 0.000276987 1.83462e-18)
(-0.226005 0.000195646 1.6605e-18)
(-0.225758 0.00012444 3.5597e-18)
(-0.225568 6.34188e-05 -9.5623e-18)
(-0.225423 1.43864e-05 -3.01403e-18)
(-0.225316 -3.26491e-05 -7.55826e-19)
(-0.225241 -7.25164e-05 -3.46455e-18)
(-0.225184 -9.73825e-05 1.12887e-18)
(-0.225138 -0.000112362 4.87284e-18)
(-0.225095 -0.000117955 3.54891e-18)
(-0.225045 -0.000114027 1.04628e-18)
(-0.224978 -9.92576e-05 4.37745e-19)
(-0.224888 -6.96211e-05 3.29357e-18)
(-0.224767 -2.91592e-05 5.62722e-19)
(-0.2246 1.68882e-05 4.05761e-18)
(-0.224376 6.86572e-05 8.26479e-18)
(-0.224091 0.000134719 5.37114e-18)
(-0.223729 0.00021457 2.78242e-18)
(-0.223278 0.000309897 -2.81549e-18)
(-0.222724 0.000422906 -4.86893e-19)
(-0.222049 0.000556116 -6.58529e-18)
(-0.221234 0.000712598 -4.90984e-18)
(-0.220257 0.000896155 -8.50664e-18)
(-0.219094 0.00111146 -1.97121e-17)
(-0.217714 0.00136431 1.28647e-19)
(-0.216082 0.00166186 3.7964e-18)
(-0.214157 0.00201316 2.47037e-18)
(-0.211889 0.00242959 -1.37778e-18)
(-0.20922 0.002926 -1.72793e-17)
(-0.206073 0.00352119 -5.5143e-18)
(-0.202366 0.00424145 -1.67106e-18)
(-0.197976 0.00512018 -4.58281e-18)
(-0.192785 0.00620522 -1.20934e-17)
(-0.186565 0.00756244 1.68238e-18)
(-0.179194 0.00927994 -4.49252e-18)
(-0.170127 0.0115147 3.39517e-18)
(-0.159463 0.0143585 2.8889e-18)
(-0.145631 0.0183083 1.72001e-17)
(-0.129831 0.0228497 2.02144e-17)
(-0.107791 0.0297817 1.42313e-18)
(-0.0832154 0.0344312 -4.91341e-18)
(-0.0502489 0.0392634 -1.12995e-18)
(-0.0134483 0.0257562 -3.90519e-18)
(-0.321674 -2.00004e-05 1.34342e-19)
(-0.321744 -0.00010333 -1.80123e-19)
(-0.32197 -0.000228962 5.49747e-19)
(-0.32238 -0.000347569 -1.391e-19)
(-0.322933 -0.000436625 7.29212e-19)
(-0.323577 -0.000485665 -4.18717e-19)
(-0.324257 -0.000491031 1.56688e-18)
(-0.324913 -0.000453965 4.61531e-19)
(-0.325492 -0.000378365 1.13808e-18)
(-0.325948 -0.000269153 -2.5427e-19)
(-0.326242 -0.000132121 7.68721e-19)
(-0.326344 2.74607e-05 -5.43828e-19)
(-0.326226 0.00020234 1.92195e-18)
(-0.325867 0.000390678 1.1889e-18)
(-0.325255 0.000587803 2.80766e-18)
(-0.324382 0.000790024 1.76381e-18)
(-0.323244 0.00099397 8.35012e-19)
(-0.321842 0.0011966 2.21524e-18)
(-0.32018 0.00139519 1.67057e-18)
(-0.318266 0.00158727 -4.13083e-18)
(-0.316108 0.00177063 -4.87961e-18)
(-0.313722 0.00194323 3.7654e-18)
(-0.311121 0.00210328 7.54765e-19)
(-0.308324 0.00224914 1.01822e-18)
(-0.30535 0.00237941 1.13545e-18)
(-0.302221 0.00249256 -2.26225e-18)
(-0.298958 0.00258742 -3.63503e-18)
(-0.295586 0.00266333 -3.35457e-18)
(-0.292129 0.00271989 -2.80173e-18)
(-0.288611 0.00275694 -1.29817e-18)
(-0.285058 0.00277459 -2.03951e-18)
(-0.281493 0.00277324 7.12773e-20)
(-0.277941 0.00275348 -3.28202e-18)
(-0.274424 0.00271616 -2.54248e-18)
(-0.270964 0.00266233 1.23393e-19)
(-0.267581 0.00259319 -8.691e-20)
(-0.264294 0.00251011 -2.45313e-19)
(-0.261119 0.00241456 -3.98784e-18)
(-0.25807 0.00230806 -3.96827e-18)
(-0.255161 0.00219276 1.23071e-18)
(-0.2524 0.0020705 -1.13211e-18)
(-0.249797 0.00194295 -8.2376e-19)
(-0.247357 0.00181178 1.85425e-18)
(-0.245083 0.00167856 -1.8445e-18)
(-0.242979 0.0015448 1.03455e-18)
(-0.241043 0.00141186 4.70239e-19)
(-0.239274 0.00128097 -2.84549e-18)
(-0.237669 0.00115322 -1.7518e-18)
(-0.236223 0.00102953 -2.33382e-18)
(-0.234931 0.000910651 -2.07272e-18)
(-0.233785 0.000797186 1.63115e-18)
(-0.232779 0.000689602 -5.29045e-18)
(-0.231904 0.000588248 8.68308e-19)
(-0.231154 0.000493376 -2.73338e-18)
(-0.230519 0.000405167 -2.39615e-18)
(-0.229991 0.000323754 -6.62e-20)
(-0.229561 0.000249243 2.11273e-18)
(-0.22922 0.000181731 2.51386e-18)
(-0.228959 0.000121308 3.28503e-18)
(-0.22877 6.80843e-05 -1.15809e-18)
(-0.228642 2.21233e-05 -7.65757e-18)
(-0.22857 -1.51384e-05 -6.98155e-18)
(-0.228543 -5.29378e-05 -1.23773e-18)
(-0.228548 -8.00137e-05 -5.73557e-18)
(-0.22858 -0.000100667 -3.10798e-20)
(-0.228628 -0.000114241 9.58525e-19)
(-0.228684 -0.000120149 1.61189e-18)
(-0.228739 -0.000118521 5.70733e-19)
(-0.228785 -0.000109886 9.84504e-19)
(-0.228812 -9.50657e-05 7.44159e-18)
(-0.22881 -7.22365e-05 7.43285e-20)
(-0.228772 -3.57028e-05 8.18203e-18)
(-0.228685 1.14191e-06 5.80031e-18)
(-0.228536 4.41344e-05 1.02695e-17)
(-0.228317 9.88668e-05 3.50962e-18)
(-0.228014 0.000164975 -1.95998e-18)
(-0.227611 0.000243665 -5.47058e-19)
(-0.227092 0.000336738 -1.69441e-18)
(-0.226437 0.000446406 -3.51359e-18)
(-0.225624 0.000575397 -3.01624e-18)
(-0.224627 0.000727067 -1.15025e-17)
(-0.223415 0.000905568 4.75463e-18)
(-0.221952 0.00111605 1.0092e-17)
(-0.220195 0.00136502 9.82853e-18)
(-0.218092 0.00166064 -3.35894e-18)
(-0.215581 0.00201363 -2.68657e-17)
(-0.212584 0.00243755 -6.11112e-18)
(-0.20901 0.00295128 -1.96168e-18)
(-0.20473 0.00357916 -5.8207e-18)
(-0.199618 0.00435547 -6.25463e-18)
(-0.193422 0.0053293 -1.12461e-19)
(-0.186007 0.00656233 -6.54983e-18)
(-0.176782 0.00817866 9.09141e-18)
(-0.165805 0.0102277 5.96268e-18)
(-0.15143 0.0131038 1.99412e-17)
(-0.13467 0.0163863 1.72849e-17)
(-0.111347 0.0214875 -1.66842e-18)
(-0.08465 0.0249932 -2.62031e-18)
(-0.0497066 0.0286763 -2.85249e-19)
(-0.0127852 0.0196905 -2.03368e-18)
(-0.324923 -1.11315e-05 1.41082e-19)
(-0.324982 -5.99184e-05 -3.64003e-20)
(-0.325189 -0.000133988 2.40076e-19)
(-0.32557 -0.000204372 -4.07021e-19)
(-0.32609 -0.000257534 9.27114e-19)
(-0.326702 -0.000286988 2.41713e-19)
(-0.327349 -0.000290359 1.27773e-18)
(-0.327974 -0.00026825 6.50368e-19)
(-0.328524 -0.000222893 1.24589e-18)
(-0.328953 -0.000157163 4.66768e-19)
(-0.329222 -7.44917e-05 3.0858e-19)
(-0.329298 2.13398e-05 5.06759e-19)
(-0.329156 0.000125353 9.939e-19)
(-0.328772 0.000237525 9.68745e-19)
(-0.328135 0.000355151 -3.2306e-19)
(-0.327237 0.000476009 5.3445e-19)
(-0.326072 0.000598068 3.0945e-19)
(-0.324642 0.000719498 4.27838e-18)
(-0.322951 0.000838661 1.45336e-18)
(-0.321005 0.000954083 -4.30124e-18)
(-0.318816 0.00106443 -3.02113e-18)
(-0.316395 0.00116851 1.95317e-18)
(-0.313759 0.00126524 3.01773e-18)