/*--------------------------------*- C++ -*----------------------------------*\
  =========                 |
  \\      /  F ield         | OpenFOAM: The Open Source CFD Toolbox
   \\    /   O peration     | Website:  https://openfoam.org
    \\  /    A nd           | Version:  7
     \\/     M anipulation  |
\*---------------------------------------------------------------------------*/
FoamFile
{
    version     2.0;
    format      ascii;
    class       volVectorField;
    location    "10";
    object      U;
}
// * * * * * * * * * * * * * * * * * * * * * * * * * * * * * * * * * * * * * //

dimensions      [0 1 -1 0 0 0 0];

internalField   nonuniform List<vector> 
75
(
(0.713599 -0.0343612 3.00292e-18)
(0.591436 -0.0377002 -1.71442e-18)
(0.523913 -0.0490039 -1.71766e-18)
(0.981711 -0.00698242 1.93909e-20)
(0.934948 -0.0134707 -8.02961e-21)
(0.892118 -0.0158268 2.05334e-19)
(0.834709 -0.0217335 9.30171e-20)
(0.753895 -0.0240654 2.55825e-19)
(0.691407 -0.0315043 3.75365e-18)
(0.559879 -0.0344666 1.12014e-18)
(0.484085 -0.0443677 -4.74883e-18)
(0.980317 -0.00624937 3.9296e-20)
(0.931503 -0.0120731 -2.15762e-20)
(0.886368 -0.0142282 1.57297e-20)
(0.825152 -0.0195629 1.09791e-19)
(0.739148 -0.0217281 1.94056e-19)
(0.670315 -0.0284282 2.76551e-18)
(0.530039 -0.0310626 8.83548e-19)
(0.446816 -0.0396256 7.97573e-18)
(0.97904 -0.00548525 9.15395e-20)
(0.928338 -0.0106097 -2.7502e-20)
(0.881069 -0.0125392 -1.71736e-19)
(0.816311 -0.0172589 8.13932e-20)
(0.725479 -0.0192277 1.12514e-19)
(0.650734 -0.0251446 2.98267e-18)
(0.502465 -0.0274437 9.77186e-19)
(0.412685 -0.0347024 8.58359e-18)
(0.9779 -0.00469299 1.99912e-19)
(0.925505 -0.00908674 -5.13062e-20)
(0.876315 -0.0107663 -4.98049e-19)
(0.808354 -0.0148317 9.79151e-20)
(0.713161 -0.0165685 -3.94927e-20)
(0.633065 -0.0216568 1.02982e-18)
(0.477686 -0.0236095 1.474e-18)
(0.382237 -0.0296175 1.33809e-17)
(0.976915 -0.00387596 8.48143e-20)
(0.923053 -0.00751104 -7.13737e-20)
(0.872195 -0.00891884 -1.1397e-18)
(0.801442 -0.0122947 9.04931e-20)
(0.702447 -0.0137683 -2.81277e-19)
(0.617681 -0.0179885 2.93073e-18)
(0.456189 -0.0195939 2.55969e-18)
(0.355975 -0.0244167 6.95344e-18)
(0.976102 -0.00303783 3.45668e-20)
(0.921029 -0.0058903 -8.34914e-20)
(0.868788 -0.00700791 -1.16286e-18)
(0.795716 -0.00966403 6.3979e-20)
(0.693565 -0.0108478 5.03891e-19)
(0.604921 -0.014167 2.955e-18)
(0.438413 -0.0154265 1.17023e-18)
(0.334351 -0.0191252 4.38868e-18)
(0.975476 -0.00218261 8.58151e-21)
(0.919469 -0.00423316 -6.89327e-20)
(0.866162 -0.00504613 -5.94101e-19)
(0.7913 -0.00695825 3.77921e-22)
(0.686712 -0.00782974 1.14283e-19)
(0.595071 -0.0102225 4.35166e-18)
(0.424729 -0.0111357 4.44231e-19)
(0.317756 -0.0137725 3.77632e-18)
(0.975049 -0.00131467 -1.12842e-21)
(0.918408 -0.00254869 -7.2198e-20)
(0.864375 -0.00304732 -3.49533e-19)
(0.788293 -0.0041965 9.00108e-20)
(0.682044 -0.00474386 -4.54376e-19)
(0.588363 -0.0061952 4.4374e-18)
(0.415432 -0.00674392 -1.53257e-19)
(0.306501 -0.00831123 4.68267e-18)
(0.974832 -0.00043895 8.20824e-23)
(0.917869 -0.000847677 -1.14679e-19)
(0.863467 -0.00102031 -2.85684e-19)
(0.786767 -0.00139337 5.23816e-20)
(0.679677 -0.00160508 -8.19838e-20)
(0.584963 -0.0020894 3.22859e-18)
(0.410732 -0.00234293 -8.00294e-19)
(0.300819 -0.00296131 7.74225e-18)
)
;

boundaryField
{
    inlet
    {
        type            uniformFixedValue;
        uniformValue    constant (1 0 0);
        value           nonuniform 0();
    }
    outlet
    {
        type            pressureInletOutletVelocity;
        value           nonuniform List<vector> 9((0.981711 -0.00698242 1.93909e-20) (0.980317 -0.00624937 3.9296e-20) (0.97904 -0.00548525 9.15395e-20) (0.9779 -0.00469299 1.99912e-19) (0.976915 -0.00387596 8.48143e-20) (0.976102 -0.00303783 3.45668e-20) (0.975476 -0.00218261 8.58151e-21) (0.975049 -0.00131467 -1.12842e-21) (0.974832 -0.00043895 8.20824e-23));
    }
    polygon
    {
        type            fixedValue;
        value           nonuniform 0();
    }
    top
    {
        type            symmetryPlane;
    }
    bottom
    {
        type            symmetryPlane;
    }
    outside
    {
        type            zeroGradient;
    }
    procBoundary11to7
    {
        type            processor;
        value           nonuniform List<vector> 8((0.974832 0.00043895 -1.81248e-21) (0.917869 0.000847677 -2.05661e-19) (0.863467 0.00102031 -3.89571e-19) (0.786767 0.00139337 1.08742e-21) (0.679677 0.00160508 9.93887e-20) (0.584963 0.0020894 3.48379e-18) (0.410732 0.00234293 -1.84882e-18) (0.300819 0.00296131 1.44574e-17));
    }
    procBoundary11to10
    {
        type            processor;
        value           nonuniform List<vector> 
11
(
(0.300882 -0.0257954 1.35923e-17)
(0.637305 -0.0597698 1.5385e-18)
(0.251404 -0.0217959 7.09383e-18)
(0.20753 -0.0179823 4.7046e-18)
(0.169297 -0.0146311 5.46592e-18)
(0.136687 -0.0116933 9.08275e-18)
(0.109643 -0.00911204 1.74538e-17)
(0.088099 -0.00679453 5.41349e-18)
(0.0719889 -0.00477564 -3.70065e-18)
(0.0612646 -0.00273364 1.51011e-17)
(0.0558998 -0.00113056 1.05936e-17)
)
;
    }
    procBoundary11to15
    {
        type            processor;
        value           nonuniform List<vector> 8((0.983202 -0.00768394 4.20196e-21) (0.938618 -0.0147977 -1.2313e-20) (0.89822 -0.0173357 4.84754e-19) (0.844805 -0.0237627 1.03509e-19) (0.769442 -0.0262432 2.85084e-19) (0.769442 -0.0262432 2.85084e-19) (0.776831 -0.0412716 5.09456e-18) (0.681085 -0.0450773 2.99886e-19));
    }
}


// ************************************************************************* //
