/*--------------------------------*- C++ -*----------------------------------*\
  =========                 |
  \\      /  F ield         | OpenFOAM: The Open Source CFD Toolbox
   \\    /   O peration     | Website:  https://openfoam.org
    \\  /    A nd           | Version:  7
     \\/     M anipulation  |
\*---------------------------------------------------------------------------*/
FoamFile
{
    version     2.0;
    format      ascii;
    class       surfaceScalarField;
    location    "10";
    object      phi;
}
// * * * * * * * * * * * * * * * * * * * * * * * * * * * * * * * * * * * * * //

dimensions      [0 3 -1 0 0 0 0];

internalField   nonuniform List<scalar> 
415
(
-0.000910474
-0.00071367
0.000683874
-0.000865758
-0.00108253
0.00103782
-0.000804101
-0.001491
0.00142934
-0.000742542
-0.00150933
0.00144777
-0.000655455
-0.00212605
0.00203896
-0.000587788
-0.0016759
0.00160823
-0.000476457
-0.00270143
0.00259009
-0.000416099
-0.00147755
0.0014172
-0.00232597
0.00217663
-0.000910894
-0.000743307
-0.000866488
-0.00112694
-0.000805247
-0.00155224
-0.000744243
-0.00157033
-0.000657872
-0.00221242
-0.000590959
-0.00174281
-0.000480505
-0.00281188
-0.000420787
-0.00153727
-0.00248104
-0.000911329
-0.000772777
-0.000867243
-0.00117103
-0.000806435
-0.00161304
-0.000745999
-0.00163077
-0.000660376
-0.00229804
-0.000594235
-0.00180895
-0.000484707
-0.00292141
-0.000425664
-0.00159631
-0.0026419
-0.000911779
-0.000802075
-0.000868022
-0.00121478
-0.000807662
-0.0016734
-0.00074781
-0.00169062
-0.000662958
-0.00238289
-0.000597615
-0.00187429
-0.000489052
-0.00302997
-0.000430727
-0.00165464
-0.000912242
-0.000831195
-0.000868825
-0.000808925
-0.000749673
-0.000665616
-0.000601093
-0.000493535
-0.000984254
-0.000387046
0.000353399
-0.000933154
-0.000589491
0.000538391
-0.00086278
-0.000811562
0.000741188
-0.000791419
-0.000825879
0.000754519
-0.000690979
-0.00116088
0.00106044
-0.000611619
-0.000920277
0.000840917
-0.000484087
-0.00147021
0.00134268
-0.000414288
-0.000804763
0.000734964
-0.00101265
0.000907876
-0.000984536
-0.000420585
-0.000933647
-0.000640379
-0.000863554
-0.000881655
-0.000792567
-0.000896867
-0.000692594
-0.00126085
-0.000613713
-0.000999158
-0.000486672
-0.00159725
-0.000417123
-0.000874312
-0.00112169
-0.000984843
-0.000454007
-0.000934182
-0.00069104
-0.000864398
-0.00095144
-0.000793812
-0.000967453
-0.000694352
-0.00136031
-0.000615988
-0.00107752
-0.000489489
-0.00172375
-0.000420221
-0.000943581
-0.00123529
-0.000985174
-0.000487301
-0.000934759
-0.000741455
-0.000865307
-0.00102089
-0.000795154
-0.00103761
-0.000696247
-0.00145922
-0.000618441
-0.00115533
-0.000492531
-0.00184966
-0.000423579
-0.00101253
-0.00135367
-0.000985528
-0.000520458
-0.000935376
-0.000791607
-0.000866281
-0.00108999
-0.000796592
-0.00110729
-0.000698277
-0.00155753
-0.000621069
-0.00123254
-0.000495796
-0.00197494
-0.000427199
-0.00108113
-0.00147709
-0.000985905
-0.000553468
-0.000936034
-0.000841478
-0.000867319
-0.0011587
-0.000798123
-0.00117649
-0.000700436
-0.00165522
-0.000623867
-0.0013091
-0.000499278
-0.00209953
-0.000431078
-0.00114933
-0.00160576
-0.000986304
-0.000586324
-0.000936732
-0.00089105
-0.000868418
-0.00122702
-0.000799744
-0.00124516
-0.000702724
-0.00175224
-0.000626832
-0.001385
-0.000502974
-0.00222338
-0.000435217
-0.00121709
-0.00173988
-0.000986725
-0.000619015
-0.000937467
-0.000940309
-0.000869577
-0.00129491
-0.000801453
-0.00131329
-0.000705135
-0.00184856
-0.000629957
-0.00146017
-0.00050688
-0.00234646
-0.000439613
-0.00128435
-0.00187962
-0.000987168
-0.000651534
-0.00093824
-0.000989237
-0.000870794
-0.00136235
-0.000803247
-0.00138084
-0.000707666
-0.00194414
-0.00063324
-0.0015346
-0.000510992
-0.00246871
-0.000444267
-0.00135108
-0.00202516
-0.00098763
-0.000939051
-0.000872064
-0.000805128
-0.000710309
-0.000636682
-0.000515298
-0.00044918
-0.0010221
-3.55208e-05
-0.000967916
-5.41886e-05
-0.000893325
-7.45911e-05
-0.00081726
-7.60645e-05
-0.000710443
-0.000106816
-0.000625583
-8.48595e-05
-0.000490556
-0.000135026
-0.000416761
-7.37944e-05
-8.35308e-05
-0.00102213
-7.10328e-05
-0.000967958
-0.00010836
-0.00089339
-0.000149159
-0.000817354
-0.000152101
-0.000710578
-0.000213592
-0.000625753
-0.000169685
-0.000490768
-0.000270011
-0.000416994
-0.000147568
-0.000167584
-0.00102219
-0.000106524
-0.000968053
-0.000162493
-0.000893539
-0.000223673
-0.000817573
-0.000228067
-0.000710887
-0.000320279
-0.000626149
-0.000254423
-0.000491252
-0.000404908
-0.000417515
-0.000221305
-0.000252583
-0.00102227
-0.000141984
-0.000968201
-0.000216563
-0.000893772
-0.000298102
-0.000817916
-0.000303923
-0.000711369
-0.000426825
-0.000626769
-0.000339023
-0.000492009
-0.000539668
-0.000418323
-0.000294991
-0.000338942
-0.00102239
-0.000177399
-0.000968401
-0.000270547
-0.000894088
-0.000372415
-0.000818382
-0.000379629
-0.000712024
-0.000533183
-0.000627613
-0.000423435
-0.000493036
-0.000674244
-0.000419419
-0.000368608
-0.00042707
-0.00102253
-0.000212758
-0.000968654
-0.000324423
-0.000894487
-0.000446582
-0.000818971
-0.000455145
-0.000712851
-0.000639303
-0.000628678
-0.000507608
-0.000494334
-0.000808589
-0.000420802
-0.00044214
-0.000517369
-0.0010227
-0.000248049
-0.000968958
-0.000378168
-0.000894968
-0.000520572
-0.000819682
-0.000530431
-0.000713849
-0.000745136
-0.000629964
-0.000591493
-0.0004959
-0.000942653
-0.000422474
-0.000515566
-0.000610227
-0.0010229
-0.00028326
-0.000969313
-0.000431759
-0.00089553
-0.000594356
-0.000820512
-0.000605448
-0.000715014
-0.000850634
-0.000631468
-0.000675039
-0.000497733
-0.00107639
-0.000424435
-0.000588864
-0.000706024
-0.00102314
-0.00031838
-0.00096972
-0.000485175
-0.000896172
-0.000667903
-0.000821462
-0.000680158
-0.000716347
-0.000955749
-0.000633187
-0.000758199
-0.000499831
-0.00120974
-0.000426686
-0.000662009
-0.000805123
-0.00102339
-0.000970177
-0.000896893
-0.000822532
-0.000717841
-0.000635123
-0.000502187
-0.000429232
)
;

boundaryField
{
    inlet
    {
        type            calculated;
        value           nonuniform 0();
    }
    outlet
    {
        type            calculated;
        value           nonuniform List<scalar> 
26
(
0.000940271
0.00094053
0.000940799
0.000941076
0.000941362
0.000941656
0.0010179
0.00101808
0.00101826
0.00101847
0.00101868
0.00101892
0.00101916
0.00101942
0.00101969
0.00101997
0.00105762
0.00105764
0.00105768
0.00105773
0.0010578
0.00105789
0.00105799
0.00105812
0.00105826
0.00105841
)
;
    }
    polygon
    {
        type            calculated;
        value           nonuniform 0();
    }
    top
    {
        type            symmetryPlane;
        value           uniform 0;
    }
    bottom
    {
        type            symmetryPlane;
        value           uniform 0;
    }
    outside
    {
        type            calculated;
        value           nonuniform 0();
    }
    procBoundary7to3
    {
        type            processor;
        value           nonuniform List<scalar> 
11
(
-0.00280862
-0.0012582
-0.0017333
-0.00174987
-0.00246695
-0.00193882
-0.00313753
-0.00043597
-0.00171221
-0.000912719
-0.000860132
)
;
    }
    procBoundary7to6
    {
        type            processor;
        value           nonuniform List<scalar> 
24
(
-0.000266761
-0.000265716
-0.000264798
-0.000264009
-0.000309516
-0.000308076
-0.000306629
-0.000305191
-0.000303779
-0.00030241
-0.000301101
-0.000299868
-0.000298731
-0.00029771
-0.00033323
-0.000332941
-0.000332517
-0.000331964
-0.00033129
-0.000330504
-0.000329615
-0.000328638
-0.000327587
-0.000326478
)
;
    }
    procBoundary7to11
    {
        type            processor;
        value           nonuniform List<scalar> 9(5.90801e-10 5.55922e-10 1.55647e-10 -4.65883e-10 -8.61927e-10 -1.07657e-09 -7.30788e-10 -1.56299e-10 -2.64562e-10);
    }
}


// ************************************************************************* //
