/*--------------------------------*- C++ -*----------------------------------*\
  =========                 |
  \\      /  F ield         | OpenFOAM: The Open Source CFD Toolbox
   \\    /   O peration     | Website:  https://openfoam.org
    \\  /    A nd           | Version:  7
     \\/     M anipulation  |
\*---------------------------------------------------------------------------*/
FoamFile
{
    version     2.0;
    format      ascii;
    class       volVectorField;
    location    "5";
    object      U;
}
// * * * * * * * * * * * * * * * * * * * * * * * * * * * * * * * * * * * * * //

dimensions      [0 1 -1 0 0 0 0];

internalField   nonuniform List<vector> 
75
(
(1.1488 -0.0866238 -4.77803e-18)
(1.15778 -0.0950851 -6.96643e-18)
(1.16504 -0.0969161 3.3528e-19)
(1.17794 -0.107541 -3.49877e-18)
(1.19665 -0.112534 -3.74951e-18)
(1.22444 -0.12786 -1.99881e-17)
(1.14798 -0.0873848 2.13009e-18)
(1.15659 -0.0972822 -1.52934e-18)
(1.16377 -0.100056 3.61282e-18)
(1.17667 -0.112215 -5.03611e-18)
(1.19553 -0.119235 -7.75669e-18)
(1.22379 -0.137355 1.06784e-17)
(1.14691 -0.0880174 1.06235e-18)
(1.15508 -0.0993495 -4.98567e-18)
(1.16211 -0.102984 2.67999e-18)
(1.17476 -0.116585 -6.34851e-18)
(1.19344 -0.125405 3.56809e-18)
(1.22139 -0.146111 2.15783e-18)
(1.14563 -0.0885643 2.75621e-18)
(1.1533 -0.101352 -6.18364e-18)
(1.16013 -0.105903 3.68437e-18)
(1.17244 -0.120968 -8.58353e-18)
(1.19079 -0.131683 -1.71645e-19)
(1.2183 -0.154984 -7.69721e-18)
(1.14416 -0.0890038 1.11363e-17)
(1.15126 -0.103251 -1.57479e-17)
(1.15784 -0.108715 -4.55915e-18)
(1.16964 -0.125203 -1.05598e-17)
(1.18747 -0.13776 -1.12325e-17)
(1.21417 -0.16348 -5.61636e-18)
(1.14265 -0.0893366 4.33304e-18)
(1.14912 -0.105041 -8.18254e-18)
(1.1554 -0.111421 6.13756e-18)
(1.16659 -0.129293 -1.34301e-17)
(1.18371 -0.143669 -2.09548e-17)
(1.20931 -0.171637 -7.52861e-18)
(1.14121 -0.0895604 7.65004e-18)
(1.14706 -0.106714 -5.32243e-18)
(1.15308 -0.114 3.93712e-18)
(1.16364 -0.133194 -1.65576e-17)
(1.18001 -0.14932 -2.2629e-17)
(1.20432 -0.179291 -7.97838e-18)
(1.13963 -0.0896819 8.02281e-18)
(1.14487 -0.108289 1.091e-19)
(1.15081 -0.116475 5.50919e-18)
(1.16083 -0.13693 -1.1446e-17)
(1.1767 -0.154732 -2.73556e-17)
(1.19988 -0.186413 -8.98232e-18)
(1.13694 -0.0897058 2.51371e-18)
(1.14147 -0.109792 -1.51034e-18)
(1.14732 -0.118882 5.54205e-18)
(1.1567 -0.140558 -1.73542e-17)
(1.17223 -0.159982 -3.13148e-17)
(1.19441 -0.19305 -1.01115e-17)
(1.13204 -0.0896099 -2.11633e-18)
(1.13545 -0.111175 5.58276e-18)
(1.14055 -0.121163 5.7198e-18)
(1.14848 -0.144031 -2.04863e-17)
(1.16252 -0.165046 -2.6627e-17)
(1.18262 -0.199218 -1.0042e-17)
(1.03168 -0.047613 -1.04746e-18)
(1.06789 -0.0222763 2.19901e-18)
(1.07765 -0.0872389 2.46916e-18)
(1.02779 -0.0617751 5.59623e-18)
(1.06173 -0.0288533 -3.90126e-18)
(1.06784 -0.120273 -1.23924e-18)
(1.02314 -0.0659467 2.31237e-17)
(1.05538 -0.030095 4.46702e-18)
(1.05972 -0.137136 7.60006e-18)
(1.01744 -0.0751309 -3.3907e-19)
(1.04751 -0.0329365 1.0522e-17)
(1.04968 -0.16882 5.28349e-18)
(1.01035 -0.0803712 -2.65662e-17)
(1.03756 -0.0349326 -2.445e-18)
(1.04193 -0.202064 -1.04825e-17)
)
;

boundaryField
{
    inlet
    {
        type            uniformFixedValue;
        uniformValue    constant (1 0 0);
        value           nonuniform 0();
    }
    outlet
    {
        type            pressureInletOutletVelocity;
        value           nonuniform 0();
    }
    polygon
    {
        type            fixedValue;
        value           nonuniform 0();
    }
    top
    {
        type            symmetryPlane;
    }
    bottom
    {
        type            symmetryPlane;
    }
    outside
    {
        type            zeroGradient;
    }
    procBoundary1to0
    {
        type            processor;
        value           nonuniform List<vector> 5((1.02079 0.00605082 -1.30171e-20) (1.01682 0.00238413 -4.10601e-19) (1.01321 0.000928008 1.3728e-17) (1.00769 -0.001559 2.61865e-17) (1.00147 -0.00362011 6.03332e-18));
    }
    procBoundary1to2
    {
        type            processor;
        value           nonuniform List<vector> 6((1.14947 -0.0858794 -6.84668e-18) (1.15867 -0.0929886 -7.33696e-18) (1.16583 -0.094227 1.06453e-17) (1.17852 -0.103571 -5.44002e-18) (1.19665 -0.107203 -1.39172e-17) (1.22397 -0.120275 -2.0819e-18));
    }
    procBoundary1to5
    {
        type            processor;
        value           nonuniform List<vector> 
14
(
(1.26895 -0.135822 2.61418e-17)
(1.26856 -0.150806 2.47379e-17)
(1.26489 -0.163645 1.12666e-17)
(1.26007 -0.176573 1.97164e-18)
(1.25352 -0.188494 6.82166e-18)
(1.24573 -0.19969 7.09519e-18)
(1.2373 -0.20991 1.01462e-17)
(1.22933 -0.219147 2.81936e-17)
(1.22057 -0.227436 3.02779e-17)
(1.20501 -0.234919 5.08541e-17)
(1.03532 -0.243786 -1.32974e-17)
(1.0022 -0.0856179 -3.25081e-17)
(1.02225 -0.0360185 -5.65856e-19)
(1.03532 -0.243786 -1.32974e-17)
)
;
    }
}


// ************************************************************************* //
