/*--------------------------------*- C++ -*----------------------------------*\
  =========                 |
  \\      /  F ield         | OpenFOAM: The Open Source CFD Toolbox
   \\    /   O peration     | Website:  https://openfoam.org
    \\  /    A nd           | Version:  7
     \\/     M anipulation  |
\*---------------------------------------------------------------------------*/
FoamFile
{
    version     2.0;
    format      ascii;
    class       surfaceScalarField;
    location    "20";
    object      phi;
}
// * * * * * * * * * * * * * * * * * * * * * * * * * * * * * * * * * * * * * //

dimensions      [0 3 -1 0 0 0 0];

internalField   nonuniform List<scalar> 
132
(
0.00353767
-2.39744e-05
0.00353308
4.97756e-05
0.00352824
4.16849e-05
0.00351505
0.000155356
6.75265e-05
0.016503
0.000433422
0.0164662
-0.000620869
0.0165286
0.000482448
0.0165275
-0.000883075
0.0166306
0.000662252
0.0167759
-0.00176307
-3.73911e-05
0.0165078
0.000390095
0.0164623
-0.000575368
0.0165278
0.000416904
0.0165073
-0.000862511
0.0166095
0.000560015
0.0167004
-0.00185395
-0.000160167
0.0165114
0.000343208
0.0164591
-0.000523151
0.0165259
0.000350141
0.0164893
-0.000825942
0.016591
0.000458389
0.0166434
-0.00190638
-0.000262745
0.016515
0.000292704
0.0164546
-0.000462814
0.0165229
0.000281873
0.0164671
-0.000770153
0.0165663
0.00035916
0.0165624
-0.00190241
-0.000357549
0.0165177
0.000239467
0.0164497
-0.000394808
0.0165188
0.000212733
0.0164434
-0.000694735
0.0165414
0.00026114
0.0164826
-0.00184355
-0.000451524
0.0165192
0.000184764
0.0164442
-0.000319849
0.0165135
0.000143398
0.0164182
-0.000599403
0.0165145
0.00016487
0.0163879
-0.00171698
-0.000540835
0.016518
0.000131243
0.0164387
-0.000240577
0.0165065
7.56155e-05
0.016393
-0.000485907
0.0164868
7.10899e-05
0.016291
-0.00152117
-0.000615957
0.0165115
8.41933e-05
0.0164357
-0.00016478
0.0164945
1.6874e-05
0.0163728
-0.000364254
0.0164549
-1.0971e-05
0.0161946
-0.0012609
-0.000668553
0.0165005
4.8166e-05
0.0164353
-9.96264e-05
0.016477
-2.47586e-05
0.0163616
-0.000248863
0.0164174
-6.68175e-05
0.0161137
-0.000957182
-0.000682089
0.0164887
0.0164388
0.0164557
0.0163622
0.0163629
0.0160873
)
;

boundaryField
{
    inlet
    {
        type            calculated;
        value           nonuniform List<scalar> 
11
(
-0.00353553
-0.0164645
-0.0164645
-0.0164645
-0.0164645
-0.0164645
-0.0164645
-0.0164645
-0.0164645
-0.0164645
-0.0164645
)
;
    }
    outlet
    {
        type            calculated;
        value           nonuniform 0();
    }
    polygon
    {
        type            calculated;
        value           nonuniform 0();
    }
    top
    {
        type            symmetryPlane;
        value           uniform 0;
    }
    bottom
    {
        type            symmetryPlane;
        value           uniform 0;
    }
    outside
    {
        type            calculated;
        value           nonuniform List<scalar> 7(-0.000471945 0.000657619 -0.000544794 0.000884159 -0.000765334 0.00161777 -8.62553e-05);
    }
    procBoundary0to1
    {
        type            processor;
        value           nonuniform List<scalar> 5(0.0168995 0.0168232 0.016746 0.0166572 0.0165766);
    }
    procBoundary0to4
    {
        type            processor;
        value           nonuniform List<scalar> 8(2.18388e-05 -4.51831e-05 -3.68443e-05 -0.000142169 0.0035028 -5.5276e-05 -0.000681576 -0.000516818);
    }
    procBoundary0to5
    {
        type            processor;
        value           nonuniform List<scalar> 5(0.0164772 0.0163661 0.0162472 0.0161272 0.0159221);
    }
}


// ************************************************************************* //
