/*--------------------------------*- C++ -*----------------------------------*\
  =========                 |
  \\      /  F ield         | OpenFOAM: The Open Source CFD Toolbox
   \\    /   O peration     | Website:  https://openfoam.org
    \\  /    A nd           | Version:  7
     \\/     M anipulation  |
\*---------------------------------------------------------------------------*/
FoamFile
{
    version     2.0;
    format      ascii;
    class       volVectorField;
    location    "20";
    object      U;
}
// * * * * * * * * * * * * * * * * * * * * * * * * * * * * * * * * * * * * * //

dimensions      [0 1 -1 0 0 0 0];

internalField   nonuniform List<vector> 
75
(
(1.03137 0.000408243 1.39539e-18)
(0.968629 -0.000846998 -1.35399e-19)
(1.03215 -0.000703095 -8.01865e-20)
(0.961344 -0.00267596 -4.00088e-20)
(1.03104 -0.0011168 -1.16146e-19)
(1.00069 0.0082887 -5.07398e-20)
(1.00223 -0.011595 2.63135e-20)
(1.00058 0.00953117 7.10902e-20)
(1.00469 -0.0157179 1.10706e-20)
(1.00554 0.0133311 -3.3851e-20)
(1.01329 -0.0289715 3.4817e-19)
(1.02362 0.00140269 -9.16382e-19)
(1.00137 0.00717456 -8.35576e-20)
(1.0019 -0.0104929 -2.9217e-20)
(1.00075 0.00773789 1.6205e-20)
(1.00395 -0.0154976 9.86604e-20)
(1.00434 0.0104572 -3.17774e-19)
(1.01099 -0.0329073 9.88949e-19)
(1.01895 -0.00258962 6.58713e-19)
(1.00229 0.00657579 4.572e-20)
(1.00125 -0.00982452 -5.71905e-20)
(1.00122 0.00691925 -5.81063e-20)
(1.00292 -0.015051 2.08034e-19)
(1.0036 0.00918203 -1.88064e-18)
(1.00882 -0.0331639 1.0933e-17)
(1.01515 -0.00330554 -6.88933e-18)
(1.00373 0.00562041 1.1549e-22)
(1.00004 -0.0087388 4.93286e-20)
(1.00218 0.00555213 -5.4817e-20)
(1.00119 -0.0142013 1.58895e-19)
(1.00314 0.00717481 -4.99049e-19)
(1.00543 -0.0341011 2.30642e-18)
(1.01007 -0.00578096 -9.69256e-18)
(1.0058 0.00473362 1.26879e-19)
(0.998138 -0.00763361 -5.48589e-19)
(1.00371 0.0044055 -2.07613e-20)
(0.998808 -0.0130525 5.72149e-19)
(1.00309 0.00550194 3.41097e-19)
(1.00171 -0.0334121 7.01755e-19)
(1.00513 -0.00707973 -2.46376e-18)
(1.00881 0.00375653 1.47299e-18)
(0.995159 -0.00634762 -7.78826e-18)
(1.00624 0.00314883 2.56231e-18)
(0.995299 -0.0115553 7.66608e-18)
(1.00399 0.00379915 5.97391e-18)
(0.996751 -0.0318891 8.44682e-19)
(0.999745 -0.00870731 2.25102e-18)
(1.01308 0.00280014 5.19765e-18)
(0.99062 -0.00499422 4.64286e-19)
(1.0103 0.00195626 3.35651e-19)
(0.990082 -0.00965695 4.8344e-19)
(1.00653 0.00205941 5.43559e-19)
(0.990188 -0.0288269 2.08283e-19)
(0.99544 -0.0106081 3.03649e-19)
(1.01868 0.00183711 3.2015e-19)
(0.984152 -0.00350021 9.35084e-20)
(1.01654 0.000698131 1.01304e-19)
(0.982135 -0.00751761 -3.87474e-20)
(1.01236 0.000476279 2.47123e-20)
(0.979838 -0.0250292 1.00284e-19)
(0.995014 -0.0110048 2.90405e-19)
(1.02488 0.00116217 5.66158e-20)
(0.976511 -0.00237141 1.49213e-19)
(1.02428 -8.21178e-05 1.89669e-19)
(0.972021 -0.00543946 -5.37775e-20)
(1.02141 -0.000851215 4.26284e-20)
(0.96569 -0.0196932 -9.35121e-20)
(1.00003 -0.0125712 4.14413e-19)
(1.02989 0.000528197 7.24866e-20)
(0.970151 -0.00111742 2.3975e-20)
(1.03099 -0.000820939 -3.69895e-20)
(0.962747 -0.00329616 -9.02355e-20)
(1.03082 -0.00154542 -3.05043e-21)
(0.949405 -0.0140185 1.72377e-19)
(1.0135 -0.0114784 -2.27711e-19)
)
;

boundaryField
{
    inlet
    {
        type            uniformFixedValue;
        uniformValue    constant (1 0 0);
        value           uniform (1 0 0);
    }
    outlet
    {
        type            pressureInletOutletVelocity;
        value           nonuniform 0();
    }
    polygon
    {
        type            fixedValue;
        value           nonuniform 0();
    }
    top
    {
        type            symmetryPlane;
    }
    bottom
    {
        type            symmetryPlane;
    }
    outside
    {
        type            zeroGradient;
    }
    procBoundary0to1
    {
        type            processor;
        value           nonuniform List<vector> 5((1.03382 -0.0566935 5.28924e-18) (1.0287 -0.0720495 -6.55406e-18) (1.02256 -0.076604 -1.52595e-17) (1.01527 -0.0863768 4.14715e-18) (1.00686 -0.0913852 1.2569e-17));
    }
    procBoundary0to4
    {
        type            processor;
        value           nonuniform List<vector> 8((1.03179 0.000377301 2.53803e-18) (0.968244 -0.00078247 -3.4695e-19) (1.03241 -0.000592042 -1.18841e-19) (0.961099 -0.00245939 -1.48853e-20) (0.948266 -0.0117898 4.82431e-19) (1.03084 -0.000871413 -1.53884e-19) (0.948266 -0.0117898 4.82431e-19) (1.01063 -0.00869677 -1.36952e-18));
    }
    procBoundary0to5
    {
        type            processor;
        value           nonuniform List<vector> 5((0.997479 -0.0958532 9.24283e-18) (0.986477 -0.0946617 -5.16344e-19) (0.970453 -0.0932989 -1.34676e-18) (0.949193 -0.0807602 -2.68359e-18) (0.909478 -0.0664635 3.29975e-19));
    }
}


// ************************************************************************* //
