/*--------------------------------*- C++ -*----------------------------------*\
  =========                 |
  \\      /  F ield         | OpenFOAM: The Open Source CFD Toolbox
   \\    /   O peration     | Website:  https://openfoam.org
    \\  /    A nd           | Version:  7
     \\/     M anipulation  |
\*---------------------------------------------------------------------------*/
FoamFile
{
    version     2.0;
    format      ascii;
    class       volVectorField;
    location    "94";
    object      U;
}
// * * * * * * * * * * * * * * * * * * * * * * * * * * * * * * * * * * * * * //

dimensions      [0 1 -1 0 0 0 0];

internalField   nonuniform List<vector> 
115
(
(0.045758 0.00192424 -5.32875e-18)
(0.042469 0.000442962 -3.43343e-19)
(0.0393591 -0.000986713 -3.29905e-19)
(0.036436 -0.00235871 -1.65018e-18)
(0.0337094 -0.00367042 -2.73802e-18)
(0.031187 -0.00491852 -2.06547e-18)
(0.0288781 -0.00609826 -2.52153e-18)
(0.0267916 -0.00720514 -3.52658e-19)
(0.024936 -0.00823474 -2.42012e-20)
(0.023319 -0.0091827 -6.93945e-20)
(0.0219472 -0.0100451 -1.46993e-19)
(0.0208256 -0.0108194 -1.06199e-19)
(0.0199585 -0.0115045 -4.7256e-20)
(0.0193493 -0.0121014 -3.1051e-20)
(0.0190011 -0.0126131 -5.16059e-20)
(0.0189172 -0.0130444 7.31393e-20)
(0.0191011 -0.0134018 -6.18374e-20)
(0.107416 0.00453088 -6.64262e-19)
(0.103549 0.00292302 -2.95226e-19)
(0.0998712 0.0013591 -1.23944e-18)
(0.0963937 -0.000154281 -7.31898e-18)
(0.0931279 -0.00161435 -7.73829e-18)
(0.0900889 -0.00301649 -7.68236e-18)
(0.087292 -0.0043595 -6.67946e-18)
(0.0847516 -0.00563808 -4.25203e-19)
(0.0824818 -0.00684708 4.78242e-20)
(0.0804963 -0.00798134 6.05469e-21)
(0.0788068 -0.00903591 1.63893e-20)
(0.0774233 -0.0100071 -8.44305e-21)
(0.076354 -0.0108934 -9.21628e-21)
(0.0756063 -0.0116951 -1.62005e-19)
(0.0751867 -0.0124151 1.60528e-19)
(0.0751018 -0.0130583 3.73003e-20)
(0.075358 -0.0136314 -5.63804e-20)
(0.173187 0.00752052 7.42129e-19)
(0.168836 0.00578081 -3.5636e-19)
(0.164685 0.00407601 -9.99928e-19)
(0.160751 0.00240888 -2.69547e-18)
(0.157052 0.000783756 -1.88329e-18)
(0.153606 -0.000795543 -2.55166e-18)
(0.150432 -0.00232527 -1.27432e-18)
(0.147556 -0.00380293 -3.87979e-19)
(0.144997 -0.00522397 -3.36701e-20)
(0.142776 -0.00658143 1.057e-19)
(0.140909 -0.00786874 1.19765e-20)
(0.139413 -0.00908077 3.36558e-20)
(0.138299 -0.0102148 1.42976e-19)
(0.137577 -0.0112705 -8.44692e-20)
(0.137259 -0.0122504 4.47691e-20)
(0.137353 -0.0131591 -1.84399e-19)
(0.137868 -0.0140034 -1.48191e-19)
(0.243258 0.0108157 5.14565e-18)
(0.238551 0.00893646 -6.43965e-19)
(0.234057 0.00707956 -1.58853e-18)
(0.229796 0.0052473 -6.28749e-18)
(0.225793 0.00344104 -1.41197e-18)
(0.222073 0.0016616 -6.10605e-18)
(0.218664 -8.58541e-05 -5.78895e-20)
(0.215594 -0.00179709 -6.95422e-20)
(0.212893 -0.00346624 -9.63264e-20)
(0.210589 -0.00508861 1.89566e-19)
(0.208706 -0.00665456 1.04358e-19)
(0.207263 -0.00815649 -2.09289e-19)
(0.206277 -0.00959012 2.33509e-20)
(0.205761 -0.0109539 -1.39371e-19)
(0.205727 -0.0122496 -8.10666e-20)
(0.206188 -0.0134815 2.60685e-20)
(0.207154 -0.0146565 3.07059e-20)
(0.317742 0.0143142 9.4573e-19)
(0.31284 0.0122885 -4.00174e-19)
(0.308161 0.0102689 -5.61419e-19)
(0.303732 0.00825644 -9.47755e-19)
(0.299582 0.00625076 -2.84803e-19)
(0.295744 0.00425079 -1.19828e-18)
(0.292255 0.00225625 2.61564e-21)
(0.289154 0.000273866 -3.12977e-19)
(0.286474 -0.00168669 -1.46654e-20)
(0.284252 -0.00361959 -2.9678e-19)
(0.282522 -0.00551411 -3.28815e-19)
(0.281306 -0.00735856 -2.83429e-19)
(0.280623 -0.00914684 -3.7194e-19)
(0.280491 -0.0108756 -2.57525e-19)
(0.280923 -0.0125454 -2.97106e-19)
(0.281932 -0.0141602 -1.96621e-19)
(0.28353 -0.0157264 -2.09999e-19)
(0.396513 0.0178889 1.24688e-18)
(0.391611 0.015712 6.54195e-20)
(0.386937 0.0135213 -8.32024e-19)
(0.382524 0.0113159 6.19262e-19)
(0.378407 0.009093 8.07816e-19)
(0.374627 0.00684877 -1.41191e-19)
(0.371228 0.00458073 2.02545e-19)
(0.368262 0.00229172 -1.43921e-18)
(0.365773 -6.41379e-06 -4.56636e-19)
(0.363802 -0.00229631 -1.29812e-18)
(0.362392 -0.00456919 -6.83095e-19)
(0.361571 -0.00681004 -1.67997e-18)
(0.361358 -0.00900882 -1.13105e-18)
(0.361773 -0.0111593 -7.71848e-19)
(0.36283 -0.0132609 -1.41849e-18)
(0.364543 -0.0153167 -9.62125e-19)
(0.366924 -0.0173329 -4.47133e-19)
(0.47436 0.0190591 2.42253e-18)
(0.469912 0.016694 -4.70048e-18)
(0.465726 0.0142886 2.69197e-18)
(0.461842 0.0118368 5.17064e-18)
(0.458309 0.00933107 2.36242e-19)
(0.455181 0.00676569 3.20531e-18)
(0.452522 0.00414202 -6.707e-18)
(0.45039 0.00147112 -1.21902e-18)
(0.448834 -0.00122602 -6.27637e-18)
(0.447899 -0.00393478 -1.61306e-18)
(0.447621 -0.00662486 -7.40867e-18)
(0.448021 -0.00928569 -5.33687e-18)
(0.449118 -0.0119105 -1.88873e-18)
)
;

boundaryField
{
    inlet
    {
        type            uniformFixedValue;
        uniformValue    constant (1 0 0);
        value           nonuniform 0();
    }
    outlet
    {
        type            pressureInletOutletVelocity;
        value           nonuniform 0();
    }
    polygon
    {
        type            fixedValue;
        value           nonuniform 0();
    }
    top
    {
        type            symmetryPlane;
    }
    bottom
    {
        type            symmetryPlane;
    }
    outside
    {
        type            zeroGradient;
    }
    procBoundary14to6
    {
        type            processor;
        value           nonuniform List<vector> 
17
(
(0.450925 -0.0144968 -7.37649e-18)
(0.453456 -0.0170466 -5.27602e-18)
(0.456721 -0.0195654 -1.59358e-18)
(0.559989 0.0221576 -3.34128e-19)
(0.556022 0.0196235 -3.85316e-19)
(0.552302 0.0170196 7.35426e-19)
(0.548876 0.0143351 6.58895e-19)
(0.545796 0.0115557 -1.31118e-22)
(0.54313 0.00866722 8.01276e-20)
(0.540951 0.00566682 -1.38459e-18)
(0.539332 0.00257237 -4.29416e-19)
(0.538334 -0.000572171 -1.36404e-18)
(0.538013 -0.00371805 -6.83082e-19)
(0.53841 -0.00689012 -1.62026e-18)
(0.539534 -0.0100603 -1.04671e-18)
(0.450925 -0.0144968 -7.37649e-18)
(0.541406 -0.0132066 -7.83738e-19)
)
;
    }
    procBoundary14to13
    {
        type            processor;
        value           nonuniform List<vector> 6((0.019557 -0.0136928 -9.37305e-21) (0.0759624 -0.0141424 1.95359e-19) (0.138813 -0.0147917 5.02644e-20) (0.208637 -0.0157829 -1.32106e-19) (0.285729 -0.0172525 -1.22234e-19) (0.369984 -0.0193177 -1.15068e-18));
    }
    procBoundary14to15
    {
        type            processor;
        value           nonuniform List<vector> 8((0.0492201 0.00345072 -4.1073e-18) (0.111461 0.00617715 4.32923e-18) (0.177723 0.00929029 1.0834e-18) (0.248158 0.0127134 1.08365e-18) (0.322843 0.0163437 4.78277e-19) (0.401615 0.0200515 5.79833e-19) (0.479033 0.0213869 5.8097e-18) (0.479033 0.0213869 5.8097e-18));
    }
    procBoundary14to22
    {
        type            processor;
        value           nonuniform List<vector> 
17
(
(-0.0119344 -0.000244341 8.81332e-19)
(-0.0145851 -0.00160168 3.32646e-19)
(-0.0170613 -0.00290333 -1.11712e-19)
(-0.0193587 -0.00414576 -7.94691e-19)
(-0.0214736 -0.00532342 -6.5944e-18)
(-0.0234018 -0.00643226 -1.69618e-18)
(-0.0251392 -0.0074681 -6.58329e-18)
(-0.0266818 -0.00842683 -6.79569e-19)
(-0.0280261 -0.00930446 -1.92347e-19)
(-0.0291693 -0.0100972 -3.97345e-20)
(-0.0301099 -0.0108021 -1.14545e-19)
(-0.030847 -0.0114169 -1.93287e-19)
(-0.0313805 -0.0119414 -1.9298e-19)
(-0.0317108 -0.0123767 -2.33284e-20)
(-0.0318384 -0.0127257 -5.24418e-21)
(-0.0317632 -0.0129931 -5.2843e-20)
(-0.031485 -0.0131848 -1.18021e-19)
)
;
    }
}


// ************************************************************************* //
