/*--------------------------------*- C++ -*----------------------------------*\
  =========                 |
  \\      /  F ield         | OpenFOAM: The Open Source CFD Toolbox
   \\    /   O peration     | Website:  https://openfoam.org
    \\  /    A nd           | Version:  7
     \\/     M anipulation  |
\*---------------------------------------------------------------------------*/
FoamFile
{
    version     2.0;
    format      ascii;
    class       volVectorField;
    location    "16";
    object      U;
}
// * * * * * * * * * * * * * * * * * * * * * * * * * * * * * * * * * * * * * //

dimensions      [0 1 -1 0 0 0 0];

internalField   nonuniform List<vector> 
8000
(
(0.938249 -0.0142941 1.08976e-19)
(0.929858 -0.0148456 -2.84566e-19)
(0.927885 -0.0146828 1.76739e-19)
(0.921251 -0.0152938 -7.15231e-19)
(0.917807 -0.0152858 7.5617e-19)
(0.911949 -0.0158389 -3.75761e-19)
(0.907646 -0.015986 -1.14105e-18)
(0.902072 -0.016489 6.50747e-19)
(0.897216 -0.0167571 7.64129e-19)
(0.891661 -0.0172439 1.52552e-18)
(0.886391 -0.0176128 2.37031e-18)
(0.880695 -0.0181207 2.43943e-18)
(0.875052 -0.0185848 4.25494e-18)
(0.869105 -0.0191446 -3.58971e-18)
(0.86308 -0.0197032 -1.60605e-18)
(0.856797 -0.0203327 -1.48719e-18)
(0.850358 -0.020982 -3.76717e-18)
(0.843672 -0.0216863 9.56377e-19)
(0.836783 -0.0224188 -3.42569e-18)
(0.829643 -0.023197 -6.55659e-19)
(0.822268 -0.0240085 -6.75684e-18)
(0.81463 -0.0248643 -2.59082e-18)
(0.806729 -0.0257612 8.39465e-19)
(0.798543 -0.026709 -9.18876e-19)
(0.790063 -0.0277106 -1.70767e-18)
(0.781266 -0.0287755 -2.36337e-18)
(0.772133 -0.0299095 -1.28246e-18)
(0.762641 -0.0311217 -4.34721e-18)
(0.752765 -0.0324189 6.18718e-19)
(0.742477 -0.0338096 -3.62994e-18)
(0.73175 -0.035302 -2.63117e-18)
(0.720553 -0.0369058 -2.90177e-18)
(0.708853 -0.0386321 -9.83565e-18)
(0.696615 -0.0404947 5.55072e-18)
(0.683797 -0.0425099 4.95119e-18)
(0.670354 -0.0446975 -5.07597e-18)
(0.656233 -0.0470805 -7.58633e-18)
(0.641375 -0.0496859 -1.67775e-17)
(0.62571 -0.052544 -5.99081e-18)
(0.609161 -0.0556886 -1.57355e-17)
(0.591639 -0.0591571 -1.99058e-18)
(0.573043 -0.0629901 -6.23699e-18)
(0.55326 -0.0672314 -1.31883e-17)
(0.532163 -0.0719263 4.87291e-18)
(0.509606 -0.0771166 -2.15136e-18)
(0.485431 -0.0828429 2.18667e-18)
(0.459468 -0.0891424 1.22854e-17)
(0.431532 -0.0960396 -3.68431e-18)
(0.401428 -0.103542 -2.49762e-18)
(0.368956 -0.111629 -9.60818e-19)
(0.333921 -0.120246 1.52145e-18)
(0.296145 -0.129288 4.83964e-18)
(0.255486 -0.138591 1.51276e-18)
(0.211855 -0.14792 2.65811e-18)
(0.165248 -0.156972 1.99021e-19)
(0.115764 -0.165372 6.91741e-19)
(0.0636567 -0.172765 4.97876e-19)
(0.00952157 -0.178405 2.88659e-18)
(-0.0461548 -0.181861 7.6756e-19)
(-0.10272 -0.182701 7.66094e-18)
(-0.159128 -0.180533 3.33462e-17)
(-0.214345 -0.175111 1.47438e-17)
(-0.26726 -0.166415 5.10476e-17)
(-0.31681 -0.154582 1.4342e-17)
(-0.362019 -0.139999 1.0888e-17)
(-0.402118 -0.123169 4.18616e-17)
(-0.43654 -0.104689 2.02368e-17)
(-0.464947 -0.0851687 1.06492e-16)
(-0.487208 -0.0651718 4.56316e-17)
(-0.503362 -0.0451791 9.46602e-18)
(-0.513563 -0.0255785 1.02408e-16)
(-0.518105 -0.0066918 4.81327e-17)
(-0.517283 0.0111426 1.50767e-16)
(-0.511394 0.0280728 3.34375e-17)
(-0.50088 0.043768 4.34305e-17)
(-0.486227 0.0581377 -1.27793e-17)
(-0.46779 0.0710769 -4.35318e-17)
(-0.446028 0.0824982 5.01554e-17)
(-0.421416 0.0923115 9.45087e-17)
(-0.394437 0.100412 1.35435e-17)
(-0.3656 0.106678 5.87123e-17)
(-0.335441 0.110977 2.49123e-17)
(-0.304539 0.113166 7.61385e-17)
(-0.273513 0.113165 -4.34922e-17)
(-0.243003 0.110933 3.62759e-17)
(-0.213669 0.106536 3.36325e-17)
(-0.186144 0.100164 5.32791e-17)
(-0.161009 0.0921595 -2.55163e-17)
(-0.138719 0.0830194 2.98292e-17)
(-0.119573 0.073408 -4.57715e-17)
(-0.103592 0.0640978 -1.15838e-17)
(-0.0906295 0.0559618 -1.12089e-17)
(-0.0801285 0.0498418 -3.2828e-18)
(-0.071879 0.0465509 -8.34022e-19)
(-0.0646301 0.0467424 1.20309e-19)
(-0.0605224 0.0504034 1.69158e-17)
(-0.0542935 0.0588114 6.83913e-19)
(-0.0573021 0.0655204 -7.92288e-17)
(-0.0476938 0.0787559 -1.95853e-17)
(-0.0368719 0.0485851 -1.10166e-16)
(0.935515 -0.0129121 2.3108e-19)
(0.926917 -0.0133944 -4.06818e-20)
(0.92492 -0.0132662 1.04755e-19)
(0.918103 -0.0138093 2.45179e-20)
(0.914596 -0.0138089 9.47749e-19)
(0.908578 -0.0143077 9.06686e-19)
(0.904179 -0.0144431 5.90323e-19)
(0.898456 -0.0148993 5.86017e-19)
(0.893483 -0.0151428 7.28274e-19)
(0.887779 -0.0155843 1.16941e-18)
(0.882376 -0.0159179 1.93722e-18)
(0.87653 -0.0163773 3.78946e-18)
(0.870744 -0.0167958 3.74953e-18)
(0.864643 -0.0173008 -3.49491e-18)
(0.858468 -0.017804 -4.13272e-18)
(0.852027 -0.0183713 -1.47735e-18)
(0.84543 -0.0189563 -1.27317e-18)
(0.83858 -0.0195913 -1.11625e-18)
(0.831524 -0.0202521 -6.16692e-18)
(0.82421 -0.0209547 -1.46401e-18)
(0.816656 -0.0216878 -6.27079e-18)
(0.808832 -0.022461 -8.651e-18)
(0.800738 -0.0232716 -2.23751e-18)
(0.792351 -0.0241279 3.19648e-18)
(0.783662 -0.0250326 -1.23277e-18)
(0.774647 -0.025994 -1.9527e-18)
(0.76529 -0.0270175 1.3017e-18)
(0.755564 -0.0281111 -7.8577e-18)
(0.745444 -0.0292812 4.58773e-18)
(0.734904 -0.0305355 -3.81543e-18)
(0.723913 -0.0318816 -2.28098e-18)
(0.71244 -0.0333283 1.72275e-18)
(0.70045 -0.0348858 -2.45819e-18)
(0.687906 -0.0365664 1.06319e-17)
(0.674764 -0.0383846 -2.70083e-18)
(0.660978 -0.0403583 -2.46169e-18)
(0.646493 -0.042508 -6.07715e-18)
(0.631247 -0.0448578 -1.01432e-17)
(0.615168 -0.0474347 -6.42842e-18)
(0.598176 -0.0502691 -7.07649e-18)
(0.580178 -0.0533948 -1.04353e-18)
(0.561071 -0.0568483 -3.57535e-18)
(0.540737 -0.0606689 -3.4735e-18)
(0.519047 -0.0648974 1.35808e-17)
(0.495852 -0.0695702 -1.0212e-18)
(0.470987 -0.0747195 2.16315e-18)
(0.444279 -0.0803801 5.70318e-18)
(0.41554 -0.0865735 -3.01223e-18)
(0.38457 -0.0933051 -1.53778e-18)
(0.351169 -0.100557 -9.2663e-19)
(0.315139 -0.108278 8.34626e-19)
(0.276304 -0.116375 3.36883e-19)
(0.234523 -0.124701 2.76992e-18)
(0.189708 -0.13305 1.19729e-18)
(0.141856 -0.141153 9.59253e-19)
(0.0910498 -0.148698 1.32122e-19)
(0.0376036 -0.155405 -4.49353e-18)
(-0.0179298 -0.160346 9.42301e-19)
(-0.0750728 -0.163538 -9.3394e-18)
(-0.133144 -0.164382 3.17488e-18)
(-0.191124 -0.162567 1.67635e-17)
(-0.247982 -0.157865 9.72953e-18)
(-0.302608 -0.150251 2.92467e-17)
(-0.353929 -0.139835 -2.24325e-18)
(-0.400958 -0.126944 -3.8403e-18)
(-0.442892 -0.112015 7.37337e-17)
(-0.479124 -0.0955672 1.77302e-17)
(-0.509269 -0.0781393 5.4274e-17)
(-0.533152 -0.0602357 3.13258e-17)
(-0.55077 -0.0422947 1.11438e-17)
(-0.562246 -0.0246753 3.89368e-17)
(-0.567834 -0.00767189 9.229e-17)
(-0.567803 0.0085417 1.29133e-16)
(-0.562507 0.0239979 1.98674e-17)
(-0.552331 0.0382068 7.89637e-17)
(-0.537711 0.0512751 -4.70776e-17)
(-0.519057 0.063089 -7.76941e-17)
(-0.496823 0.0735644 1.25647e-16)
(-0.471484 0.0826175 2.80214e-17)
(-0.443532 0.0901523 5.33179e-18)
(-0.413485 0.0960576 -2.1033e-17)
(-0.381896 0.100214 2.89468e-17)
(-0.349357 0.102493 2.42828e-17)
(-0.316508 0.102813 -9.7659e-17)
(-0.28401 0.101131 -2.80487e-17)
(-0.252546 0.0974973 -4.66005e-17)
(-0.222772 0.0920625 -2.42048e-18)
(-0.195294 0.0851172 -6.0709e-17)
(-0.170593 0.0770888 -2.72439e-17)
(-0.149012 0.0685552 -9.58463e-17)
(-0.130624 0.0601993 -1.59385e-17)
(-0.115353 0.0528056 -2.07364e-17)
(-0.10267 0.0471774 -7.58341e-18)
(-0.0923738 0.0441025 -6.53071e-20)
(-0.0830303 0.0443838 2.66436e-19)
(-0.0764577 0.0478948 3.65339e-17)
(-0.0672437 0.0565045 1.61517e-18)
(-0.064612 0.0628422 -6.33309e-17)
(-0.0495499 0.0749375 -1.86399e-17)
(-0.0250401 0.0438404 -5.11029e-17)
(0.9329 -0.0115005 1.84373e-19)
(0.924102 -0.0119032 2.17456e-19)
(0.922077 -0.0118201 9.38785e-20)
(0.915088 -0.0122841 3.10306e-19)
(0.911514 -0.0122987 1.27854e-18)
(0.905344 -0.0127353 -3.14024e-19)
(0.90085 -0.0128629 -7.84095e-19)
(0.894981 -0.0132672 7.32214e-19)
(0.889892 -0.0134875 7.04356e-19)
(0.884044 -0.0138804 7.75726e-19)
(0.878509 -0.0141789 1.06621e-18)
(0.872516 -0.0145877 1.91365e-19)
(0.866588 -0.0149604 2.20514e-18)
(0.860336 -0.0154092 -1.98466e-18)
(0.85401 -0.0158564 -1.95028e-18)
(0.847413 -0.0163602 -3.28892e-18)
(0.840658 -0.01688 8.33167e-19)
(0.833645 -0.0174445 -7.80613e-19)
(0.826421 -0.0180322 -2.3181e-18)
(0.818934 -0.0186574 -2.04716e-18)
(0.811201 -0.0193101 -6.12974e-18)
(0.80319 -0.0199989 -9.08251e-18)
(0.794903 -0.020721 1.89377e-18)
(0.786314 -0.0214839 -4.29171e-18)
(0.777416 -0.0222897 1.91902e-19)
(0.768183 -0.0231457 -4.04838e-18)
(0.758599 -0.0240566 8.33733e-18)
(0.748637 -0.0250297 -2.14278e-18)
(0.738273 -0.0260707 1.11722e-17)
(0.727477 -0.0271865 -4.07384e-18)
(0.71622 -0.0283841 -5.75276e-18)
(0.704468 -0.0296714 9.36755e-18)
(0.692186 -0.0310573 -8.06552e-20)
(0.679333 -0.0325529 2.56175e-18)
(0.665867 -0.034171 -9.78512e-18)
(0.651737 -0.0359273 9.79156e-19)
(0.636887 -0.0378399 -4.14031e-18)
(0.621253 -0.0399299 -7.87442e-18)
(0.604761 -0.0422211 -1.12686e-17)
(0.587329 -0.0447403 -3.00036e-18)
(0.568861 -0.0475169 -6.70181e-19)
(0.549251 -0.0505831 -2.11185e-18)
(0.528379 -0.0539731 2.67471e-19)
(0.506111 -0.0577223 7.27589e-18)
(0.482297 -0.0618654 7.49021e-19)
(0.456769 -0.0664308 1.5681e-18)
(0.429349 -0.071448 1.97513e-18)
(0.399847 -0.0769356 -2.69978e-18)
(0.368063 -0.0828979 -1.19201e-18)
(0.333793 -0.0893193 -1.87397e-18)
(0.296841 -0.0961554 -1.79175e-19)
(0.257032 -0.103325 -6.25336e-18)
(0.214227 -0.110701 6.32457e-18)
(0.168339 -0.118104 -4.09584e-19)
(0.119364 -0.125297 2.62477e-18)
(0.0673714 -0.132056 6.37702e-21)
(0.0127477 -0.13802 -1.84142e-18)
(-0.0440244 -0.142455 4.77062e-19)
(-0.102485 -0.145407 8.39851e-18)
(-0.161892 -0.146303 3.14097e-18)
(-0.221272 -0.144881 3.98004e-18)
(-0.279594 -0.140924 3.03223e-18)
(-0.335754 -0.134398 1.98936e-17)
(-0.388673 -0.125385 -4.60807e-17)
(-0.437352 -0.114152 -1.16367e-17)
(-0.480957 -0.101069 3.28075e-17)
(-0.518847 -0.0865803 1.44434e-17)
(-0.550594 -0.0711572 2.89272e-17)
(-0.575976 -0.0552449 1.9917e-17)
(-0.59495 -0.0392371 7.6433e-18)
(-0.607603 -0.0234548 2.06112e-17)
(-0.614172 -0.00816565 2.68593e-17)
(-0.614887 0.0064064 -1.64343e-17)
(-0.610116 0.0202784 -1.5026e-17)
(-0.600222 0.0331519 1.47576e-16)
(-0.585616 0.0450141 1.73738e-17)
(-0.566735 0.0557604 3.91785e-17)
(-0.544027 0.0653162 1.37086e-16)
(-0.517975 0.0736045 -4.28736e-17)
(-0.489076 0.0805378 -3.09776e-18)
(-0.457861 0.0860161 -9.13846e-17)
(-0.424896 0.0899332 5.74025e-17)
(-0.390793 0.0921772 -9.84793e-18)
(-0.356203 0.0926717 -8.9524e-17)
(-0.32181 0.0913757 -7.01466e-17)
(-0.288318 0.0883263 -1.2763e-16)
(-0.256403 0.0836538 -2.95971e-17)
(-0.226696 0.0776096 -2.92963e-17)
(-0.199701 0.0705659 -7.48228e-17)
(-0.175795 0.0630265 -9.77034e-17)
(-0.155085 0.0555929 -1.46785e-17)
(-0.137545 0.0489576 -4.1126e-17)
(-0.122656 0.0438619 -1.03355e-17)
(-0.110218 0.0410253 8.3303e-19)
(-0.0986424 0.0413227 2.30233e-18)
(-0.089436 0.0445485 7.3506e-17)
(-0.0771476 0.0528739 6.10224e-18)
(-0.0691768 0.0587185 -9.4707e-17)
(-0.049739 0.0689419 -1.90412e-17)
(-0.0191878 0.0401105 -4.02845e-17)
(0.930455 -0.0100515 2.0955e-19)
(0.92147 -0.0103861 6.55441e-19)
(0.919413 -0.0103329 7.92402e-21)
(0.912266 -0.0107254 6.5542e-20)
(0.908625 -0.010748 3.04031e-19)
(0.902313 -0.0111245 -8.18867e-19)
(0.897725 -0.0112404 1.93783e-19)
(0.891721 -0.0115923 7.99944e-19)
(0.886519 -0.011787 1.15146e-18)
(0.880534 -0.0121302 5.73783e-19)
(0.874873 -0.0123918 1.19478e-18)
(0.868739 -0.0127487 2.10457e-18)
(0.862674 -0.0130743 3.4869e-18)
(0.856276 -0.0134655 -1.11021e-19)
(0.849805 -0.0138554 2.17296e-19)
(0.843056 -0.0142945 -4.09805e-19)
(0.836148 -0.0147476 3.06942e-18)
(0.828976 -0.0152398 6.36593e-19)
(0.82159 -0.0157525 8.38596e-19)
(0.813935 -0.0162983 -1.79002e-18)
(0.806027 -0.0168684 -6.02502e-18)
(0.797835 -0.0174702 -6.16224e-18)
(0.789359 -0.0181013 6.98852e-18)
(0.780574 -0.0187679 -1.06476e-18)
(0.77147 -0.019472 2.44774e-18)
(0.762025 -0.0202198 2.6685e-18)
(0.752218 -0.0210154 5.51804e-18)
(0.742025 -0.021865 -9.61404e-19)
(0.731421 -0.0227739 1.02988e-17)
(0.720374 -0.0237481 -8.28526e-19)
(0.708855 -0.0247936 -7.56739e-19)
(0.696829 -0.0259177 2.3401e-18)
(0.684259 -0.0271281 3.48268e-18)
(0.671104 -0.0284344 -1.52074e-19)
(0.657319 -0.0298479 -1.97735e-18)
(0.642851 -0.031382 4.90074e-18)
(0.627644 -0.0330525 -1.24636e-18)
(0.61163 -0.0348777 -7.07645e-18)
(0.594736 -0.0368782 -1.01344e-18)
(0.576874 -0.0390772 -2.31617e-18)
(0.55795 -0.0415004 -1.19439e-18)
(0.537853 -0.0441756 -2.65469e-18)
(0.51646 -0.0471323 5.96945e-19)
(0.493637 -0.0504011 3.86453e-18)
(0.469229 -0.0540126 4.80676e-18)
(0.443069 -0.0579929 8.72077e-19)
(0.414976 -0.0623654 8.62634e-19)
(0.384757 -0.0671461 -3.72541e-18)
(0.352211 -0.0723389 -1.91729e-18)
(0.317134 -0.07793 -4.36954e-18)
(0.279333 -0.0838817 1.57439e-19)
(0.238633 -0.0901243 -2.8507e-18)
(0.194897 -0.0965489 -1.56842e-20)
(0.148045 -0.103002 -3.5793e-18)
(0.0980593 -0.109276 2.83937e-18)
(0.045028 -0.115257 2.31908e-20)
(-0.0106331 -0.120385 1.7765e-19)
(-0.0685004 -0.12435 1.77691e-19)
(-0.128111 -0.127008 4.20565e-18)
(-0.188688 -0.127901 3.05883e-18)
(-0.249294 -0.126801 -1.59132e-17)
(-0.308902 -0.123511 -2.41203e-18)
(-0.366413 -0.117991 1.3513e-17)
(-0.420748 -0.110304 -3.62042e-17)
(-0.470896 -0.100664 -9.4321e-18)
(-0.515999 -0.0893819 1.44929e-17)
(-0.555385 -0.0768351 1.70274e-17)
(-0.588583 -0.0634277 2.31759e-17)
(-0.615331 -0.049547 1.47614e-17)
(-0.635543 -0.0355414 6.33686e-18)
(-0.649276 -0.0216954 1.24333e-17)
(-0.656737 -0.00825979 -3.13075e-17)
(-0.658121 0.00460165 2.35176e-18)
(-0.653808 0.0168417 -1.69193e-17)
(-0.644151 0.028245 1.42948e-16)
(-0.629539 0.0387656 2.77758e-17)
(-0.610416 0.0483178 1.33429e-17)
(-0.587236 0.0568356 5.63914e-17)
(-0.560484 0.0642497 -1.98299e-17)
(-0.530669 0.0704826 -9.35435e-18)
(-0.498334 0.0754463 -5.58991e-17)
(-0.46406 0.0790476 5.85275e-18)
(-0.428471 0.0811893 -6.7781e-17)
(-0.392239 0.0818041 -2.6207e-17)
(-0.356063 0.0808507 -1.82612e-17)
(-0.320668 0.0783552 -1.4611e-16)
(-0.286752 0.0744244 -4.38886e-17)
(-0.254966 0.0692696 -1.87425e-17)
(-0.225836 0.0632083 -5.45724e-17)
(-0.199765 0.0566728 -5.32842e-17)
(-0.176882 0.0501851 -5.94977e-18)
(-0.157198 0.044347 -8.28437e-17)
(-0.14019 0.0398274 -1.16392e-17)
(-0.125656 0.0372626 7.34443e-19)
(-0.11188 0.0375394 2.80498e-18)
(-0.100078 0.0403965 6.35458e-17)
(-0.0848653 0.0481032 6.69526e-18)
(-0.0721326 0.0533783 -9.08281e-17)
(-0.0491514 0.0617406 -1.79751e-17)
(-0.0161162 0.0364644 -6.38656e-17)
(0.928232 -0.0085681 8.66627e-20)
(0.919078 -0.00884361 7.73497e-19)
(0.916987 -0.00880951 1.44043e-19)
(0.909699 -0.00913595 -2.41873e-19)
(0.905992 -0.0091615 -6.2091e-20)
(0.899552 -0.00947901 -1.90077e-18)
(0.894877 -0.00958073 6.11717e-19)
(0.888748 -0.00987992 9.00028e-19)
(0.883441 -0.0100472 2.28324e-18)
(0.87733 -0.0103397 4.81812e-19)
(0.871551 -0.0105633 1.13868e-18)
(0.865286 -0.0108673 3.89779e-18)
(0.859093 -0.0111446 9.58523e-19)
(0.85256 -0.0114775 3.1043e-18)
(0.845952 -0.0118091 2.5602e-18)
(0.839062 -0.0121825 1.16802e-18)
(0.83201 -0.0125678 7.03715e-18)
(0.824689 -0.0129865 3.29627e-18)
(0.81715 -0.0134229 6.08329e-18)
(0.809336 -0.0138877 5.47104e-19)
(0.801265 -0.0143733 -7.68417e-18)
(0.792901 -0.0148861 -1.30955e-17)
(0.784247 -0.015424 1.59838e-17)
(0.775276 -0.0159923 2.64403e-18)
(0.76598 -0.0165923 4.5859e-18)
(0.756332 -0.0172295 1.00022e-17)
(0.746316 -0.0179073 7.03013e-18)
(0.735904 -0.018631 -2.63133e-18)
(0.72507 -0.019405 1.74427e-17)
(0.713786 -0.0202347 5.69725e-18)
(0.702017 -0.0211252 2.97845e-18)
(0.68973 -0.0220825 -5.0337e-18)
(0.676886 -0.0231136 1.07558e-17)
(0.663443 -0.0242264 -1.88397e-19)
(0.649353 -0.0254305 2.40307e-18)
(0.634565 -0.0267375 1.32157e-17)
(0.619017 -0.0281605 5.26201e-18)
(0.602643 -0.029715 -1.15349e-17)
(0.585366 -0.0314186 9.19423e-18)
(0.567098 -0.0332909 -3.01576e-18)
(0.54774 -0.0353537 -1.70927e-18)
(0.527183 -0.0376307 -6.29767e-18)
(0.5053 -0.0401471 -7.48417e-19)
(0.481954 -0.0429289 8.81654e-19)
(0.456991 -0.0460021 1.37045e-17)
(0.430242 -0.0493884 9.22342e-19)
(0.401523 -0.0531064 1.91168e-18)
(0.370641 -0.0571697 -7.40112e-18)
(0.337395 -0.0615813 -2.52407e-18)
(0.301582 -0.06633 -1.14815e-17)
(0.26301 -0.0713841 1.08167e-18)
(0.221506 -0.0766854 3.34936e-19)
(0.176937 -0.0821432 -8.37528e-18)
(0.129229 -0.0876296 -1.10254e-17)
(0.0783405 -0.0929625 4.19063e-18)
(0.024419 -0.0981164 -8.02428e-21)
(-0.032145 -0.102424 4.00642e-18)
(-0.0909798 -0.105874 3.46439e-19)
(-0.151578 -0.108202 2.0951e-18)
(-0.213168 -0.109053 5.2699e-18)
(-0.274833 -0.108231 -6.34055e-17)
(-0.335554 -0.105564 -3.99356e-18)
(-0.394239 -0.10101 1.10922e-17)
(-0.449807 -0.0946132 -5.96909e-17)
(-0.501241 -0.0865433 -8.59793e-19)
(-0.547661 -0.0770533 7.28841e-18)
(-0.588366 -0.066455 3.27826e-17)
(-0.622851 -0.0550869 2.38884e-17)
(-0.650811 -0.0432765 1.16525e-17)
(-0.672126 -0.0313235 1.02285e-17)
(-0.686818 -0.0194704 6.48954e-18)
(-0.695068 -0.00794305 6.61932e-17)
(-0.69704 0.00313835 3.07524e-17)
(-0.693116 0.0136323 3.46317e-18)
(-0.683643 0.0234836 7.62756e-17)
(-0.668997 0.032586 1.0421e-18)
(-0.649622 0.0408658 3.00811e-18)
(-0.625976 0.0482671 1.82063e-17)
(-0.598552 0.0547289 -3.78378e-17)
(-0.567868 0.060184 -2.26351e-17)
(-0.534477 0.0645569 -6.20946e-17)
(-0.498976 0.0677682 -1.96485e-17)
(-0.462003 0.0697373 -2.82763e-17)
(-0.424247 0.0704028 2.53025e-17)
(-0.386425 0.069727 4.78198e-18)
(-0.34928 0.0677277 -1.44395e-16)
(-0.313529 0.0644909 -4.91477e-17)
(-0.279844 0.0601906 -1.50461e-17)
(-0.248772 0.0550917 -7.41653e-17)
(-0.220738 0.0495564 -4.19363e-17)
(-0.195886 0.0440276 1.1704e-17)
(-0.174251 0.0390142 -7.81096e-17)
(-0.155299 0.0351021 -7.60583e-18)
(-0.138823 0.0328327 5.5946e-18)
(-0.123008 0.0330556 9.50378e-17)
(-0.108801 0.0354775 9.75823e-17)
(-0.0909516 0.0423133 1.06746e-17)
(-0.0741334 0.0469716 -5.69516e-17)
(-0.0482292 0.0537275 -1.57895e-17)
(-0.0143328 0.0325168 -4.1536e-17)
(0.926283 -0.00705485 8.15926e-20)
(0.916981 -0.00727581 4.71676e-19)
(0.914856 -0.00725472 -7.34948e-19)
(0.907446 -0.00751793 -6.75581e-19)
(0.903679 -0.0075432 -2.03649e-18)
(0.897126 -0.00780212 -1.64403e-18)
(0.892372 -0.00788787 2.3797e-19)
(0.886133 -0.00813349 4.54752e-19)
(0.880732 -0.00827218 4.80729e-19)
(0.87451 -0.00851286 8.7926e-19)
(0.868624 -0.00869726 -1.86034e-19)
(0.862244 -0.00894738 2.20564e-18)
(0.855935 -0.00917548 -1.37729e-18)
(0.849281 -0.00944908 -3.9022e-19)
(0.842551 -0.00972152 -8.85363e-19)
(0.835533 -0.0100283 2.30381e-19)
(0.828352 -0.0103448 4.88738e-18)
(0.820896 -0.0106889 -2.46801e-18)
(0.813219 -0.0110476 5.88515e-18)
(0.805262 -0.0114298 -1.89716e-18)
(0.797042 -0.0118294 -7.67469e-18)
(0.788524 -0.0122514 -1.50805e-17)
(0.779709 -0.0126942 1.73169e-17)
(0.77057 -0.0131619 -2.41535e-18)
(0.761098 -0.0136558 6.04912e-18)
(0.751267 -0.0141802 7.21698e-18)
(0.74106 -0.014738 2.02011e-18)
(0.730448 -0.0153334 4.15823e-18)
(0.719407 -0.0159701 1.59426e-17)
(0.707905 -0.0166525 1.96761e-18)
(0.695909 -0.017385 -6.19877e-18)
(0.683383 -0.0181726 -5.93457e-19)
(0.670289 -0.0190209 3.70112e-18)
(0.656582 -0.0199364 6.95838e-19)
(0.642214 -0.0209272 2.61785e-18)
(0.627132 -0.0220025 6.77559e-18)
(0.611273 -0.0231733 1.8264e-18)
(0.594569 -0.024452 -3.48144e-18)
(0.576942 -0.0258532 1.13142e-18)
(0.558303 -0.027393 -2.54911e-18)
(0.538551 -0.0290891 -1.95956e-18)
(0.517574 -0.0309612 -1.53638e-17)
(0.495245 -0.0330301 -4.52674e-18)
(0.471425 -0.0353175 -7.2222e-18)
(0.445959 -0.0378448 6.81226e-18)
(0.418677 -0.0406298 3.17484e-18)
(0.389396 -0.0436857 7.53482e-18)
(0.35792 -0.0470238 -1.54961e-17)
(0.32405 -0.0506467 -3.77298e-18)
(0.287583 -0.0545454 -4.31121e-18)
(0.248328 -0.0586947 1.73785e-18)
(0.206118 -0.0630477 6.4689e-18)
(0.160821 -0.0675315 -7.66758e-18)
(0.11237 -0.072043 -6.79692e-18)
(0.0606988 -0.0764274 3.65633e-18)
(0.00601456 -0.0806996 1.61657e-20)
(-0.0513176 -0.0842428 2.36532e-18)
(-0.110978 -0.0871303 8.12546e-19)
(-0.172413 -0.0891031 1.48294e-18)
(-0.234862 -0.0898825 9.03168e-18)
(-0.297426 -0.0893029 -6.1608e-17)
(-0.359091 -0.0872197 1.04655e-17)
(-0.418774 -0.0835917 9.64457e-18)
(-0.475395 -0.0784475 -3.60797e-17)
(-0.527929 -0.0719166 3.46676e-17)
(-0.575481 -0.0641985 1.70162e-17)
(-0.617323 -0.0555424 8.05809e-17)
(-0.652918 -0.0462225 3.23888e-17)
(-0.681928 -0.0365071 7.7282e-18)
(-0.704195 -0.0266454 1.76422e-17)
(-0.719716 -0.016838 7.34228e-18)
(-0.728639 -0.00728858 3.25377e-17)
(-0.731126 0.00192544 5.23592e-17)
(-0.72752 0.0106313 3.24717e-17)
(-0.718166 0.0188765 6.43865e-17)
(-0.703459 0.0264857 -5.36045e-17)
(-0.68383 0.0334151 -3.8639e-18)
(-0.659737 0.0396223 -7.11164e-18)
(-0.631681 0.0450558 -9.22725e-17)
(-0.600189 0.0496589 -4.35594e-17)
(-0.565828 0.0533693 -1.0357e-16)
(-0.529204 0.0561234 -3.63629e-17)
(-0.490974 0.0578542 -6.67409e-18)
(-0.451839 0.0585083 -3.36632e-17)
(-0.412536 0.0580532 7.92233e-18)
(-0.373822 0.0565002 -1.34794e-16)
(-0.336435 0.0539163 -5.18979e-17)
(-0.301066 0.05044 -1.54352e-17)
(-0.268281 0.0462856 -3.66596e-17)
(-0.238523 0.0417467 -4.6271e-17)
(-0.211949 0.0371871 4.23026e-17)
(-0.18861 0.0330222 -3.31831e-17)
(-0.16796 0.0297463 1.82855e-18)
(-0.14978 0.0277982 1.124e-17)
(-0.13218 0.027948 1.4399e-16)
(-0.11587 0.0298934 8.55755e-17)
(-0.0957548 0.0356747 8.63397e-18)
(-0.07555 0.0396516 -6.83632e-17)
(-0.0471921 0.0450726 -1.4661e-17)
(-0.0131352 0.0281468 -5.75671e-17)
(0.924654 -0.00551605 -1.01706e-19)
(0.915229 -0.00568512 4.83583e-20)
(0.913074 -0.00567265 -1.5327e-18)
(0.905563 -0.00587474 -6.69595e-19)
(0.901743 -0.00589701 -2.23763e-18)
(0.895097 -0.00609764 -2.85068e-19)
(0.890274 -0.00616581 -8.23742e-19)
(0.883944 -0.00635718 -9.33107e-20)
(0.878463 -0.00646606 -1.41521e-18)
(0.872146 -0.00665396 2.13797e-18)
(0.866171 -0.00679817 -2.5872e-18)
(0.859692 -0.00699341 2.65904e-18)
(0.853286 -0.00717145 -3.60315e-18)
(0.846528 -0.00738486 -4.29518e-18)
(0.839694 -0.0075973 -5.26775e-18)
(0.832568 -0.00783648 -3.42865e-18)
(0.825275 -0.00808331 -2.00774e-18)
(0.817705 -0.00835166 -1.24421e-18)
(0.80991 -0.00863155 -4.83586e-19)
(0.80183 -0.00892986 6.03463e-19)
(0.793483 -0.00924181 -5.90365e-18)
(0.784832 -0.00957141 -1.40252e-17)
(0.775879 -0.00991724 1.34276e-17)
(0.766596 -0.0102826 -7.16619e-18)
(0.756973 -0.0106684 7.21926e-18)
(0.746985 -0.011078 1.03378e-17)
(0.736613 -0.0115136 -1.70705e-18)
(0.72583 -0.0119785 6.88728e-18)
(0.714609 -0.0124757 8.35729e-18)
(0.702919 -0.0130086 6.54476e-18)
(0.690727 -0.0135805 -6.78937e-19)
(0.677995 -0.0141955 4.80799e-19)
(0.664684 -0.014858 -1.59191e-18)
(0.650749 -0.0155731 2.32971e-18)
(0.63614 -0.016347 1.52678e-18)
(0.620803 -0.0171869 4.29629e-18)
(0.604675 -0.0181013 2.21e-18)
(0.587686 -0.0191 3.18347e-18)
(0.569756 -0.0201943 -7.06783e-18)
(0.550795 -0.0213967 -2.90627e-18)
(0.530702 -0.0227212 1.44296e-18)
(0.509362 -0.0241832 -8.43631e-18)
(0.486647 -0.0257991 -1.24773e-17)
(0.462418 -0.0275863 2.7178e-18)
(0.436519 -0.0295624 1.92162e-18)
(0.40878 -0.0317402 6.22533e-18)
(0.379016 -0.0341281 2.53178e-17)
(0.347034 -0.0367357 -7.43347e-18)
(0.312632 -0.0395649 -7.67899e-18)
(0.27561 -0.0426092 6.80938e-19)
(0.23578 -0.0458494 1.76496e-18)
(0.192975 -0.0492498 2.11087e-17)
(0.147068 -0.0527547 -1.05533e-17)
(0.0980002 -0.0562846 -4.88802e-18)
(0.0456796 -0.0597233 4.70685e-18)
(-0.00963676 -0.0630651 -9.7482e-20)
(-0.0676002 -0.0658522 3.96883e-18)
(-0.12794 -0.0681455 1.32541e-18)
(-0.190061 -0.0697299 2.34835e-18)
(-0.253216 -0.0703944 1.73277e-17)
(-0.316521 -0.0700065 -5.52182e-17)
(-0.378965 -0.0684514 -1.68409e-17)
(-0.439475 -0.0656921 4.45484e-18)
(-0.49697 -0.0617465 -3.23822e-17)
(-0.550421 -0.056709 3.89612e-18)
(-0.598917 -0.0507304 4.89399e-17)
(-0.64171 -0.0440013 4.37617e-17)
(-0.678234 -0.0367334 2.80519e-17)
(-0.708123 -0.0291358 3.19707e-19)
(-0.731186 -0.0214053 4.03356e-17)
(-0.747398 -0.013697 1.0541e-17)
(-0.756879 -0.0061819 3.70068e-17)
(-0.759776 0.00111922 1.09244e-16)
(-0.756408 0.00789103 7.59904e-17)
(-0.747131 0.0144281 6.71098e-17)
(-0.732349 0.0204624 -9.26895e-19)
(-0.712471 0.0259605 9.69509e-18)
(-0.687964 0.0308932 -6.21839e-17)
(-0.659335 0.0352207 -5.07121e-17)
(-0.627122 0.0388988 -7.0886e-17)
(-0.5919 0.04188 -1.9829e-16)
(-0.554288 0.0441143 -4.05532e-17)
(-0.514957 0.0455476 1.50142e-17)
(-0.474622 0.0461371 2.62598e-17)
(-0.434034 0.0458556 1.21028e-17)
(-0.393968 0.0447093 -1.12719e-16)
(-0.355178 0.0427472 -5.25996e-17)
(-0.318376 0.0400742 -1.7214e-17)
(-0.284141 0.0368545 -2.79263e-17)
(-0.252937 0.0333145 -7.24521e-17)
(-0.224928 0.0297383 5.98876e-18)
(-0.200178 0.0264472 -2.41736e-17)
(-0.178124 0.0238372 1.78887e-17)
(-0.158541 0.0222414 1.83796e-17)
(-0.139475 0.0223139 9.31039e-17)
(-0.121441 0.0237683 1.07939e-16)
(-0.099484 0.0283649 5.78814e-18)
(-0.0765851 0.0315816 -2.8415e-17)
(-0.0461715 0.0358573 -6.36643e-18)
(-0.0122162 0.0232417 -2.2632e-17)
(0.923388 -0.00395629 -4.22621e-19)
(0.913868 -0.00407506 -3.48233e-19)
(0.911688 -0.00406799 -1.46508e-18)
(0.904099 -0.00421065 -4.46097e-19)
(0.900237 -0.00422776 -1.48701e-18)
(0.893518 -0.00437046 4.56082e-19)
(0.888642 -0.00441978 -2.45088e-18)
(0.88224 -0.00455648 -1.3635e-19)
(0.876696 -0.00463462 -9.13855e-19)
(0.870305 -0.00476904 6.57496e-19)
(0.864259 -0.0048723 -1.61372e-18)
(0.857703 -0.00501195 -3.80369e-19)
(0.85122 -0.00513927 -4.95963e-18)
(0.844381 -0.00529183 -2.17868e-18)
(0.837464 -0.00544366 -4.81088e-18)
(0.830252 -0.00561459 -1.45643e-18)
(0.822872 -0.00579101 -1.52793e-18)
(0.815211 -0.00598284 -1.44188e-18)
(0.807323 -0.00618298 2.59533e-18)
(0.799146 -0.00639636 6.23728e-18)
(0.790698 -0.00661954 -7.48158e-19)
(0.781942 -0.00685542 -5.92199e-18)
(0.772879 -0.00710295 4.42474e-18)
(0.763482 -0.00736451 -2.16292e-18)
(0.75374 -0.00764069 5.74813e-18)
(0.743627 -0.00793387 9.24703e-18)
(0.733124 -0.00824563 9.05618e-18)
(0.722204 -0.00857841 1.02671e-17)
(0.71084 -0.00893426 4.69949e-18)
(0.699 -0.00931569 2.80975e-19)
(0.686651 -0.00972512 6.52001e-18)
(0.673755 -0.0101654 2.77442e-18)
(0.66027 -0.0106398 1.12152e-17)
(0.646153 -0.0111518 3.85535e-18)
(0.631352 -0.0117061 6.02636e-19)
(0.615811 -0.0123076 3.8776e-18)
(0.599468 -0.0129626 4.47502e-18)
(0.58225 -0.013678 1.58692e-17)
(0.564078 -0.0144619 5.76931e-18)
(0.54486 -0.0153233 -7.55268e-18)
(0.524494 -0.0162723 8.88976e-18)
(0.502863 -0.0173201 -1.63264e-18)
(0.479841 -0.0184789 -5.65937e-18)
(0.455284 -0.0197619 1.19192e-17)
(0.42904 -0.0211835 -3.6464e-18)
(0.400938 -0.0227502 5.94343e-18)
(0.370793 -0.0244644 1.29894e-17)
(0.33841 -0.0263352 1.73345e-18)
(0.303589 -0.0283648 6.57046e-18)
(0.266131 -0.0305495 4.71226e-18)
(0.22585 -0.0328763 -2.10402e-18)
(0.182581 -0.0353207 1.65654e-17)
(0.136199 -0.0378445 -4.60657e-18)
(0.086654 -0.0403915 5.52296e-18)
(0.0338385 -0.0428957 2.80953e-18)
(-0.0219666 -0.0452843 2.20032e-19)
(-0.0804195 -0.0473376 1.37785e-18)
(-0.141279 -0.0490359 2.82085e-18)
(-0.203928 -0.0502342 6.4469e-18)
(-0.267632 -0.0507836 -5.33912e-18)
(-0.331514 -0.0505858 -4.37898e-17)
(-0.394572 -0.049555 -4.59701e-17)
(-0.455736 -0.047659 -2.52866e-18)
(-0.513925 -0.0449053 -5.39393e-17)
(-0.568108 -0.041355 -7.95437e-18)
(-0.617361 -0.0371111 4.48405e-18)
(-0.660915 -0.0323066 1.7691e-17)
(-0.698184 -0.0270914 1.65844e-17)
(-0.728774 -0.0216159 -6.90345e-18)
(-0.75247 -0.016024 1.02907e-16)
(-0.769226 -0.0104283 1.35611e-18)
(-0.77913 -0.00496406 9.71517e-17)
(-0.782383 0.000353551 6.49766e-17)
(-0.779198 0.0053141 1.41041e-16)
(-0.76992 0.0101141 8.5313e-17)
(-0.755049 0.0145368 1.50685e-17)
(-0.734945 0.0185703 7.31152e-18)
(-0.710077 0.0221935 -2.89041e-18)
(-0.680959 0.0253772 -3.25406e-17)
(-0.648136 0.0280896 -9.50626e-18)
(-0.612193 0.0302958 -1.04587e-16)
(-0.573762 0.0319581 1.02002e-17)
(-0.533522 0.033038 6.8584e-17)
(-0.492201 0.0335047 9.24789e-17)
(-0.450566 0.0333385 2.8387e-18)
(-0.409405 0.0325434 -1.82333e-16)
(-0.369487 0.0311537 -5.88801e-17)
(-0.33154 0.0292438 -1.83349e-17)
(-0.29616 0.026931 -3.75869e-17)
(-0.263824 0.0243763 -3.77221e-17)
(-0.234702 0.0217844 -4.17374e-18)
(-0.208868 0.0193829 -3.71462e-17)
(-0.185744 0.0174634 4.95025e-17)
(-0.165098 0.0162538 3.26282e-17)
(-0.144927 0.0162599 1.07063e-16)
(-0.125596 0.0172356 9.2593e-17)
(-0.102252 0.0205611 -9.5361e-18)
(-0.0773419 0.0229424 -1.42491e-17)
(-0.0452683 0.0261356 -8.58735e-19)
(-0.0114689 0.0177085 -1.11732e-17)
(0.92252 -0.00238039 -4.97318e-19)
(0.912935 -0.00244953 -3.00748e-19)
(0.910737 -0.00244552 -7.76841e-19)
(0.903095 -0.00252986 -2.86679e-19)
(0.899203 -0.00254021 -2.24167e-18)
(0.892436 -0.00262523 -7.3622e-19)
(0.887522 -0.00265476 -1.89433e-18)
(0.881071 -0.00273652 -7.50826e-19)
(0.875483 -0.00278332 -1.30085e-18)
(0.869042 -0.00286385 -4.61612e-20)
(0.862947 -0.0029257 -1.40646e-18)
(0.856337 -0.0030094 -1.71439e-18)
(0.849801 -0.00308568 -1.68837e-18)
(0.842906 -0.00317711 -6.01205e-19)
(0.835932 -0.0032681 5.82134e-19)
(0.828661 -0.00337056 -1.302e-18)
(0.82122 -0.00347631 -1.64941e-18)
(0.813496 -0.00359134 -4.58531e-18)
(0.805543 -0.00371138 4.16854e-18)
(0.797298 -0.0038394 6.08434e-18)
(0.78878 -0.00397334 -2.76729e-18)
(0.779951 -0.00411492 -4.3935e-18)
(0.770812 -0.00426352 -2.47362e-18)
(0.761335 -0.00442054 6.10177e-20)
(0.75151 -0.00458634 3.18843e-18)
(0.74131 -0.00476235 1.20205e-17)
(0.730716 -0.00494948 7.89584e-18)
(0.719701 -0.00514921 5.4534e-18)
(0.708237 -0.00536278 7.27554e-18)
(0.696293 -0.00559168 -8.59898e-18)
(0.683834 -0.00583739 -2.23629e-18)
(0.670823 -0.00610162 4.13946e-18)
(0.657217 -0.00638627 1.10657e-17)
(0.642972 -0.00669359 -1.00979e-17)
(0.628037 -0.0070262 -1.47195e-18)
(0.612354 -0.00738723 3.99465e-18)
(0.595859 -0.00778033 4.18371e-18)
(0.578482 -0.00820975 1.54181e-17)
(0.56014 -0.00868034 4.79851e-18)
(0.540742 -0.00919763 -1.99809e-17)
(0.520185 -0.00976786 -3.0954e-18)
(0.498352 -0.010398 8.37387e-18)
(0.475114 -0.0110962 -7.84777e-18)
(0.450329 -0.0118719 3.58771e-18)
(0.423843 -0.0127378 -1.22769e-17)
(0.39549 -0.0136983 4.8892e-18)
(0.365082 -0.0147403 9.33692e-18)
(0.332422 -0.0158729 1.12009e-17)
(0.297313 -0.0170984 9.89652e-19)
(0.259556 -0.018415 -9.61411e-18)
(0.218966 -0.019815 -1.14595e-17)