/*--------------------------------*- C++ -*----------------------------------*\
  =========                 |
  \\      /  F ield         | OpenFOAM: The Open Source CFD Toolbox
   \\    /   O peration     | Website:  https://openfoam.org
    \\  /    A nd           | Version:  7
     \\/     M anipulation  |
\*---------------------------------------------------------------------------*/
FoamFile
{
    version     2.0;
    format      ascii;
    class       surfaceScalarField;
    location    "96";
    object      phi;
}
// * * * * * * * * * * * * * * * * * * * * * * * * * * * * * * * * * * * * * //

dimensions      [0 3 -1 0 0 0 0];

internalField   nonuniform List<scalar> 
206
(
0.000968707
5.30341e-05
0.000964085
6.01456e-05
0.000958772
6.67747e-05
0.000952821
7.28841e-05
0.000946287
7.84422e-05
0.000939228
8.34219e-05
0.000931705
8.77998e-05
0.000923778
9.15561e-05
0.000915511
9.46751e-05
0.000906969
9.71461e-05
0.000898217
9.89646e-05
0.000889319
0.000100133
0.000100662
0.000108842
-1.25062e-05
0.000130003
-2.7573e-05
0.000149709
-4.19946e-05
0.000167933
-5.57123e-05
0.000184639
-6.86712e-05
0.000199793
-8.08258e-05
0.00021336
-9.21287e-05
0.000225308
-0.000102534
0.000235611
-0.000111998
0.000244249
-0.000120478
0.000251213
-0.000127943
0.000256496
-0.00013437
0.000260101
-0.000139754
0.000262028
-0.00014411
0.00026228
-0.00014747
0.000260856
-0.000149885
-0.000151421
0.000548355
-2.9557e-05
0.000563989
-4.3207e-05
0.000578203
-5.62082e-05
0.000590992
-6.85016e-05
0.000602355
-8.00339e-05
0.000612289
-9.07595e-05
0.000620794
-0.000100634
0.000627876
-0.000109616
0.000633545
-0.000117666
0.000637816
-0.00012475
0.000640712
-0.000130839
0.000642261
-0.000135918
0.000642494
-0.000139986
0.00064144
-0.000143057
0.000639131
-0.000145161
0.000635591
-0.000146345
-0.00014667
0.000954251
-4.1081e-05
0.000964333
-5.32888e-05
0.000972994
-6.48696e-05
0.000980258
-7.57654e-05
0.00098615
-8.59258e-05
0.000990697
-9.53073e-05
0.000993933
-0.000103869
0.000995891
-0.000111575
0.000996613
-0.000118389
0.000996147
-0.000124283
0.000994544
-0.000129236
0.00099186
-0.000133234
0.000988152
-0.000136279
0.00098348
-0.000138384
0.000977897
-0.000139578
0.000971454
-0.000139902
-0.000139411
0.00132425
-4.72901e-05
0.00132897
-5.80072e-05
0.00133224
-6.81424e-05
0.00133412
-7.76403e-05
0.00133465
-8.64537e-05
0.00133388
-9.45424e-05
0.00133188
-0.00010187
0.00132871
-0.000108404
0.00132444
-0.000114114
0.00131913
-0.000118978
0.00131287
-0.000122978
0.00130574
-0.000126104
0.00129782
-0.000128358
0.00128919
-0.000129754
0.00127993
-0.000130316
0.00127011
-0.000130082
-0.000129099
0.00165502
-4.85737e-05
0.00165475
-5.77398e-05
0.001653
-6.63885e-05
0.00164983
-7.44684e-05
0.00164531
-8.19369e-05
0.00163953
-8.87577e-05
0.00163256
-9.48989e-05
0.00162448
-0.000100332
0.0016154
-0.000105034
0.00160541
-0.000108984
0.0015946
-0.00011217
0.00158308
-0.000114583
0.00157095
-0.000116226
0.00155831
-0.000117112
0.00154525
-0.000117263
0.00153188
-0.00011671
-0.000115493
0.00194253
0.00193783
0.00193158
0.00192389
0.00191484
0.00190452
0.00189304
0.00188051
0.00186703
0.00185272
0.0018377
0.00182208
0.00180599
0.00178954
0.00177285
0.00175602
)
;

boundaryField
{
    inlet
    {
        type            calculated;
        value           nonuniform 0();
    }
    outlet
    {
        type            calculated;
        value           nonuniform 0();
    }
    polygon
    {
        type            calculated;
        value           nonuniform 0();
    }
    top
    {
        type            symmetryPlane;
        value           uniform 0;
    }
    bottom
    {
        type            symmetryPlane;
        value           uniform 0;
    }
    outside
    {
        type            calculated;
        value           nonuniform 0();
    }
    procBoundary46to38
    {
        type            processor;
        value           nonuniform List<scalar> 
17
(
-4.9152e-05
-5.55231e-05
-6.14617e-05
-6.69331e-05
-7.19085e-05
-7.63632e-05
-8.0276e-05
-8.3629e-05
-8.64083e-05
-8.86041e-05
-9.02123e-05
-9.12349e-05
0.000880338
-9.1681e-05
-0.000100569
-9.98824e-05
-9.8634e-05
)
;
    }
    procBoundary46to45
    {
        type            processor;
        value           nonuniform List<scalar> 6(0.000257748 0.00063084 0.000964195 0.0012598 0.00151828 0.00173916);
    }
    procBoundary46to47
    {
        type            processor;
        value           nonuniform List<scalar> 8(-0.00097259 -4.54859e-05 -8.62679e-05 -0.000531304 -0.000942727 -0.00131804 -0.00165374 -0.00194562);
    }
    procBoundary46to54
    {
        type            processor;
        value           nonuniform List<scalar> 
17
(
-1.0068e-05
6.41231e-06
2.2288e-05
3.74887e-05
5.19648e-05
6.56719e-05
7.85622e-05
9.05864e-05
0.000101695
0.00011184
0.000120979
0.000129086
0.00013615
0.000142183
0.000147218
0.00015131
0.000154529
)
;
    }
}


// ************************************************************************* //
