/*--------------------------------*- C++ -*----------------------------------*\
  =========                 |
  \\      /  F ield         | OpenFOAM: The Open Source CFD Toolbox
   \\    /   O peration     | Website:  https://openfoam.org
    \\  /    A nd           | Version:  7
     \\/     M anipulation  |
\*---------------------------------------------------------------------------*/
FoamFile
{
    version     2.0;
    format      ascii;
    class       surfaceScalarField;
    location    "32";
    object      phi;
}
// * * * * * * * * * * * * * * * * * * * * * * * * * * * * * * * * * * * * * //

dimensions      [0 3 -1 0 0 0 0];

internalField   nonuniform List<scalar> 
206
(
-0.000809384
-0.00457687
-0.000584518
-0.004346
-0.000388914
-0.00403179
-0.000223629
-0.00365557
-8.6803e-05
-0.00324456
2.49781e-05
-0.00281983
0.000114906
-0.00239386
0.000184301
-0.00197215
0.000234207
-0.00155824
0.000265262
-0.00115464
0.000278181
-0.000764176
0.000273926
-0.000390004
0.000253637
-3.56103e-05
0.000218846
0.000296593
0.000171237
0.000602271
0.000112606
0.000878231
0.00112161
-0.00139231
-0.00477697
-0.00121256
-0.00452576
-0.00105837
-0.00418597
-0.000930498
-0.00378345
-0.000826869
-0.00334819
-0.00074433
-0.00290237
-0.00068059
-0.0024576
-0.00063426
-0.00201848
-0.000604689
-0.00158781
-0.000591222
-0.00116811
-0.000593012
-0.000762386
-0.000608949
-0.000374067
-0.000637657
-6.90192e-06
-0.000677404
0.00033634
-0.000726381
0.000651247
-0.000782733
0.000934584
0.00118341
-0.0019808
-0.0049284
-0.00184577
-0.00466079
-0.00173152
-0.00430022
-0.0016391
-0.00387587
-0.00156697
-0.00342031
-0.00151275
-0.00295659
-0.00147474
-0.00249562
-0.00145187
-0.00204135
-0.00144343
-0.00159625
-0.00144854
-0.00116299
-0.00146609
-0.00074484
-0.00149469
-0.00034547
-0.0015328
3.12105e-05
-0.00157825
0.00038179
-0.00162917
0.00070217
-0.0016836
0.000989016
0.00123941
-0.00256389
-0.00503063
-0.00247309
-0.0047516
-0.00239753
-0.00437578
-0.00233904
-0.00393436
-0.00229727
-0.00346209
-0.00227087
-0.00298298
-0.00225868
-0.00250781
-0.00225967
-0.00204035
-0.00227286
-0.00158307
-0.00229705
-0.0011388
-0.00233083
-0.000711064
-0.00237248
-0.000303822
-0.00242021
7.89473e-05
-0.00247156
0.000433138
-0.00252451
0.000755125
-0.00257701
0.00104151
0.00128951
-0.00313159
-0.00508297
-0.00308514
-0.00479805
-0.00304778
-0.00441313
-0.0030224
-0.00395974
-0.00301029
-0.0034742
-0.00301135
-0.00298192
-0.00302483
-0.00249434
-0.00304958
-0.0020156
-0.00308427
-0.00154838
-0.00312741
-0.00109566
-0.00317725
-0.000661226
-0.00323178
-0.000249287
-0.00328876
0.000135925
-0.00334567
0.000490046
-0.00340022
0.000809675
-0.0034503
0.00109159
0.00133325
-0.00367448
-0.00367342
-0.00479912
-0.00367488
-0.00441167
-0.00368265
-0.00395198
-0.00369985
-0.003457
-0.00372781
-0.00295396
-0.00376627
-0.00245587
-0.00381399
-0.00196789
-0.00386933
-0.00149304
-0.00393057
-0.00103442
-0.00399565
-0.000596144
-0.00406226
-0.000182675
-0.00412769
0.000201356
-0.00418936
0.000551716
-0.0042448
-0.00429187
-0.00422955
-0.0042718
-0.00431387
-0.00436055
-0.00441478
-0.00447707
-0.00454628
-0.00462071
-0.00469855
-0.0047775
-0.00485494
-0.00492782
)
;

boundaryField
{
    inlet
    {
        type            calculated;
        value           nonuniform 0();
    }
    outlet
    {
        type            calculated;
        value           nonuniform 0();
    }
    polygon
    {
        type            calculated;
        value           nonuniform 0();
    }
    top
    {
        type            symmetryPlane;
        value           uniform 0;
    }
    bottom
    {
        type            symmetryPlane;
        value           uniform 0;
    }
    outside
    {
        type            calculated;
        value           nonuniform 0();
    }
    procBoundary14to6
    {
        type            processor;
        value           nonuniform List<scalar> 
17
(
0.000865106
0.00113867
0.00137026
-0.00475276
-0.00436942
-0.0039099
-0.00341032
-0.00289973
-0.00239358
-0.00189868
-0.0014186
-0.000956587
-0.000517189
-0.000105242
0.000274236
-0.00499342
0.000617324
)
;
    }
    procBoundary14to13
    {
        type            processor;
        value           nonuniform List<scalar> 6(4.49066e-05 -0.000844537 -0.0017396 -0.0026271 -0.00349404 -0.00432888);
    }
    procBoundary14to15
    {
        type            processor;
        value           nonuniform List<scalar> 8(0.00105723 0.00159242 0.00213224 0.00266612 0.00318394 0.00367596 -0.00508445 0.00418319);
    }
    procBoundary14to22
    {
        type            processor;
        value           nonuniform List<scalar> 
17
(
0.00432903
0.00412114
0.00383618
0.00349028
0.00310774
0.00270805
0.00230393
0.00190276
0.00150834
0.00112358
0.000751256
0.000394259
5.58999e-05
-0.000261802
-0.000554662
-0.0008196
-0.00105391
)
;
    }
}


// ************************************************************************* //
