/*--------------------------------*- C++ -*----------------------------------*\
  =========                 |
  \\      /  F ield         | OpenFOAM: The Open Source CFD Toolbox
   \\    /   O peration     | Website:  https://openfoam.org
    \\  /    A nd           | Version:  7
     \\/     M anipulation  |
\*---------------------------------------------------------------------------*/
FoamFile
{
    version     2.0;
    format      ascii;
    class       volScalarField;
    location    "15";
    object      p;
}
// * * * * * * * * * * * * * * * * * * * * * * * * * * * * * * * * * * * * * //

dimensions      [0 2 -2 0 0 0 0];

internalField   nonuniform List<scalar> 
125
(
0.00341586
0.00975154
0.00849368
0.020891
-0.00455794
0.0185206
-0.055692
-0.0343834
0.00341195
0.00973366
0.00849532
0.0208405
-0.0045664
0.0183565
-0.055827
-0.0347733
0.00340801
0.00971386
0.00849628
0.0207787
-0.00458547
0.0181559
-0.0560136
-0.0352236
0.00340356
0.00969253
0.00849561
0.0207145
-0.0046079
0.017954
-0.0562015
-0.0356552
0.00339859
0.0096699
0.00849378
0.0034443
0.00986758
0.00852009
0.0211735
-0.00444934
0.0193133
-0.0549557
-0.0327643
-0.16862
0.00344418
0.00986572
0.00852247
0.0211637
-0.00444912
0.0192649
-0.0549933
-0.0329198
-0.168804
0.00344377
0.00986169
0.00852493
0.0211461
-0.00445218
0.0192005
-0.0550538
-0.0330769
-0.168933
0.00344264
0.0098553
0.00852562
0.0211251
-0.00445851
0.0191335
-0.0551192
-0.0332312
-0.169097
0.00344074
0.00984658
0.00852446
0.0211013
-0.00446772
0.019063
-0.0551889
-0.0333872
-0.169269
0.0034381
0.00983558
0.00852162
0.0210743
-0.00447969
0.0189881
-0.0552637
-0.0335443
-0.169453
0.00343474
0.00982231
0.00851707
0.0210441
-0.00449457
0.0189089
-0.0553435
-0.0337018
-0.169649
0.00343062
0.00980675
0.00851056
0.0210109
-0.00451282
0.0188267
-0.0554282
-0.033857
-0.169858
0.00342582
0.00978903
0.00850249
0.0209748
-0.00453352
0.0187422
-0.0555169
-0.0340065
-0.17007
0.00342073
0.00976997
0.00849623
0.0209344
-0.00454998
0.0186433
-0.0556078
-0.034174
-0.170292
)
;

boundaryField
{
    inlet
    {
        type            zeroGradient;
    }
    outlet
    {
        type            fixedValue;
        value           uniform 0;
    }
    polygon
    {
        type            zeroGradient;
    }
    top
    {
        type            symmetryPlane;
    }
    bottom
    {
        type            symmetryPlane;
    }
    outside
    {
        type            slip;
    }
    procBoundary7to3
    {
        type            processor;
        value           nonuniform List<scalar> 9(0.0206491 -0.00463143 0.0177521 -0.0563862 -0.0360801 0.00339316 0.00964596 0.0206491 0.0084909);
    }
    procBoundary7to6
    {
        type            processor;
        value           nonuniform List<scalar> 
15
(
-0.170597
-0.170597
-0.171023
-0.171484
-0.171938
-0.128623
-0.128566
-0.128521
-0.128488
-0.128463
-0.128447
-0.128441
-0.128452
-0.128482
-0.128459
)
;
    }
    procBoundary7to11
    {
        type            processor;
        value           nonuniform List<scalar> 9(0.0034443 0.00986758 0.00852009 0.0211735 -0.00444934 0.0193133 -0.0549557 -0.0327643 -0.16862);
    }
}


// ************************************************************************* //
