/*--------------------------------*- C++ -*----------------------------------*\
  =========                 |
  \\      /  F ield         | OpenFOAM: The Open Source CFD Toolbox
   \\    /   O peration     | Website:  https://openfoam.org
    \\  /    A nd           | Version:  7
     \\/     M anipulation  |
\*---------------------------------------------------------------------------*/
FoamFile
{
    version     2.0;
    format      ascii;
    class       volScalarField;
    location    "20";
    object      p;
}
// * * * * * * * * * * * * * * * * * * * * * * * * * * * * * * * * * * * * * //

dimensions      [0 2 -2 0 0 0 0];

internalField   nonuniform List<scalar> 
125
(
-0.182163
-0.182215
-0.182219
-0.182238
-0.182271
-0.18231
-0.182355
-0.182405
-0.182465
-0.182534
-0.234281
-0.18081
-0.233657
-0.181069
-0.233354
-0.181057
-0.232966
-0.181143
-0.232563
-0.181271
-0.232174
-0.1814
-0.231804
-0.18153
-0.2314
-0.181663
-0.230999
-0.181805
-0.230634
-0.181987
-0.330417
-0.411128
-0.522911
-0.741882
-0.329826
-0.408712
-0.52636
-0.717055
-0.33023
-0.408178
-0.531401
-0.691836
-0.330286
-0.407338
-0.535139
-0.677541
-0.32968
-0.405734
-0.536824
-0.668881
-0.287147
-0.328572
-0.403697
-0.53721
-0.662782
-0.286004
-0.327064
-0.401391
-0.536799
-0.658955
-0.284649
-0.325155
-0.39879
-0.535653
-0.657373
-0.283066
-0.322808
-0.39577
-0.533713
-0.658502
-0.281294
-0.320193
-0.392929
-0.532331
-0.659577
-0.329843
-0.421869
-0.499093
-0.91211
-0.329974
-0.422698
-0.498223
-0.882804
-0.331347
-0.424966
-0.502893
-0.841803
-0.332786
-0.426636
-0.508613
-0.811698
-0.333728
-0.427
-0.512888
-0.791263
-0.334181
-0.426281
-0.515751
-0.774921
-0.334257
-0.424758
-0.517785
-0.760833
-0.33399
-0.422516
-0.519183
-0.749097
-0.333357
-0.419565
-0.520143
-0.739586
-0.332297
-0.415657
-0.519542
-0.732053
-0.21908
-0.222948
-0.220719
-0.21821
-0.235044
-0.211355
-0.229817
-0.184288
-0.242736
-0.174033
)
;

boundaryField
{
    inlet
    {
        type            zeroGradient;
    }
    outlet
    {
        type            fixedValue;
        value           nonuniform 0();
    }
    polygon
    {
        type            zeroGradient;
    }
    top
    {
        type            symmetryPlane;
    }
    bottom
    {
        type            symmetryPlane;
    }
    outside
    {
        type            slip;
    }
    procBoundary10to6
    {
        type            processor;
        value           uniform -0.182534;
    }
    procBoundary10to9
    {
        type            processor;
        value           nonuniform List<scalar> 4(-0.330469 -0.422386 -0.501706 -0.884117);
    }
    procBoundary10to11
    {
        type            processor;
        value           nonuniform List<scalar> 
16
(
-0.230359
-0.230359
-0.230168
-0.229981
-0.229799
-0.229628
-0.229468
-0.229319
-0.229184
-0.229063
-0.228931
-0.105324
-0.104914
-0.1045
-0.104065
-0.103666
)
;
    }
    procBoundary10to14
    {
        type            processor;
        value           nonuniform List<scalar> 
23
(
-0.289902
-0.289248
-0.28908
-0.288746
-0.288078
-0.288078
-0.256401
-0.25584
-0.255145
-0.254308
-0.25334
-0.288123
-0.288807
-0.290051
-0.291198
-0.291965
-0.292374
-0.29249
-0.292336
-0.291903
-0.291179
-0.20526
-0.22158
)
;
    }
    procBoundary10to15
    {
        type            processor;
        value           nonuniform List<scalar> 10(-0.107378 -0.106967 -0.106528 -0.106131 -0.105731 -0.106559 -0.106756 -0.107835 -0.10721 -0.107885);
    }
}


// ************************************************************************* //
