/*--------------------------------*- C++ -*----------------------------------*\
  =========                 |
  \\      /  F ield         | OpenFOAM: The Open Source CFD Toolbox
   \\    /   O peration     | Website:  https://openfoam.org
    \\  /    A nd           | Version:  7
     \\/     M anipulation  |
\*---------------------------------------------------------------------------*/
FoamFile
{
    version     2.0;
    format      ascii;
    class       volVectorField;
    location    "76";
    object      U;
}
// * * * * * * * * * * * * * * * * * * * * * * * * * * * * * * * * * * * * * //

dimensions      [0 1 -1 0 0 0 0];

internalField   nonuniform List<vector> 
175
(
(-0.276441 -0.00781648 6.84429e-19)
(-0.272212 -0.00772176 7.77628e-19)
(-0.268048 -0.007588 -6.45682e-19)
(-0.263972 -0.00741777 -2.67036e-19)
(-0.260002 -0.00721404 -4.88883e-19)
(-0.256156 -0.00698011 2.74704e-19)
(-0.252449 -0.00671944 8.17171e-20)
(-0.248894 -0.00643562 7.38382e-19)
(-0.245501 -0.00613223 -2.17131e-19)
(-0.24228 -0.00581273 3.61716e-19)
(-0.239237 -0.00548047 -3.87257e-19)
(-0.236376 -0.00513862 2.96206e-20)
(-0.233701 -0.00479014 -2.60019e-19)
(-0.231211 -0.00443786 4.30716e-19)
(-0.228907 -0.0040844 -2.71118e-19)
(-0.226786 -0.0037323 2.66678e-19)
(-0.224845 -0.003384 2.29383e-19)
(-0.223077 -0.00304191 2.45031e-19)
(-0.273344 -0.00840912 4.81525e-19)
(-0.269181 -0.00830536 4.46168e-19)
(-0.265083 -0.00815951 -4.49513e-19)
(-0.26107 -0.00797439 -2.23827e-19)
(-0.257161 -0.00775327 -2.46097e-19)
(-0.253372 -0.00749973 5.18712e-20)
(-0.24972 -0.00721756 6.87184e-20)
(-0.246217 -0.00691067 5.48072e-19)
(-0.242872 -0.00658294 3.2625e-20)
(-0.239695 -0.00623816 1.92174e-19)
(-0.236693 -0.00587994 -2.40597e-19)
(-0.233868 -0.00551171 -8.15152e-20)
(-0.231225 -0.00513669 -1.5726e-19)
(-0.228763 -0.00475796 4.16838e-19)
(-0.226482 -0.00437841 -8.29252e-20)
(-0.224378 -0.00400077 2.45476e-19)
(-0.22245 -0.00362771 2.37145e-19)
(-0.22069 -0.00326185 5.00632e-20)
(-0.270022 -0.00898709 3.58023e-19)
(-0.265931 -0.00887431 1.34215e-19)
(-0.261902 -0.00871647 -3.27423e-19)
(-0.257956 -0.00851665 6.57513e-20)
(-0.254111 -0.0082784 -4.10146e-20)
(-0.250384 -0.0080056 -1.50088e-19)
(-0.24679 -0.00770238 5.96538e-20)
(-0.243341 -0.00737294 4.36196e-19)
(-0.240048 -0.00702148 2.30446e-19)
(-0.236918 -0.00665208 4.66576e-20)
(-0.233958 -0.00626865 -1.71849e-19)
(-0.231171 -0.00587488 1.69985e-20)
(-0.228561 -0.00547426 -8.97848e-20)
(-0.226128 -0.00507009 4.85314e-19)
(-0.22387 -0.00466549 7.63799e-20)
(-0.221786 -0.00426342 2.63846e-19)
(-0.219869 -0.00386675 2.72103e-19)
(-0.218116 -0.00347828 1.136e-19)
(-0.266479 -0.00955481 2.28768e-19)
(-0.262464 -0.00943321 -1.63868e-19)
(-0.258508 -0.00926362 -2.5588e-19)
(-0.254633 -0.00904939 1.1501e-19)
(-0.250856 -0.00879433 1.64646e-19)
(-0.247194 -0.00850266 -1.44192e-19)
(-0.243661 -0.00817879 7.76581e-20)
(-0.24027 -0.00782724 4.05428e-19)
(-0.23703 -0.00745252 2.35457e-19)
(-0.233949 -0.00705902 -1.0694e-19)
(-0.231033 -0.00665093 -1.24126e-19)
(-0.228287 -0.0062322 1.27589e-19)
(-0.225712 -0.00580659 -2.04662e-20)
(-0.223308 -0.00537766 4.17002e-19)
(-0.221074 -0.00494872 1.90582e-20)
(-0.219007 -0.00452295 -1.24125e-19)
(-0.217103 -0.00410345 3.46786e-19)
(-0.215356 -0.00369321 1.78291e-19)
(-0.262718 -0.0101113 7.9347e-20)
(-0.258782 -0.00998111 -2.02481e-19)
(-0.254904 -0.00980003 -2.58131e-19)
(-0.251103 -0.00957169 2.12057e-19)
(-0.247398 -0.00930021 1.30749e-19)
(-0.243804 -0.00899007 -1.6295e-19)
(-0.240336 -0.00864601 -1.24597e-19)
(-0.237004 -0.00827287 2.13684e-19)
(-0.23382 -0.00787546 2.69344e-19)
(-0.23079 -0.00745845 -2.8202e-19)
(-0.227921 -0.00702633 -7.85688e-20)
(-0.225216 -0.00658331 5.56882e-20)
(-0.222676 -0.00613343 1.64105e-20)
(-0.220302 -0.00568047 2.22363e-19)
(-0.218092 -0.00522797 -5.87558e-20)
(-0.216043 -0.00477935 -5.40262e-19)
(-0.214151 -0.00433791 2.45292e-19)
(-0.212408 -0.00390685 2.76046e-21)
(-0.258742 -0.0106555 -1.25324e-19)
(-0.254889 -0.0105169 -3.02033e-20)
(-0.251092 -0.0103246 -2.6566e-19)
(-0.24737 -0.0100825 6.9292e-20)
(-0.243739 -0.00979496 1.14137e-19)
(-0.240216 -0.00946682 -2.22828e-19)
(-0.236815 -0.0091031 -3.29986e-19)
(-0.233546 -0.00870894 5.41088e-20)
(-0.23042 -0.00828946 3.3906e-19)
(-0.227443 -0.00784963 -3.16333e-19)
(-0.224621 -0.00739421 -3.36144e-20)
(-0.221958 -0.00692769 -8.76168e-22)
(-0.219455 -0.00645435 7.53179e-20)
(-0.217111 -0.00597823 5.43008e-20)
(-0.214926 -0.00550309 -1.45171e-19)
(-0.212894 -0.00503259 -5.9967e-19)
(-0.211011 -0.00457022 2.10728e-19)
(-0.209271 -0.00411941 -1.82302e-19)
(-0.254555 -0.0111865 -7.90258e-20)
(-0.250789 -0.0110397 1.6323e-19)
(-0.247076 -0.0108366 -3.1821e-20)
(-0.243435 -0.0105811 2.50961e-19)
(-0.239882 -0.010278 1.03783e-19)
(-0.236433 -0.00993234 -8.22386e-20)
(-0.233101 -0.00954953 -3.51899e-19)
(-0.229897 -0.00913498 -7.34591e-20)
(-0.226831 -0.00869412 2.49743e-19)
(-0.223909 -0.00823221 -2.07949e-19)
(-0.221136 -0.00775428 1.61179e-20)
(-0.218516 -0.00726511 -5.51227e-20)
(-0.216049 -0.00676923 1.46489e-19)
(-0.213736 -0.0062709 1.01796e-19)
(-0.211574 -0.00577415 -4.00619e-20)
(-0.209558 -0.00528284 -5.1045e-19)
(-0.207685 -0.00480069 -3.25532e-21)
(-0.205946 -0.00433132 -1.60324e-19)
(-0.25016 -0.0117043 -1.10585e-19)
(-0.246485 -0.0115495 3.73655e-19)
(-0.24286 -0.0113357 2.15964e-19)
(-0.239303 -0.0110672 4.56192e-19)
(-0.23583 -0.0107489 9.93408e-20)
(-0.232457 -0.0103863 -1.86425e-19)
(-0.229197 -0.00998491 -4.50577e-19)
(-0.22606 -0.00955057 3.18202e-20)
(-0.223055 -0.00908897 1.95981e-19)
(-0.220188 -0.00860567 -1.41354e-19)
(-0.217465 -0.00810599 7.92705e-20)
(-0.214889 -0.00759496 -1.13375e-19)
(-0.212459 -0.0070774 2.32365e-19)
(-0.210176 -0.00655782 -5.01306e-20)
(-0.208036 -0.00604046 4.8786e-20)
(-0.206036 -0.00552942 -5.07694e-19)
(-0.20417 -0.00502865 -1.85656e-19)
(-0.20243 -0.00454196 -1.67327e-19)
(-0.245561 -0.0122108 -1.90856e-19)
(-0.24198 -0.0120483 3.81388e-19)
(-0.238445 -0.011824 4.55898e-19)
(-0.234975 -0.0115427 4.88204e-19)
(-0.231585 -0.0112095 7.54249e-20)
(-0.228291 -0.0108301 -3.30669e-19)
(-0.225104 -0.0104105 -3.80973e-19)
(-0.222036 -0.00995674 -4.76138e-20)
(-0.219093 -0.00947483 -4.51004e-20)
(-0.216284 -0.00897061 -1.04604e-19)
(-0.213611 -0.00844967 1.6529e-19)
(-0.211078 -0.00791732 -2.11895e-19)
(-0.208685 -0.00737864 3.76017e-19)
(-0.206432 -0.00683841 -1.85428e-21)
(-0.204314 -0.00630114 1.60738e-19)
(-0.202327 -0.00577114 -3.67402e-19)
(-0.200466 -0.00525259 -4.03601e-19)
(-0.198722 -0.00474952 -1.86475e-19)
(-0.240762 -0.0127068 -3.83509e-19)
(-0.237277 -0.0125371 1.60823e-19)
(-0.233836 -0.012303 4.88843e-19)
(-0.230455 -0.0120096 2.95795e-19)
(-0.227151 -0.0116622 5.22061e-20)
(-0.223937 -0.0112669 -2.83123e-19)
(-0.220826 -0.01083 -3.47582e-19)
(-0.217827 -0.0103577 8.81829e-20)
(-0.233603 -0.00408354 3.23732e-19)
(-0.231273 -0.0037601 -7.94692e-19)
(-0.229131 -0.00343747 1.20266e-19)
(-0.227173 -0.00311788 4.95638e-19)
(-0.225395 -0.0028035 2.22679e-19)
)
;

boundaryField
{
    inlet
    {
        type            uniformFixedValue;
        uniformValue    constant (1 0 0);
        value           nonuniform 0();
    }
    outlet
    {
        type            pressureInletOutletVelocity;
        value           nonuniform 0();
    }
    polygon
    {
        type            fixedValue;
        value           nonuniform 0();
    }
    top
    {
        type            symmetryPlane;
    }
    bottom
    {
        type            symmetryPlane;
    }
    outside
    {
        type            zeroGradient;
    }
    procBoundary21to13
    {
        type            processor;
        value           nonuniform List<vector> 
19
(
(-0.214948 -0.00985634 -7.98219e-20)
(-0.212196 -0.00933213 -8.87407e-20)
(-0.209574 -0.00879091 6.80713e-20)
(-0.207085 -0.00823826 -3.4898e-19)
(-0.204728 -0.00767947 3.83702e-19)
(-0.202503 -0.0071196 -1.75968e-19)
(-0.200405 -0.00656342 8.6816e-20)
(-0.19843 -0.0060155 -3.09796e-19)
(-0.196571 -0.00548024 -6.78551e-19)
(-0.194821 -0.0049619 -2.31911e-19)
(-0.22599 -0.01411 -3.77439e-19)
(-0.22282 -0.0139224 -3.5813e-19)
(-0.219683 -0.0136635 7.36244e-22)
(-0.216594 -0.013339 -1.63697e-19)
(-0.213568 -0.0129551 -8.91175e-20)
(-0.210617 -0.0125186 -3.30191e-19)
(-0.207753 -0.0120366 -4.19371e-19)
(-0.214948 -0.00985634 -7.98219e-20)
(-0.204983 -0.0115164 -4.36692e-20)
)
;
    }
    procBoundary21to20
    {
        type            processor;
        value           nonuniform List<vector> 8((-0.219091 -0.00290576 -2.94433e-20) (-0.216518 -0.0031008 3.54841e-20) (-0.213757 -0.0032952 1.14471e-19) (-0.210807 -0.00348932 1.90533e-19) (-0.207666 -0.00368349 3.00216e-19) (-0.204333 -0.00387825 -3.0991e-20) (-0.200807 -0.00407306 -3.47966e-19) (-0.197086 -0.00426583 -4.79824e-19));
    }
    procBoundary21to22
    {
        type            processor;
        value           nonuniform List<vector> 10((-0.280714 -0.00787005 3.49227e-19) (-0.277549 -0.00846846 3.61659e-19) (-0.274154 -0.00905226 8.04466e-19) (-0.270534 -0.00962566 1.0683e-18) (-0.266691 -0.0101877 1.20289e-18) (-0.262629 -0.0107372 1.24155e-18) (-0.258353 -0.0112734 1.18448e-18) (-0.253865 -0.0117962 1.0043e-18) (-0.24917 -0.0123077 1.02796e-18) (-0.244271 -0.012808 9.07953e-19));
    }
    procBoundary21to28
    {
        type            processor;
        value           nonuniform List<vector> 2((-0.221477 -0.00270843 -9.04129e-20) (-0.223789 -0.0024965 -1.87777e-19));
    }
    procBoundary21to29
    {
        type            processor;
        value           nonuniform List<vector> 
19
(
(-0.279517 -0.00715472 9.86676e-19)
(-0.275218 -0.00706982 9.2593e-19)
(-0.270986 -0.00694934 -7.28514e-19)
(-0.266844 -0.00679559 -3.14985e-19)
(-0.262812 -0.00661124 -5.29817e-19)
(-0.258905 -0.00639923 3.45619e-19)
(-0.25514 -0.0061627 1.06541e-19)
(-0.251531 -0.00590487 8.26116e-19)
(-0.248088 -0.00562897 -3.17752e-19)
(-0.24482 -0.00533815 3.86264e-19)
(-0.241733 -0.00503542 -6.10676e-19)
(-0.238833 -0.00472365 3.83203e-19)
(-0.236123 -0.00440552 -1.90884e-19)
(-0.235902 -0.00368416 -1.90946e-19)
(-0.233545 -0.00339259 -1.03946e-18)
(-0.23138 -0.00310134 3.64187e-20)
(-0.229404 -0.00281236 3.46954e-19)
(-0.227613 -0.00252763 2.35207e-19)
(-0.236123 -0.00440552 -1.90884e-19)
)
;
    }
}


// ************************************************************************* //
