/*--------------------------------*- C++ -*----------------------------------*\
  =========                 |
  \\      /  F ield         | OpenFOAM: The Open Source CFD Toolbox
   \\    /   O peration     | Website:  https://openfoam.org
    \\  /    A nd           | Version:  7
     \\/     M anipulation  |
\*---------------------------------------------------------------------------*/
FoamFile
{
    version     2.0;
    format      ascii;
    class       volScalarField;
    location    "26";
    object      p;
}
// * * * * * * * * * * * * * * * * * * * * * * * * * * * * * * * * * * * * * //

dimensions      [0 2 -2 0 0 0 0];

internalField   nonuniform List<scalar> 
4000
(
0.262275
0.272285
0.275853
0.28206
0.285417
0.289277
0.291459
0.293515
0.293692
0.293564
0.290151
0.28702
0.276528
0.268281
0.243213
0.215197
0.152414
0.0388822
-0.125413
-0.643977
0.25235
0.261994
0.265312
0.270878
0.27373
0.276825
0.278213
0.279096
0.2779
0.275794
0.270203
0.263404
0.248723
0.2311
0.197677
0.162954
0.107807
0.0938132
0.00924157
0.230129
0.243055
0.252564
0.255661
0.260811
0.263146
0.265541
0.265964
0.265512
0.262634
0.258075
0.249561
0.237784
0.217488
0.191245
0.151237
0.110317
0.0559345
0.00404582
-0.044479
-0.184306
0.234156
0.243439
0.246243
0.250947
0.252689
0.254278
0.253625
0.251744
0.247177
0.240156
0.228328
0.211731
0.186613
0.155216
0.115432
0.0823377
0.0464221
0.0497362
-0.00791385
0.106766
0.225509
0.234448
0.236887
0.241087
0.242203
0.242976
0.241308
0.23809
0.231829
0.222358
0.207453
0.18676
0.157913
0.124117
0.0882837
0.0640477
0.0409035
0.0152974
0.0110626
-0.00978417
0.217114
0.225646
0.227686
0.231335
0.231783
0.231667
0.22893
0.224199
0.215782
0.203507
0.185571
0.161744
0.131379
0.0991834
0.0719814
0.0585177
0.0396507
0.0463699
0.0262836
0.075986
0.209009
0.217098
0.218732
0.221814
0.221612
0.220652
0.216928
0.210963
0.201141
0.187245
0.167617
0.142092
0.111524
0.0825388
0.0627744
0.0529223
0.0416851
0.0369247
0.0399569
0.0479609
0.201221
0.208833
0.210062
0.212542
0.211688
0.209877
0.205014
0.197455
0.185557
0.169164
0.147186
0.120164
0.0909679
0.0675451
0.0544679
0.0481885
0.0416461
0.0521383
0.0506521
0.0772249
0.193753
0.200845
0.201687
0.203541
0.202097
0.199493
0.193805
0.185462
0.173119
0.156864
0.135831
0.110373
0.0830889
0.0628899
0.0518503
0.0478759
0.0468122
0.054875
0.0591542
0.0758883
0.186634
0.193156
0.193654
0.194837
0.192839
0.189367
0.182731
0.173069
0.15884
0.140079
0.116083
0.0872807
0.0585051
0.0379085
0.0310901
0.0379405
0.0489909
0.0652498
0.0719254
0.0941401
0.365693
0.383431
0.389984
0.404975
0.415071
0.430142
0.443512
0.460535
0.478545
0.500571
0.525624
0.556402
0.591423
0.635131
0.682682
0.743331
0.799481
0.885445
0.931183
1.07317
0.355433
0.372717
0.378699
0.393012
0.402083
0.416079
0.427933
0.443176
0.458738
0.477855
0.49897
0.52555
0.554756
0.592706
0.629992
0.685868
0.723714
0.810016
0.825887
0.962629
0.345238
0.361799
0.367331
0.380647
0.3888
0.401489
0.411879
0.425323
0.438667
0.455306
0.473291
0.496813
0.522093
0.557887
0.591599
0.647544
0.684181
0.770005
0.79111
0.910955
0.335091
0.350872
0.356026
0.36841
0.375752
0.387246
0.396295
0.408085
0.419327
0.433531
0.448176
0.468169
0.488017
0.519572
0.544422
0.597672
0.620286
0.710577
0.717123
0.848933
0.324852
0.339846
0.344631
0.356117
0.362665
0.372972
0.380674
0.390758
0.399802
0.411392
0.422454
0.438637
0.452982
0.479828
0.497587
0.54492
0.563408
0.640529
0.656351
0.763678
0.314484
0.328678
0.333106
0.343684
0.349467
0.358571
0.364957
0.373337
0.380217
0.389197
0.39677
0.409064
0.418155
0.439885
0.450591
0.49266
0.501298
0.583212
0.585585
0.738825
0.304042
0.317417
0.321529
0.331194
0.336276
0.344194
0.349361
0.356092
0.360938
0.36729
0.371528
0.379703
0.383542
0.398641
0.402492
0.432612
0.435314
0.481823
0.494548
0.568053
0.293569
0.30611
0.309969
0.31874
0.323217
0.329992
0.334081
0.339266
0.342292
0.346503
0.347848
0.352719
0.351278
0.361677
0.357464
0.386808
0.378238
0.458009
0.437373
0.67979
0.283127
0.294826
0.298516
0.306404
0.310375
0.316057
0.319245
0.323046
0.324737
0.32713
0.32613
0.327578
0.321712
0.324247
0.31145
0.320413
0.298464
0.285912
0.248844
0.19768
0.272683
0.283532
0.287144
0.294187
0.297799
0.302472
0.304994
0.30774
0.308439
0.309385
0.306639
0.305854
0.297133
0.296932
0.28201
0.299056
0.298507
0.392045
0.398849
0.731571
0.272684
0.283532
0.287145
0.294187
0.297799
0.302472
0.304994
0.30774
0.308439
0.309385
0.306639
0.305854
0.297133
0.296932
0.28201
0.299056
0.298507
0.392045
0.398849
0.731571
0.283127
0.294826
0.298516
0.306404
0.310375
0.316057
0.319245
0.323047
0.324737
0.32713
0.32613
0.327579
0.321712
0.324247
0.31145
0.320413
0.298464
0.285912
0.248844
0.19768
0.293569
0.30611
0.309969
0.31874
0.323217
0.329992
0.334081
0.339266
0.342292
0.346503
0.347848
0.352719
0.351278
0.361678
0.357464
0.386808
0.378238
0.458009
0.437373
0.67979
0.304042
0.317417
0.321529
0.331195
0.336276
0.344194
0.349361
0.356092
0.360938
0.36729
0.371528
0.379704
0.383542
0.398641
0.402492
0.432612
0.435314
0.481823
0.494548
0.568053
0.314484
0.328678
0.333106
0.343684
0.349468
0.358571
0.364957
0.373337
0.380218
0.389198
0.39677
0.409064
0.418155
0.439885
0.450591
0.49266
0.501298
0.583212
0.585585
0.738825
0.324852
0.339846
0.344631
0.356117
0.362665
0.372972
0.380674
0.390758
0.399802
0.411392
0.422455
0.438637
0.452982
0.479828
0.497587
0.54492
0.563408
0.640529
0.656351
0.763679
0.335091
0.350872
0.356027
0.36841
0.375752
0.387246
0.396295
0.408085
0.419327
0.433531
0.448176
0.468169
0.488017
0.519572
0.544422
0.597672
0.620286
0.710577
0.717123
0.848933
0.345238
0.361799
0.367331
0.380647
0.388801
0.401489
0.411879
0.425323
0.438667
0.455306
0.473292
0.496813
0.522093
0.557887
0.591599
0.647544
0.684181
0.770005
0.79111
0.910955
0.355433
0.372717
0.378699
0.393012
0.402083
0.416079
0.427933
0.443176
0.458738
0.477855
0.498971
0.525551
0.554756
0.592706
0.629993
0.685868
0.723714
0.810016
0.825887
0.962629
0.365694
0.383431
0.389984
0.404975
0.415071
0.430142
0.443513
0.460535
0.478545
0.500571
0.525625
0.556402
0.591424
0.635131
0.682682
0.743331
0.799481
0.885445
0.931183
1.07317
0.186634
0.193156
0.193654
0.194837
0.192839
0.189367
0.182731
0.173069
0.15884
0.140079
0.116083
0.0872807
0.0585051
0.0379085
0.0310901
0.0379405
0.0489909
0.0652498
0.0719255
0.0941401
0.193753
0.200845
0.201687
0.203541
0.202097
0.199493
0.193805
0.185462
0.173119
0.156864
0.135831
0.110373
0.0830889
0.0628899
0.0518503
0.047876
0.0468123
0.054875
0.0591542
0.0758883
0.201221
0.208833
0.210062
0.212542
0.211688
0.209877
0.205014
0.197455
0.185557
0.169164
0.147186
0.120164
0.0909679
0.0675451
0.0544679
0.0481885
0.0416461
0.0521383
0.0506521
0.077225
0.209009
0.217098
0.218732
0.221814
0.221612
0.220652
0.216928
0.210963
0.201141
0.187245
0.167617
0.142092
0.111524
0.0825389
0.0627744
0.0529223
0.0416851
0.0369248
0.039957
0.047961
0.217114
0.225646
0.227686
0.231335
0.231783
0.231667
0.22893
0.224199
0.215782
0.203507
0.185571
0.161744
0.131379
0.0991834
0.0719814
0.0585178
0.0396508
0.0463699
0.0262836
0.075986
0.225509
0.234448
0.236887
0.241087
0.242203
0.242977
0.241308
0.23809
0.231829
0.222358
0.207453
0.18676
0.157913
0.124117
0.0882838
0.0640478
0.0409035
0.0152975
0.0110626
-0.00978412
0.234156
0.243439
0.246243
0.250947
0.252689
0.254278
0.253625
0.251744
0.247177
0.240156
0.228328
0.211731
0.186613
0.155216
0.115432
0.0823378
0.0464221
0.0497363
-0.0079138
0.106766
0.243055
0.252564
0.255661
0.260811
0.263146
0.265541
0.265964
0.265512
0.262634
0.258075
0.249561
0.237784
0.217488
0.191245
0.151237
0.110317
0.0559346
0.00404588
-0.0444789
-0.184306
0.25235
0.261994
0.265312
0.270878
0.27373
0.276825
0.278213
0.279096
0.2779
0.275794
0.270204
0.263404
0.248723
0.2311
0.197677
0.162955
0.107807
0.0938132
0.00924163
0.230129
0.262275
0.272285
0.275853
0.28206
0.285417
0.289277
0.291459
0.293515
0.293692
0.293564
0.290151
0.28702
0.276528
0.268281
0.243213
0.215197
0.152414
0.0388823
-0.125413
-0.643977
0.39866
0.416937
0.425557
0.440174
0.452858
0.46771
0.483149
0.500312
0.519285
0.540606
0.564724
0.592346
0.624138
0.660794
0.702345
0.749061
0.799018
0.853481
0.903619
0.952509
0.441891
0.458229
0.466866
0.480729
0.493828
0.508869
0.525199
0.54318
0.562893
0.584512
0.608105
0.633692
0.661143
0.690218
0.720465
0.751306
0.781168
0.810919
0.832716
0.854314
0.478259
0.492618
0.500174
0.512082
0.523224
0.535657
0.548809
0.562861
0.577859
0.59385
0.610838
0.628758
0.647492
0.666788
0.686291
0.705308
0.723366
0.738968
0.751219
0.758818
0.505605
0.517538
0.524054
0.534322
0.544031
0.554854
0.566255
0.578292
0.5909
0.603988
0.617437
0.631096
0.644757
0.658176
0.671029
0.682993
0.693544
0.702364
0.708633
0.712223
0.526531
0.535846
0.540844
0.54868
0.555965
0.563999
0.572359
0.581073
0.590092
0.599343
0.608737
0.618159
0.627464
0.636471
0.644973
0.652701
0.659424
0.664801
0.66863
0.670633
0.542342
0.549786
0.553835
0.560185
0.566105
0.572607
0.579314
0.586227
0.59327
0.600361
0.607407
0.614306
0.620944
0.627201
0.632941
0.638034
0.64233
0.645712
0.648038
0.649235
0.553672
0.559071
0.561996
0.566575
0.57083
0.57548
0.580257
0.585158
0.590131
0.595117
0.600051
0.604861
0.609469
0.613787
0.617725
0.62119
0.624097
0.626359
0.627913
0.628705
0.562343
0.566621
0.568932
0.572553
0.575897
0.579538
0.583246
0.587018
0.590802
0.594549
0.598207
0.601721
0.605036
0.608097
0.61085
0.613241
0.615222
0.61675
0.617789
0.618316
0.568351
0.571323
0.572943
0.575477
0.577827
0.580383
0.582989
0.585641
0.588302
0.590938
0.593511
0.595983
0.598315
0.600467
0.602399
0.604075
0.60546
0.606527
0.607252
0.607619
0.573005
0.575369
0.576641
0.578631
0.580457
0.582436
0.584438
0.586459
0.588471
0.590446
0.592356
0.594174
0.595873
0.597427
0.598812
0.600004
0.600984
0.601734
0.602242
0.602499
0.576164
0.577765
0.578636
0.580003
0.581267
0.582641
0.584035
0.585448
0.586857
0.588245
0.58959
0.590874
0.592076
0.593176
0.594158
0.595004
0.595699
0.596232
0.596593
0.596775
0.578649
0.579935
0.580624
0.581701
0.582687
0.583751
0.584824
0.585902
0.586971
0.588016
0.589022
0.589975
0.590861
0.591668
0.592384
0.592999
0.593502
0.593886
0.594146
0.594276
0.580302
0.581158
0.58162
0.582352
0.583025
0.583758
0.584499
0.585249
0.585995
0.586727
0.587434
0.588107
0.588735
0.589308
0.589817
0.590255
0.590614
0.590888
0.591074
0.591167
0.58163
0.582331
0.582703
0.583287
0.583819
0.584393
0.58497
0.585548
0.586121
0.586678
0.587214
0.587721
0.588191
0.588618
0.588996
0.58932
0.589584
0.589786
0.589923
0.589991
0.582491
0.582952
0.583197
0.583592
0.583951
0.584345
0.584742
0.585143
0.585542
0.585933
0.58631
0.586669
0.587002
0.587307
0.587577
0.587808
0.587998
0.588143
0.588241
0.588291
0.583205
0.583592
0.583796
0.584119
0.584411
0.584727
0.585043
0.585361
0.585675
0.58598
0.586273
0.58655
0.586807
0.58704
0.587246
0.587422
0.587566
0.587676
0.58775
0.587788
0.583645
0.583902
0.584034
0.584257
0.584454
0.584674
0.584895
0.58512
0.585342
0.585561
0.585772
0.585972
0.586159
0.586329
0.58648
0.586609
0.586715
0.586796
0.586851
0.586878
0.58401
0.584235
0.584352
0.584543
0.584713
0.5849
0.585087
0.585275
0.585461
0.585642
0.585817
0.585981
0.586134
0.586273
0.586396
0.586501
0.586587
0.586653
0.586697
0.586719
0.584199
0.584349
0.584421
0.584559
0.584675
0.584813
0.584948
0.58509
0.58523
0.585369
0.585504
0.585632
0.585752
0.585861
0.585959
0.586042
0.586111
0.586163
0.586199
0.586217
0.584389
0.584529
0.584611
0.584742
0.584865
0.585
0.585139
0.585279
0.585419
0.585557
0.58569
0.585816
0.585933
0.58604
0.586134
0.586215
0.586282
0.586332
0.586366
0.586383
0.0018046
0.00486611
0.00629234
0.00783299
0.0091947
0.010416
0.0115681
0.0126643
0.0137104
0.0147136
0.015676
0.0165945
0.0174625
0.0182705
0.0190062
0.0196553
0.0202024
0.0206316
0.020928
0.0210796
0.00846592
0.0145727
0.0174178
0.0206863
0.0236452
0.0263468
0.0289032
0.0313346
0.0336452
0.0358394
0.0379164
0.0398682
0.0416813
0.0433383
0.0448187
0.0460999
0.0471592
0.047975
0.0485296
0.0488102
0.017755
0.0262117
0.0306007
0.0356325
0.0403184
0.044694
0.0488708
0.0528689
0.0566894
0.0603314
0.063788
0.0670425
0.0700707
0.0728415
0.0753195
0.0774657
0.0792408
0.0806083
0.0815378
0.082008
0.0283106
0.0384185
0.0438224
0.0500343
0.0558728
0.0613667
0.0666311
0.0716823
0.076514
0.0811182
0.085481
0.0895789
0.09338
0.0968464
0.0999352
0.102601
0.104799
0.106488
0.107633
0.108212
0.0403221
0.0519756
0.0583601
0.0657622
0.0728055
0.0795029
0.0859627
0.0921952
0.0981833
0.103908
0.109346
0.114461
0.119211
0.123545
0.127407
0.13074
0.133485
0.135593
0.137022
0.137743
0.0528804
0.0656864
0.0728611
0.0811306
0.0890652
0.0966472
0.103979
0.11107
0.117898
0.124434
0.130646
0.136492
0.141919
0.146868
0.151275
0.155076
0.158206
0.160607
0.162233
0.163054
0.0661582
0.0800735
0.0879926
0.0971122
0.105946
0.114445
0.1227
0.130719
0.13847
0.145913
0.153003
0.159687
0.1659
0.17157
0.176621
0.180977
0.184563
0.187313
0.189175
0.190114
0.0795452
0.0942554
0.102823
0.112583
0.122124
0.131345
0.140325
0.149075
0.157556
0.165719
0.17351
0.180865
0.187709
0.193961
0.199534
0.204342
0.208301
0.211338
0.213394
0.214431
0.0931033
0.108516
0.11767
0.128015
0.138233
0.148166
0.15788
0.167385
0.176636
0.185571
0.194122
0.202213
0.209756
0.216655
0.22281
0.228123
0.232499
0.235855
0.238127
0.239273
0.106359
0.122176
0.131828
0.142582
0.153323
0.163821
0.174128
0.184255
0.194151
0.203743
0.212951
0.221687
0.229849
0.237328
0.24401
0.249784
0.254543
0.258195
0.260668
0.261915
0.119303
0.13533
0.145382
0.15644
0.167621
0.178627
0.189492
0.200223
0.210764
0.221028
0.230921
0.240337
0.249158
0.257258
0.264507
0.270777
0.275949
0.279919
0.282608
0.283964
0.131516
0.147392
0.157708
0.168878
0.180318
0.191679
0.202967
0.214184
0.225269
0.236122
0.246633
0.25668
0.266124
0.274821
0.282622
0.289381
0.294962
0.29925
0.302154
0.303619
0.14292
0.15831
0.168719
0.17983
0.191363
0.202956
0.214579
0.22622
0.237812
0.249239
0.260372
0.271065
0.281159
0.290484
0.298867
0.306143
0.312158
0.316782
0.319915
0.321496
0.153113
0.167528
0.177792
0.188605
0.199972
0.211585
0.223367
0.235286
0.247265
0.259176
0.270867
0.282166
0.292888
0.302833
0.311803
0.319605
0.326064
0.331033
0.334402
0.336101
0.161941
0.174857
0.184675
0.194931
0.205868
0.217284
0.229057
0.241128
0.253407
0.265747
0.277969
0.28987
0.30123
0.311815
0.321393
0.329744
0.336668
0.341999
0.345614
0.347438
0.16899
0.179739
0.188722
0.198055
0.208235
0.219151
0.23066
0.242676
0.255089
0.267733
0.280396
0.292839
0.304802
0.316012
0.326197
0.335102
0.342498
0.348198
0.352066
0.354018
0.174006
0.181838
0.189465
0.197513
0.206568
0.216639
0.227606
0.239347
0.251726
0.26455
0.277572
0.290508
0.303051
0.314879
0.325674
0.335142
0.343021
0.349101
0.353228
0.355311
0.176507
0.180653
0.186095
0.192445
0.199948
0.208743
0.218786
0.229938
0.242026
0.254826
0.268054
0.281377
0.29443
0.306837
0.318226
0.328255
0.336623
0.343092
0.347488
0.349708
0.175422
0.175704
0.178128
0.182103
0.187553
0.194609
0.203286
0.213466
0.224955
0.237493
0.250754
0.264348
0.277846
0.290802
0.302781
0.31338
0.322253
0.329122
0.333795
0.336155
0.169576
0.165184
0.164421
0.165361
0.168103
0.172863
0.179654
0.188386
0.198872
0.210832
0.223894
0.237609
0.251472
0.264958
0.277549
0.288772
0.298222
0.305571
0.31058
0.313116
0.158485
0.148005
0.144087
0.141224
0.140532
0.142317
0.146585
0.153295
0.162303
0.173323
0.185943
0.199649
0.213845
0.227899
0.24119
0.253134
0.263236
0.271124
0.276527
0.279269
0.141657
0.123673
0.116413
0.108569
0.103668
0.101671
0.102607
0.106577
0.113531
0.123201
0.135138
0.148753
0.163336
0.178106
0.192294
0.2052
0.216219
0.224873
0.230824
0.233851
0.11808
0.0914194
0.0805831
0.0665365
0.0566898
0.050099
0.046941
0.0475456
0.0519399
0.0599037
0.0709685
0.0844644
0.099548
0.115285
0.130728
0.144947
0.157185
0.166851
0.173524
0.176928
0.086423
0.050579
0.0359733
0.0147499
-0.000401471
-0.0122792
-0.020036
-0.0231713
-0.0216271
-0.0155675
-0.00546448
0.00795736
0.0237097
0.0407579
0.0577818
0.0736612
0.0874402
0.0983803
0.105959
0.109835
0.0465084
0.0016616
-0.0165516
-0.0450581
-0.0649567
-0.0819768
-0.0939034
-0.100512
-0.101717
-0.0976127
-0.0886125
-0.0754696
-0.0591189
-0.0409495
-0.0223647
-0.00476459
0.01065
0.022961
0.0315216
0.0359104
-0.000668833
-0.052843
-0.0735853
-0.107875
-0.130723
-0.151622
-0.166495
-0.175762
-0.179301
-0.177124
-0.169558
-0.157245
-0.141117
-0.122522
-0.103011
-0.0842008
-0.0675245
-0.0540997
-0.0447176
-0.0398935
-0.0511611
-0.107827
-0.129206
-0.16685
-0.190445
-0.21375
-0.23015
-0.241365
-0.246768
-0.246394
-0.240494
-0.229592
-0.214497
-0.19644
-0.17698
-0.157841
-0.140627
-0.126633
-0.116791
-0.111712
-0.100099
-0.158204
-0.178491
-0.217476
-0.240319
-0.26514
-0.282107
-0.294796
-0.301488
-0.30253
-0.298072
-0.288574
-0.27475
-0.257719
-0.238965
-0.220211
-0.203128
-0.189115
-0.1792
-0.174067
-0.140354
-0.199106
-0.216966
-0.25699
-0.278145
-0.304285
-0.321136
-0.334971
-0.34235
-0.344337
-0.340837
-0.332328
-0.319546
-0.303541
-0.285702
-0.267692
-0.251156
-0.237509
-0.227813
-0.222781
-0.168242
-0.228737
-0.24223
-0.283355
-0.301589
-0.328502
-0.344277
-0.358806
-0.366281
-0.368957
-0.366096
-0.358432
-0.346603
-0.33166
-0.314896
-0.2979
-0.282223
-0.269245
-0.259999
-0.255195
-0.191378
-0.245992
-0.257784
-0.294627
-0.311216
-0.336041
-0.350819
-0.364773
-0.372045
-0.375044
-0.372639
-0.365807
-0.354956
-0.341209
-0.325726
-0.31001
-0.295486
-0.283446
-0.274858
-0.270392
-0.205722
-0.250153
-0.261362
-0.291263
-0.30684
-0.327455
-0.34138
-0.353359
-0.360367
-0.362992
-0.361037
-0.354853
-0.345094
-0.332655
-0.318685
-0.304504
-0.291406
-0.280541
-0.272788
-0.268757
-0.209241
-0.242642
-0.252935
-0.275156
-0.288925
-0.304809
-0.31694
-0.326703
-0.33272
-0.334893
-0.333132
-0.327688
-0.319111
-0.308202
-0.295977
-0.283586
-0.272153
-0.262669
-0.255903
-0.252384
-0.201098
-0.22447
-0.233115
-0.248462
-0.259397
-0.270857
-0.280322
-0.287761
-0.292431
-0.293995
-0.292361
-0.287714
-0.28047
-0.271307
-0.261072
-0.250715
-0.241167
-0.233247
-0.227595
-0.224655
-0.182881
-0.198243
-0.204738
-0.214447
-0.22204
-0.229502
-0.235944
-0.240992
-0.24412
-0.244967
-0.243416
-0.239565
-0.233715
-0.226389
-0.218249
-0.210033
-0.202467
-0.196191
-0.191712
-0.189382
-0.156902
-0.166318
-0.170553
-0.175926
-0.180249
-0.184267
-0.187825
-0.19061
-0.192237
-0.192383
-0.19091
-0.187853
-0.183397
-0.177903
-0.171841
-0.16574
-0.160128
-0.155472
-0.152147
-0.150417
-0.126725
-0.132073
-0.134236
-0.136401
-0.137873
-0.139078
-0.140111
-0.140887
-0.141154
-0.140661
-0.139254
-0.136919
-0.133738
-0.129923
-0.125764
-0.121603
-0.117783
-0.114615
-0.112352
-0.111173
-0.0950116
-0.0977688
-0.0982738
-0.0982391
-0.0975445
-0.0966049
-0.095678
-0.0948384
-0.0939991
-0.092988
-0.0916593
-0.0899521
-0.0878729
-0.0855024
-0.0829816
-0.0804882
-0.0782103
-0.0763242
-0.0749774
-0.0742761
-0.0643216
-0.065557
-0.0648942
-0.063468
-0.0612918
-0.0588671
-0.0565373
-0.0545259
-0.0528615
-0.0514672
-0.0502205
-0.0490225
-0.0478264
-0.0466145
-0.0454078
-0.0442553
-0.043221
-0.0423716
-0.0417672
-0.0414527
-0.0361904
-0.0366769
-0.0353526
-0.0331652
-0.030152
-0.0268539
-0.0236634
-0.0209031
-0.0187001
-0.0170548
-0.0158837
-0.0150746
-0.0145398
-0.0141894
-0.0139609
-0.0138098
-0.0137076
-0.0136382
-0.0135938
-0.0135718
-0.0116485
-0.0118462
-0.0102576
-0.00777238
-0.00443063
-0.000761837
0.00281929
0.0059499
0.00842619
0.0101943
0.0112921
0.0118223
0.0119084
0.0116716
0.0112318
0.0106956
0.0101551
0.00968466
0.00934031
0.00915898
0.00887324
0.00871429
0.0102807
0.0127258
0.0160082
0.0196494
0.0232458
0.0264318
0.0289698
0.0307567
0.0317934
0.0321592
0.0319818
0.0313996
0.0305636
0.0296163
0.028688
0.0278896
0.0273078
0.0270018
0.0254042
0.0252144
0.0265798
0.0287647
0.0317215
0.0350492
0.0383791
0.0413733
0.0437961
0.0455124
0.0464933
0.0467833
0.0464968
0.0457719
0.0447663
0.0436371
0.0425324
0.0415815
0.0408876
0.0405223
0.0382115
0.0379864
0.0390778
0.0408971
0.0433916
0.0462474
0.0491423
0.0517863
0.053968
0.0555519
0.0564821
0.0567703
0.0564997
0.0557894
0.0547917
0.0536608
0.0525468
0.0515828
0.0508767
0.0505041
0.0479002
0.0476619
0.04846
0.0498728
0.0518429
0.0541457
0.0565108
0.0587007
0.0605408
0.0619196
0.062768
0.0630737
0.0628803
0.0622857
0.0614126
0.0604019
0.0593929
0.058512
0.0578631
0.0575196
0.0550541
0.054837
0.0553728
0.0564019
0.057864
0.0596153
0.0614432
0.0631586
0.0646251
0.0657644
0.0665172
0.0668542
0.0667861
0.0663582
0.0656787
0.0648609
0.0640268
0.0632887
0.0627404
0.0624488
0.0603435
0.0601666
0.0604823
0.0611682
0.0621658
0.0633967
0.0647066
0.0659493
0.0670161
0.0678598
0.0684465
0.0687448
0.0687384
0.068476
0.0679954
0.0673883
0.0667505
0.0661761
0.0657447
0.065514
0.0643373
0.0642154
0.0643633
0.0647622
0.0653629
0.0661371
0.0669891
0.0678192
0.0685388
0.0691221
0.0695589
0.069828
0.0699116
0.0697849
0.0694881
0.0690834
0.0686398
0.0682303
0.0679181
0.0677498
0.067563
0.0674884
0.0675054
0.0676589
0.0679137
0.0682778
0.0687054
0.0691423
0.0695092
0.0697778
0.0699538
0.0700403
0.0700304
0.0699368
0.0697584
0.0695021
0.069213
0.0689401
0.0687289
0.0686141
0.0704638
0.0704201
0.0703242
0.0702666
0.0702147
0.0702151
0.0702651
0.070364
0.0704683
0.0705539
0.070626
0.0706896
0.0707324
0.0707169
0.0706156
0.070474
0.0703083
0.0701478
0.0700216
0.0699524
0.0733961
0.0733705
0.0731638
0.0729055
0.072549
0.0721757
0.0718066
0.0714864
0.0711969
0.0709041
0.0706027
0.0703207
0.0700682
0.0698514
0.0697356
0.0696181
0.0695089
0.0694131
0.0693406
0.0693015
0.0767202
0.0767244
0.0763988
0.0759376
0.0752681
0.0745121
0.0737152
0.0730086
0.072454
0.072057
0.0717811
0.0716117
0.0715151
0.0714835
0.0713822
0.0713146
0.0712661
0.0712318
0.0712098
0.0711992
0.0807987
0.0808418
0.0803731
0.0796758
0.0786269
0.0773772
0.0759683
0.0745706
0.0732871
0.0721645
0.0711802
0.0703468
0.0696782
0.0691577
0.0688792
0.0687504
0.068692
0.0686817
0.0686896
0.068699
0.0860321
0.0861487
0.0855285
0.0845929
0.083148
0.0813911
0.079368
0.0773566
0.0756026
0.0743139
0.0734879
0.0730116
0.0727774
0.0726837
0.0726117
0.07254
0.0725555
0.0726128
0.0726788
0.0727225
0.0928515
0.093089
0.0922795
0.091052
0.0890942
0.0866251
0.0836368
0.0803813
0.0771152
0.0741812
0.0717372
0.0697948
0.0683608
0.0673808
0.0667718
0.066654
0.0666779
0.0668378
0.0670044
0.0671231
0.101822
0.102311
0.101349
0.0998973
0.0974794
0.0943881
0.090612
0.0865055
0.082475
0.0791517
0.0769026
0.0756936
0.0751285
0.0749225
0.074934
0.0747961
0.0749071
0.0751386
0.0753984
0.0755885
0.113404
0.11432
0.113259
0.111629
0.108625
0.104537
0.0992376
0.0929835
0.0861053
0.0792814
0.0733013
0.0686713
0.065374
0.0633939
0.0623162
0.0622886
0.0627484
0.0636548
0.0644964
0.0651945
0.128186
0.129807
0.128843
0.127375
0.124287
0.119994
0.114315
0.107518
0.0999991
0.0927635
0.0871026
0.0837058
0.0821571
0.0812274
0.0806275
0.0799924
0.0797293
0.080177
0.080841
0.0816416
0.146857
0.149416
0.148388
0.146742
0.142868
0.137185
0.12929
0.119218
0.107031
0.0933203
0.0792516
0.0669339
0.0582303
0.0534137
0.0515748
0.0521279
0.0542592
0.058801
0.0625931
0.0672499
0.170205
0.175056
0.174995
0.174607
0.17162
0.166534
0.158882
0.148903
0.136976
0.124657
0.115441
0.111775
0.111999
0.109732
0.102463
0.0958229
0.0905622
0.0883017
0.0874193
0.0899068
0.584389
0.584528
0.584611
0.584741
0.584865
0.585
0.585139
0.585279
0.585419
0.585557
0.58569
0.585816
0.585933
0.58604
0.586134
0.586215
0.586282
0.586332
0.586366
0.586383
0.584199
0.584349
0.584421
0.584559
0.584675
0.584813
0.584948
0.58509
0.58523
0.585369
0.585504
0.585632
0.585752
0.585861
0.585959
0.586042
0.586111
0.586163
0.586199
0.586217
0.58401
0.584235
0.584352
0.584543
0.584713
0.5849
0.585087
0.585275
0.585461
0.585642
0.585817
0.585981
0.586134
0.586273
0.586396
0.586501
0.586587
0.586653
0.586697
0.586719
0.583645
0.583902
0.584034
0.584257
0.584454
0.584674
0.584895
0.58512
0.585342
0.585561
0.585772
0.585972
0.586159
0.586329
0.58648
0.586609
0.586715
0.586796
0.586851
0.586878
0.583205
0.583592
0.583796
0.584119
0.584411
0.584727
0.585043
0.585361
0.585674
0.58598
0.586273
0.58655
0.586807
0.58704
0.587246
0.587422
0.587566
0.587676
0.58775
0.587788
0.582491
0.582952
0.583197
0.583592
0.583951
0.584344
0.584742
0.585143
0.585542
0.585933
0.58631
0.586669
0.587002
0.587307
0.587577
0.587808
0.587998
0.588143
0.588241
0.588291
0.58163
0.582331
0.582703
0.583287
0.583819
0.584393
0.58497
0.585548
0.58612
0.586678
0.587214
0.587721
0.588191
0.588618
0.588996
0.58932
0.589584
0.589786
0.589923
0.589991
0.580302
0.581158
0.58162
0.582352
0.583025
0.583758
0.584499
0.585248
0.585995
0.586727
0.587434
0.588107
0.588735
0.589308
0.589817
0.590255
0.590614
0.590888
0.591074
0.591167
0.578649
0.579935
0.580624
0.581701
0.582687
0.583751
0.584824
0.585902
0.586971
0.588016
0.589022
0.589975
0.590861
0.591668
0.592384
0.592999
0.593502
0.593886
0.594146
0.594276
0.576164
0.577765
0.578636
0.580003
0.581267
0.582641
0.584035
0.585448
0.586857
0.588245
0.58959
0.590874
0.592076
0.593176
0.594158
0.595004
0.595699
0.596232
0.596593
0.596775
0.573005
0.575369
0.57664
0.57863
0.580457
0.582436
0.584438
0.586459
0.588471
0.590446
0.592356
0.594174
0.595873
0.597427
0.598812
0.600004
0.600984
0.601734
0.602242
0.602499
0.568351
0.571323
0.572943
0.575477
0.577826
0.580383
0.582989
0.585641
0.588302
0.590938
0.593511
0.595983
0.598315
0.600467
0.602399
0.604075
0.60546
0.606527
0.607252
0.607619
0.562343
0.566621
0.568932
0.572553
0.575897
0.579538
0.583246
0.587018
0.590802
0.594549
0.598206
0.601721
0.605036
0.608097
0.61085
0.613241
0.615222
0.61675
0.617789
0.618316
0.553672
0.559071
0.561996
0.566575
0.57083
0.57548
0.580257
0.585158
0.590131
0.595117
0.600051
0.604861
0.609469
0.613786
0.617725
0.62119
0.624097
0.626359
0.627913
0.628705
0.542342
0.549786
0.553835
0.560185
0.566105
0.572607
0.579314
0.586227
0.59327
0.60036
0.607407
0.614306
0.620944
0.627201
0.632941
0.638034
0.64233
0.645712
0.648038
0.649235
0.526531
0.535846
0.540844
0.54868
0.555965
0.563999
0.572359
0.581073
0.590092
0.599343
0.608737
0.618159
0.627464
0.636471
0.644972
0.652701
0.659424
0.664801
0.66863
0.670633
0.505604
0.517538
0.524054
0.534322
0.544031
0.554854
0.566255
0.578292
0.5909
0.603988
0.617437
0.631096
0.644757
0.658176
0.671029
0.682993
0.693544
0.702364
0.708633
0.712223
0.478258
0.492618
0.500174
0.512082
0.523224
0.535657
0.548809
0.562861
0.577859
0.59385
0.610838
0.628758
0.647492
0.666787
0.686291
0.705308
0.723366
0.738968
0.751219
0.758818
0.441891
0.458229
0.466866
0.480728
0.493828
0.508869
0.525198
0.54318
0.562893
0.584512
0.608105
0.633692
0.661143
0.690218
0.720465
0.751306
0.781167
0.810919
0.832716
0.854314
0.39866
0.416937
0.425557
0.440174
0.452858
0.46771
0.483149
0.500312
0.519285
0.540606
0.564724
0.592346
0.624138
0.660794
0.702345
0.749061
0.799018
0.853481
0.903619
0.952509
0.170205
0.175056
0.174995
0.174607
0.17162
0.166534
0.158882
0.148903
0.136976
0.124657
0.115441
0.111775
0.111999
0.109732
0.102463
0.0958229
0.0905622
0.0883017
0.0874193
0.0899069
0.146857
0.149417
0.148388
0.146742
0.142868
0.137185
0.12929
0.119218
0.107031
0.0933204
0.0792516
0.066934
0.0582303
0.0534137
0.0515749
0.0521279
0.0542592
0.058801
0.0625931
0.0672499
0.128186
0.129807
0.128843
0.127375
0.124287
0.119994
0.114315
0.107518
0.0999992
0.0927636
0.0871027
0.0837059
0.0821572
0.0812275
0.0806275
0.0799924
0.0797293
0.080177
0.0808411
0.0816416
0.113404
0.11432
0.113259
0.111629
0.108626
0.104537
0.0992377
0.0929836
0.0861054
0.0792816
0.0733014
0.0686714
0.0653741
0.0633939
0.0623162
0.0622886
0.0627485
0.0636549
0.0644964
0.0651945
0.101822
0.102312
0.10135
0.0998975
0.0974796
0.0943883
0.0906122
0.0865056
0.0824752
0.0791519
0.0769028
0.0756937
0.0751286
0.0749226
0.0749341
0.0747962
0.0749072
0.0751387
0.0753984
0.0755885
0.0928517
0.0930893
0.0922798
0.0910523
0.0890944
0.0866253
0.083637
0.0803815
0.0771154
0.0741814
0.0717374
0.069795
0.068361
0.067381
0.0667719
0.0666541
0.066678
0.0668379
0.0670045
0.0671231
0.0860324
0.086149
0.0855287
0.0845932
0.0831483
0.0813913
0.0793682
0.0773569
0.0756028
0.0743141
0.0734881
0.0730118
0.0727776
0.0726839
0.0726118
0.0725401
0.0725556
0.0726129
0.0726788
0.0727225
0.0807991
0.0808422
0.0803734
0.0796761
0.0786272
0.0773775
0.0759686
0.0745709
0.0732874
0.0721647
0.0711805
0.070347
0.0696784
0.0691578
0.0688794
0.0687505
0.068692
0.0686818
0.0686896
0.0686991
0.0767205
0.0767248
0.0763991
0.0759379
0.0752684
0.0745125
0.0737156
0.073009
0.0724543
0.0720573
0.0717814
0.071612
0.0715153
0.0714837
0.0713824
0.0713147
0.0712662
0.0712319
0.0712099
0.0711992
0.0733964
0.0733709
0.0731642
0.0729059
0.0725494
0.0721761
0.071807
0.0714868
0.0711972
0.0709044
0.070603
0.0703209
0.0700684
0.0698516
0.0697358
0.0696182
0.069509
0.0694132
0.0693406
0.0693015
0.0704643
0.0704206
0.0703246
0.070267
0.0702151
0.0702155
0.0702655
0.0703644
0.0704687
0.0705543
0.0706263
0.0706899
0.0707327
0.0707171
0.0706158
0.0704742
0.0703084
0.0701479
0.0700217
0.0699524
0.0675635
0.0674889
0.0675059
0.0676593
0.0679141
0.0682782
0.0687058
0.0691427
0.0695096
0.0697781
0.0699541
0.0700406
0.0700307
0.069937
0.0697586
0.0695023
0.0692132
0.0689402
0.068729
0.0686142
0.0643377
0.0642159
0.0643638
0.0647627
0.0653633
0.0661376
0.0669896
0.0678196
0.0685392
0.0691225
0.0695592
0.0698284
0.0699119
0.0697852
0.0694884
0.0690836
0.06864
0.0682304
0.0679182
0.0677498
0.060344
0.0601671
0.0604828
0.0611687
0.0621663
0.0633972
0.064707
0.0659498
0.0670166
0.0678602
0.0684469
0.0687451
0.0687387
0.0684763
0.0679956
0.0673885
0.0667507
0.0661762
0.0657448
0.065514
0.0550547
0.0548375
0.0553733
0.0564024
0.0578645
0.0596158
0.0614437
0.0631591
0.0646255
0.0657648
0.0665176
0.0668545
0.0667864
0.0663585
0.0656789
0.0648611
0.064027
0.0632888
0.0627405
0.0624489
0.0479007
0.0476625
0.0484605
0.0498733
0.0518435
0.0541462
0.0565113
0.0587012
0.0605413
0.0619201
0.0627684
0.0630741
0.0628806
0.062286
0.0614128
0.0604021
0.0593931
0.0585122
0.0578632
0.0575197
0.038212
0.037987
0.0390784
0.0408977
0.0433922
0.046248
0.0491428
0.0517868
0.0539685
0.0555524
0.0564826
0.0567707
0.0565
0.0557897
0.0547919
0.053661
0.052547
0.0515829
0.0508768
0.0505042
0.0254048
0.025215