/*--------------------------------*- C++ -*----------------------------------*\
  =========                 |
  \\      /  F ield         | OpenFOAM: The Open Source CFD Toolbox
   \\    /   O peration     | Website:  https://openfoam.org
    \\  /    A nd           | Version:  7
     \\/     M anipulation  |
\*---------------------------------------------------------------------------*/
FoamFile
{
    version     2.0;
    format      ascii;
    class       volVectorField;
    location    "12";
    object      U;
}
// * * * * * * * * * * * * * * * * * * * * * * * * * * * * * * * * * * * * * //

dimensions      [0 1 -1 0 0 0 0];

internalField   nonuniform List<vector> 
125
(
(0.938375 0.0115175 -2.30014e-18)
(1.00336 0.00827845 3.46686e-19)
(0.997778 0.0091022 3.15253e-19)
(0.996225 0.00911327 4.9165e-19)
(0.991656 0.0097719 -4.20832e-19)
(0.988999 0.00987069 4.17563e-19)
(0.984839 0.0103491 5.06987e-19)
(0.981555 0.0104923 -1.24284e-18)
(0.977526 0.0108306 2.13453e-19)
(0.973878 0.0109835 -6.79552e-19)
(0.969852 0.0112332 2.87559e-18)
(0.965973 0.0113924 1.95791e-19)
(0.961885 0.0116086 1.03561e-18)
(0.957826 0.0117964 1.52917e-18)
(0.953624 0.0120332 3.99315e-18)
(0.949379 0.0122826 2.37378e-18)
(0.945005 0.012584 4.61805e-19)
(0.940536 0.0129207 1.4549e-18)
(1.00386 0.00917276 3.08918e-19)
(0.998402 0.0100915 3.29174e-19)
(0.996878 0.010087 3.96242e-19)
(0.992427 0.0108197 -9.7645e-21)
(0.989832 0.0109199 4.93127e-19)
(0.985788 0.011448 6.37621e-21)
(0.982592 0.011601 -2.10853e-19)
(0.978679 0.0119727 4.46461e-19)
(0.975136 0.0121385 5.36501e-19)
(0.97123 0.0124129 1.95146e-18)
(0.967465 0.0125876 1.00772e-18)
(0.9635 0.0128264 1.05754e-18)
(0.95956 0.0130346 1.78792e-18)
(0.955481 0.0132978 1.60517e-18)
(0.951359 0.0135752 1.2641e-18)
(0.947108 0.0139104 7.63986e-19)
(0.942764 0.0142844 1.40212e-18)
(1.00471 0.0106543 4.88806e-19)
(0.999465 0.0116671 5.75362e-19)
(0.997985 0.0117054 9.9651e-19)
(0.993742 0.0125095 4.45671e-19)
(0.991248 0.0126514 1.25083e-18)
(0.987401 0.0132349 -2.06478e-19)
(0.98435 0.0134252 4.74774e-19)
(0.980636 0.0138397 7.01598e-19)
(0.977266 0.0140389 1.24901e-18)
(0.973562 0.0143498 2.24701e-18)
(0.969988 0.0145581 3.74898e-18)
(0.966225 0.0148347 1.27596e-18)
(0.962483 0.0150829 3.68915e-18)
(0.958608 0.0153922 -1.86095e-19)
(0.954686 0.0157214 1.39816e-18)
(0.950638 0.0161157 1.70297e-18)
(0.946499 0.0165554 3.13518e-18)
(1.00592 0.0126256 6.01181e-19)
(1.00097 0.0136957 9.70817e-19)
(0.99957 0.0138515 1.16015e-18)
(0.995591 0.0146707 1.11178e-18)
(0.993255 0.0149117 9.12656e-19)
(0.989667 0.0155134 -2.18752e-19)
(0.986824 0.0157742 4.58242e-19)
(0.983371 0.0162118 5.89692e-19)
(0.98024 0.016463 1.25719e-18)
(0.976802 0.0168025 2.2031e-18)
(0.973483 0.0170571 4.48297e-18)
(0.969987 0.017372 3.15185e-18)
(0.966504 0.0176722 2.72625e-18)
(0.962893 0.0180347 -2.94031e-19)
(0.95923 0.018429 1.44554e-18)
(0.955445 0.0188937 1.97803e-18)
(0.951569 0.0194132 3.99253e-18)
(1.00712 0.0144801 6.88227e-20)
(1.00244 0.0156347 4.87848e-20)
(1.00113 0.0158465 -4.2127e-20)
(0.997385 0.0167137 -1.66772e-19)
(0.995203 0.0170125 -3.52678e-19)
(0.991846 0.017648 -5.1983e-19)
(0.989197 0.0179565 -2.71244e-19)
(0.985978 0.0184236 -4.814e-19)
(0.983062 0.0187156 -1.37131e-19)
(0.979858 0.0190872 -3.58972e-19)
(0.976763 0.0193842 5.6483e-20)
(0.973499 0.0197409 -3.78941e-19)
(0.970241 0.0200932 -7.0016e-19)
(0.966855 0.0205122 -4.65504e-19)
(0.963414 0.0209727 5.15995e-20)
(0.959853 0.0215089 5.62255e-20)
(0.956202 0.0221065 9.36185e-19)
(1.00827 0.0162272 -1.31032e-19)
(1.00384 0.0174748 -2.80578e-19)
(1.00261 0.0177138 -4.78982e-19)
(0.999081 0.0186413 -8.39988e-19)
(0.997039 0.0189752 -1.40715e-18)
(0.993882 0.0196519 -2.44307e-18)
(0.991401 0.0199944 -1.43498e-18)
(0.98838 0.0204949 -3.16047e-18)
(0.985647 0.0208214 -1.65644e-18)
(0.982639 0.0212282 -4.19133e-18)
(0.979729 0.0215662 -2.89027e-18)
(0.976655 0.021968 -2.44706e-18)
(0.973579 0.0223734 -5.55553e-18)
(0.970376 0.0228515 -4.11808e-18)
(0.967114 0.0233785 -2.07382e-18)
(0.963734 0.023986 -4.78942e-18)
(0.960265 0.0246592 -3.57791e-19)
(1.00936 0.0178801 -1.37068e-19)
(1.00516 0.0192171 -3.04574e-19)
(1.00401 0.0194732 -4.98399e-19)
(1.00066 0.0204618 -9.79763e-19)
(0.998738 0.0208207 -1.67452e-18)
(0.995752 0.0215402 -3.22895e-18)
(0.993411 0.0219104 -2.91599e-18)
(0.990554 0.0224461 -3.5112e-18)
(0.98797 0.0228048 -3.00702e-18)
(0.98512 0.0232494 -3.0093e-18)
(0.982358 0.023629 -7.44222e-19)
(0.979433 0.0240788 -2.37553e-18)
(0.9765 0.0245388 -3.59337e-18)
(0.97344 0.0250778 -6.22664e-18)
(0.970319 0.0256714 -4.80901e-18)
(0.96708 0.0263493 -4.97493e-18)
(0.963755 0.0270949 -2.10022e-18)
(1.0104 0.0194499 5.98956e-20)
(1.0064 0.0208713 -3.64999e-20)
(1.00531 0.0211406 2.45944e-19)
(1.00213 0.0221891 -4.70165e-19)
(1.0003 0.0225685 -1.0747e-19)
)
;

boundaryField
{
    inlet
    {
        type            uniformFixedValue;
        uniformValue    constant (1 0 0);
        value           nonuniform 0();
    }
    outlet
    {
        type            pressureInletOutletVelocity;
        value           nonuniform List<vector> 8((1.00336 0.00827845 3.46686e-19) (1.00386 0.00917276 3.08918e-19) (1.00471 0.0106543 4.88806e-19) (1.00592 0.0126256 6.01181e-19) (1.00712 0.0144801 6.88227e-20) (1.00827 0.0162272 -1.31032e-19) (1.00936 0.0178801 -1.37068e-19) (1.0104 0.0194499 5.98956e-20));
    }
    polygon
    {
        type            fixedValue;
        value           nonuniform 0();
    }
    top
    {
        type            symmetryPlane;
    }
    bottom
    {
        type            symmetryPlane;
    }
    outside
    {
        type            zeroGradient;
    }
    procBoundary23to15
    {
        type            processor;
        value           nonuniform List<vector> 
18
(
(0.997459 0.0233316 -2.15561e-18)
(0.995233 0.0237269 -8.8586e-19)
(0.992512 0.0242999 -2.41849e-18)
(0.990047 0.0246906 -8.01143e-19)
(0.987323 0.0251759 -2.54459e-18)
(0.984678 0.0255984 -3.4788e-20)
(0.981872 0.0260991 -1.42569e-18)
(0.979051 0.0266152 -1.51088e-18)
(0.976104 0.0272165 -3.42042e-18)
(0.973093 0.0278766 -1.93139e-19)
(0.969967 0.0286236 -3.17984e-18)
(0.966757 0.0294385 1.96836e-18)
(1.01137 0.0209447 -2.6783e-19)
(1.00756 0.0224469 -5.41327e-19)
(1.00651 0.0227279 -6.4386e-19)
(1.00348 0.0238354 -6.54765e-19)
(0.997459 0.0233316 -2.15561e-18)
(1.00173 0.0242338 -1.31228e-19)
)
;
    }
    procBoundary23to22
    {
        type            processor;
        value           nonuniform List<vector> 8((0.933637 0.0118633 -5.15548e-19) (0.935925 0.0133095 -2.8639e-18) (0.938281 0.0147151 2.25022e-19) (0.942225 0.0170584 5.68927e-18) (0.947565 0.0200007 7.52665e-18) (0.952429 0.0227753 7.29629e-19) (0.956681 0.0254047 -3.84817e-18) (0.96032 0.027912 7.36498e-19));
    }
    procBoundary23to31
    {
        type            processor;
        value           nonuniform List<vector> 
18
(
(0.936328 0.0100715 -6.63528e-19)
(1.00288 0.00736673 2.77902e-19)
(0.99718 0.00808692 3.72744e-19)
(0.995596 0.00811794 3.09471e-19)
(0.990916 0.00869492 1.78475e-19)
(0.988196 0.00879476 2.06546e-19)
(0.983927 0.00921826 1.65815e-19)
(0.980558 0.00935231 -5.93659e-19)
(0.976416 0.009654 -6.65147e-20)
(0.972666 0.00979379 -7.94695e-19)
(0.968524 0.010017 1.78921e-18)
(0.964534 0.0101604 1.37296e-19)
(0.960326 0.0103531 9.16753e-19)
(0.95615 0.0105203 1.98996e-19)
(0.951827 0.0107303 3.39338e-18)
(0.947463 0.0109513 9.51707e-19)
(0.942966 0.0112185 6.59751e-19)
(0.942966 0.0112185 6.59751e-19)
)
;
    }
}


// ************************************************************************* //
