/*--------------------------------*- C++ -*----------------------------------*\
  =========                 |
  \\      /  F ield         | OpenFOAM: The Open Source CFD Toolbox
   \\    /   O peration     | Website:  https://openfoam.org
    \\  /    A nd           | Version:  7
     \\/     M anipulation  |
\*---------------------------------------------------------------------------*/
FoamFile
{
    version     2.0;
    format      ascii;
    class       surfaceScalarField;
    location    "14";
    object      phi;
}
// * * * * * * * * * * * * * * * * * * * * * * * * * * * * * * * * * * * * * //

dimensions      [0 3 -1 0 0 0 0];

internalField   nonuniform List<scalar> 
22080
(
-0.0017819
7.34743e-05
-8.13771e-05
-0.00177359
7.64165e-05
-8.47211e-05
-0.00176559
7.4591e-05
-8.25984e-05
-0.00175701
7.91574e-05
-8.77345e-05
-0.00174865
7.76837e-05
-8.60437e-05
-0.00173977
8.22398e-05
-9.11222e-05
-0.00173094
8.19356e-05
-9.07599e-05
-0.00172168
8.59554e-05
-9.52179e-05
-0.00171235
8.66974e-05
-9.60261e-05
-0.00170265
9.01673e-05
-9.98642e-05
-0.00169281
9.16305e-05
-0.000101475
-0.00168264
9.47104e-05
-0.000104878
-0.00167227
9.66704e-05
-0.000107042
-0.00166159
9.95941e-05
-0.000110275
-0.00165066
0.00010199
-0.000112924
-0.0016394
0.000105015
-0.000116273
-0.00162783
0.000107891
-0.000119459
-0.0016159
0.000111236
-0.000123166
-0.0016036
0.000114647
-0.000126946
-0.00159089
0.000118432
-0.00013114
-0.00157776
0.000122371
-0.000135504
-0.00156417
0.0001266
-0.000140188
-0.00155011
0.000130996
-0.000145053
-0.00153556
0.000135614
-0.000150163
-0.00152051
0.000140393
-0.000155449
-0.00150493
0.000145371
-0.000160953
-0.0014888
0.000150539
-0.000166667
-0.0014721
0.000155947
-0.000172647
-0.0014548
0.000161629
-0.000178931
-0.00143686
0.000167647
-0.000185588
-0.00141823
0.000174054
-0.000192678
-0.00139887
0.000180912
-0.000200269
-0.00137873
0.000188273
-0.000208418
-0.00135774
0.000196189
-0.000217181
-0.00133583
0.000204704
-0.000226607
-0.00131295
0.000213868
-0.00023675
-0.00128902
0.000223732
-0.000247667
-0.00126395
0.000234366
-0.000259433
-0.00123766
0.000245855
-0.000272144
-0.00121005
0.000258307
-0.000285921
-0.00118099
0.000271857
-0.000300913
-0.00115036
0.000286662
-0.000317295
-0.00111799
0.000302903
-0.000335269
-0.00108372
0.000320782
-0.000355058
-0.00104733
0.000340518
-0.000376906
-0.0010086
0.000362347
-0.000401075
-0.000967279
0.00038652
-0.000427843
-0.000923076
0.000413299
-0.000457503
-0.000875678
0.000442958
-0.000490356
-0.000824739
0.000475766
-0.000526705
-0.000769884
0.000511981
-0.000566836
-0.00071071
0.000551819
-0.000610993
-0.000646799
0.000595423
-0.000659334
-0.000577727
0.000642815
-0.000711888
-0.000503084
0.000693846
-0.000768489
-0.000422502
0.00074813
-0.000828712
-0.00033569
0.000804975
-0.000891787
-0.000242473
0.000863319
-0.000956536
-0.000142847
0.000921671
-0.0010213
-3.69843e-05
0.000978186
-0.00108405
7.45169e-05
0.0010301
-0.00114161
0.000190833
0.00107435
-0.00119066
0.000310798
0.00110852
-0.00122849
0.000432854
0.00112896
-0.00125102
0.000555099
0.00113273
-0.00125497
0.000675369
0.00111747
-0.00123775
0.000791361
0.00108171
-0.0011977
0.000900776
0.00102526
-0.00113468
0.00100146
0.000949048
-0.00104973
0.00109154
0.000855365
-0.000945453
0.00116958
0.000747368
-0.000825402
0.00123454
0.000628806
-0.000693764
0.00128583
0.000503455
-0.000554752
0.00132328
0.000375096
-0.000412547
0.00134703
0.00024659
-0.000270333
0.00135756
0.000121243
-0.000131774
0.00135521
3.51286e-07
1.99454e-06
0.00134104
-0.000115405
0.000129572
0.00131564
-0.000223265
0.000248669
0.00127989
-0.000323664
0.000359409
0.00123466
-0.000416246
0.000461476
0.00118082
-0.000500742
0.000554589
0.00111924
-0.000576812
0.000638389
0.00105086
-0.0006441
0.000712484
0.000976713
-0.000701532
0.000775676
0.000897998
-0.000748014
0.00082673
0.000816151
-0.000781475
0.000863321
0.000732811
-0.000800519
0.00088386
0.000649866
-0.000802914
0.000885859
0.000569169
-0.000789146
0.000869843
0.000492604
-0.000758699
0.000835264
0.000421448
-0.000716362
0.000787518
0.000356722
-0.000665416
0.000730142
0.000298246
-0.000613123
0.000671599
0.000245023
-0.000574509
0.000627731
0.000195913
-0.000538673
0.000587782
0.000145129
-0.00056509
0.000615875
9.78126e-05
-0.00054144
0.000588757
3.83767e-05
-0.000594589
0.000654025
-0.000386833
0.00042521
-0.00178069
6.54886e-05
-0.00177235
6.80769e-05
-0.00176425
6.64947e-05
-0.00175562
7.05273e-05
-0.00174718
6.92432e-05
-0.00173823
7.32901e-05
-0.00172933
7.30311e-05
-0.00171998
7.66148e-05
-0.00171057
7.72829e-05
-0.00170078
8.03821e-05
-0.00169085
8.16921e-05
-0.00168058
8.44444e-05
-0.00167011
8.61963e-05
-0.00165932
8.88073e-05
-0.00164828
9.0945e-05
-0.0016369
9.36435e-05
-0.00162522
9.62069e-05
-0.00161317
9.91882e-05
-0.00160075
0.000102227
-0.00158792
0.000105599
-0.00157466
0.00010911
-0.00156094
0.000112881
-0.00154674
0.000116802
-0.00153205
0.000120922
-0.00151685
0.000125188
-0.00150111
0.000129632
-0.00148482
0.000134247
-0.00146794
0.000139075
-0.00145046
0.000144147
-0.00143233
0.000149517
-0.00141351
0.000155233
-0.00139395
0.000161351
-0.00137359
0.000167916
-0.00135238
0.000174976
-0.00133025
0.00018257
-0.00130712
0.000190744
-0.00128293
0.000199545
-0.0012576
0.000209032
-0.00123103
0.000219283
-0.00120312
0.000230395
-0.00117374
0.000242485
-0.00114278
0.000255694
-0.00111006
0.000270183
-0.00107541
0.00028613
-0.00103862
0.000303731
-0.000999467
0.000323196
-0.000957696
0.000344748
-0.000913016
0.00036862
-0.000865113
0.000395054
-0.000813638
0.000424291
-0.000758215
0.000456558
-0.000698441
0.000492046
-0.000633898
0.000530879
-0.00056416
0.000573078
-0.000488821
0.000618507
-0.000407513
0.000666822
-0.000319947
0.000717408
-0.00022595
0.000769323
-0.000125521
0.000821241
-1.88428e-05
0.000871508
9.35213e-05
0.00091774
0.000210717
0.00095715
0.000331599
0.000987638
0.000454616
0.00100595
0.000577875
0.00100947
0.000699224
0.000996125
0.000816363
0.000964572
0.000926993
0.000914632
0.00102894
0.000847097
0.00112034
0.000763971
0.00119968
0.000668027
0.00126591
0.000562578
0.00131839
0.000450969
0.00135692
0.000336571
0.00138158
0.000221929
0.00139279
0.000110033
0.00139111
2.0267e-06
0.0013772
-0.000101488
0.0013519
-0.000197967
0.00131604
-0.000287807
0.00127049
-0.000370689
0.00121611
-0.000446364
0.0011538
-0.00051451
0.00108452
-0.000574812
0.0010093
-0.000626316
0.000929356
-0.000668069
0.00084612
-0.000698239
0.00076122
-0.000715619
0.000676534
-0.000718228
0.0005939
-0.000706512
0.000515195
-0.000679994
0.000441705
-0.000642872
0.000374444
-0.000598155
0.000313305
-0.000551984
0.000257149
-0.000518353
0.00020504
-0.000486564
0.000150798
-0.000510848
9.9896e-05
-0.000490539
3.88063e-05
-0.000533499
-0.000348027
-0.0017796
5.74402e-05
-0.00177121
5.96855e-05
-0.00176304
5.83312e-05
-0.00175435
6.18398e-05
-0.00174585
6.07361e-05
-0.00173683
6.42748e-05
-0.00172786
6.40572e-05
-0.00171844
6.72009e-05
-0.00170895
6.77924e-05
-0.00169909
7.05156e-05
-0.00168906
7.16694e-05
-0.00167871
7.4089e-05
-0.00166814
7.56294e-05
-0.00165726
7.79236e-05
-0.00164611
7.98006e-05
-0.00163464
8.21692e-05
-0.00162285
8.44176e-05
-0.00161069
8.70322e-05
-0.00159816
8.96967e-05
-0.00158522
9.26539e-05
-0.00157184
9.57328e-05
-0.001558
9.90412e-05
-0.00154368
0.000102482
-0.00152886
0.0001061
-0.00151352
0.000109846
-0.00149764
0.000113749
-0.00148119
0.000117803
-0.00146416
0.000122045
-0.00144651
0.000126499
-0.00142821
0.000131215
-0.00140921
0.000136233
-0.00138946
0.000141602
-0.00136891
0.000147364
-0.0013475
0.00015356
-0.00132515
0.000160225
-0.00130181
0.000167399
-0.00127739
0.000175124
-0.00125181
0.000183453
-0.00122498
0.000192453
-0.00119679
0.000202209
-0.00116713
0.000212823
-0.00113585
0.000224419
-0.00110281
0.000237137
-0.00106781
0.000251133
-0.00103066
0.000266578
-0.000991117
0.000283657
-0.000948933
0.000302564
-0.000903816
0.000323504
-0.000855449
0.000346688
-0.000803483
0.000372325
-0.00074754
0.000400615
-0.000687216
0.000431722
-0.000622094
0.000465757
-0.000551748
0.000502733
-0.000475773
0.000542532
-0.000393804
0.000584853
-0.000305551
0.000629156
-0.000210847
0.000674619
-0.00010969
0.000720084
-2.29915e-06
0.000764117
0.000110862
0.000804578
0.000228853
0.00083916
0.000350562
0.000865929
0.000474442
0.000882066
0.000598611
0.000885301
0.000720929
0.000873808
0.000839098
0.000846402
0.000950821
0.000802909
0.00105392
0.000744001
0.00114649
0.000671398
0.00122701
0.000587504
0.00129439
0.000495201
0.00134795
0.000397404
0.00138745
0.000297074
0.00141294
0.000196441
0.00142483
9.81406e-05
0.00142362
3.24102e-06
0.00141001
-8.78778e-05
0.00138479
-0.000172753
0.00134883
-0.000251839
0.00130297
-0.000324829
0.0012481
-0.000391495
0.00118513
-0.000451545
0.00111502
-0.0005047
0.00103883
-0.00055013
0.000957776
-0.000587012
0.000873291
-0.000613754
0.000786996
-0.000629324
0.000700759
-0.000631991
0.000616398
-0.000622151
0.000535784
-0.00059938
0.000460208
-0.000567296
0.000390671
-0.000528618
0.00032713
-0.000488443
0.000268329
-0.000459551
0.000213511
-0.000431747
0.000156223
-0.00045356
0.00010212
-0.000436436
3.9553e-05
-0.000470932
-0.000308474
-0.00177863
4.93364e-05
-0.00177019
5.12474e-05
-0.00176197
5.01084e-05
-0.00175323
5.31011e-05
-0.00174466
5.21699e-05
-0.00173559
5.52012e-05
-0.00172655
5.50216e-05
-0.00171707
5.7722e-05
-0.00170751
5.82342e-05
-0.00169758
6.05768e-05
-0.00168748
6.15714e-05
-0.00167704
6.36538e-05
-0.00166639
6.49798e-05
-0.00165542
6.69534e-05
-0.00164419
6.85673e-05
-0.00163262
7.0603e-05
-0.00162074
7.25342e-05
-0.00160849
7.47797e-05
-0.00159586
7.70676e-05
-0.00158281
7.96071e-05
-0.00156933
8.22514e-05
-0.00155538
8.50937e-05
-0.00154095
8.80506e-05
-0.00152601
9.11605e-05
-0.00151055
9.43818e-05
-0.00149454
9.77389e-05
-0.00147796
0.000101225
-0.00146079
0.000104873
-0.00144299
0.000108704
-0.00142454
0.000112758
-0.00140537
0.000117072
-0.00138546
0.000121687
-0.00136473
0.000126638
-0.00134313
0.000131962
-0.0013206
0.00013769
-0.00129706
0.000143855
-0.00127243
0.000150495
-0.00124663
0.000157654
-0.00121956
0.000165391
-0.00119113
0.000173777
-0.00116121
0.000182901
-0.00112966
0.000192868
-0.00109632
0.000203798
-0.00106101
0.000215826
-0.00102353
0.000229097
-0.000983644
0.000243769
-0.000941091
0.000260011
-0.000895583
0.000277996
-0.000846802
0.000297906
-0.000794396
0.00031992
-0.000737989
0.000344207
-0.000677176
0.000370909
-0.000611538
0.000400119
-0.000540654
0.000431848
-0.000464116
0.000465994
-0.000381561
0.000502298
-0.000292704
0.000540299
-0.000197377
0.000579291
-9.55797e-05
0.000618287
1.24762e-05
0.000656061
0.000126294
0.000690761
0.000244979
0.000720474
0.000367413
0.000743496
0.000492051
0.000757427
0.000617022
0.000760329
0.000740196
0.000750634
0.000859283
0.000727316
0.000971981
0.00069021
0.00107611
0.000639876
0.00116974
0.000577763
0.00125133
0.000505911
0.00131976
0.000426779
0.0013743
0.000342856
0.00141469
0.000256688
0.00144094
0.000170187
0.00145345
8.56364e-05
0.0014527
3.98592e-06
0.00143935
-7.45273e-05
0.00141423
-0.000147631
0.00137818
-0.000215782
0.00133205
-0.000278705
0.00127675
-0.000336194
0.0012132
-0.000387991
0.00114235
-0.000433856
0.0010653
-0.000473079
0.000983253
-0.000504964
0.000897655
-0.000528156
0.000810117
-0.000541786
0.000722497
-0.000544371
0.000636602
-0.000536255
0.000554294
-0.000517072
0.000476869
-0.000489871
0.000405311
-0.00045706
0.000339642
-0.000422774
0.000278497
-0.000398406
0.000221288
-0.000374537
0.000161349
-0.00039362
0.000104399
-0.000379486
4.0402e-05
-0.000406934
-0.000268072
-0.00177778
4.11851e-05
-0.0017693
4.27683e-05
-0.00176103
4.18343e-05
-0.00175225
4.4318e-05
-0.00174363
4.35525e-05
-0.0017345
4.6077e-05
-0.00172541
4.59323e-05
-0.00171588
4.81867e-05
-0.00170626
4.86172e-05
-0.00169626
5.05753e-05
-0.0016861
5.14081e-05
-0.00167559
5.31494e-05
-0.00166487
5.42585e-05
-0.00165383
5.59082e-05
-0.00164252
5.72566e-05
-0.00163087
5.89568e-05
-0.0016189
6.0569e-05
-0.00160657
6.24434e-05
-0.00159385
6.43527e-05
-0.00158072
6.64721e-05
-0.00156715
6.86794e-05
-0.00155311
7.10524e-05
-0.00153858
7.35218e-05
-0.00152354
7.61197e-05
-0.00150796
7.88112e-05
-0.00149184
8.16166e-05
-0.00147515
8.45305e-05
-0.00145785
8.7579e-05
-0.00143993
9.07798e-05
-0.00142134
9.41671e-05
-0.00140204
9.77703e-05
-0.00138197
0.000101625
-0.0013611
0.00010576
-0.00133934
0.000110205
-0.00131664
0.000114989
-0.00129292
0.000120138
-0.00126811
0.000125683
-0.00124212
0.000131663
-0.00121485
0.000138126
-0.00118621
0.000145131
-0.00115606
0.000152752
-0.00112427
0.000161077
-0.00109067
0.000170205
-0.0010551
0.000180249
-0.00101733
0.00019133
-0.00097714
0.000203579
-0.000934266
0.000217137
-0.000888419
0.000232149
-0.000839278
0.000248765
-0.000786493
0.000267135
-0.000729685
0.000287399
-0.00066845
0.000309675
-0.00060237
0.000334039
-0.000531022
0.000360501
-0.000454003
0.000388974
-0.000370949
0.000419244
-0.000281578
0.000450927
-0.000185722
0.000483435
-8.33825e-05
0.000515948
2.52358e-05
0.000547443
0.000139609
0.000576387
0.000258885
0.000601199
0.000381935
0.000620446
0.000507222
0.00063214
0.000632886
0.000634666
0.000756805
0.000626715
0.000876695
0.000607426
0.000990256
0.00057665
0.00109529
0.000534836
0.00118988
0.000483178
0.00127243
0.000423357
0.0013418
0.000357413
0.00139724
0.000287415
0.00143844
0.000215489
0.00146539
0.000143232
0.00147847
7.25631e-05
0.00147815
4.2984e-06
0.00146506
-6.14374e-05
0.00144005
-0.000122612
0.00140393
-0.00017967
0.0013576
-0.000232369
0.00130193
-0.000280532
0.00123788
-0.000323935
0.00116641
-0.000362381
0.00108861
-0.000395279
0.0010057
-0.000422057
0.00091913
-0.000441589
0.000830507
-0.000453163
0.000741681
-0.000455545
0.000654446
-0.000449021
0.000570658
-0.000433284
0.000491621
-0.000410833
0.0004183
-0.00038374
0.000350785
-0.000355259
0.000287605
-0.000335227
0.000228335
-0.000315267
0.000166134
-0.00033142
0.000106709
-0.000320061
4.1373e-05
-0.000341599
-0.000226699
-0.00177707
3.29941e-05
-0.00176855
3.42548e-05
-0.00176024
3.35175e-05
-0.00175142
3.54976e-05
-0.00174276
3.48921e-05
-0.00173359
3.69107e-05
-0.00172446
3.67982e-05
-0.00171487
3.86041e-05
-0.00170521
3.89511e-05
-0.00169515
4.05213e-05
-0.00168493
4.11902e-05
-0.00167437
4.25871e-05
-0.00166359
4.3477e-05
-0.00165248
4.48e-05
-0.00164111
4.58809e-05
-0.00162939
4.72436e-05
-0.00161736
4.85352e-05
-0.00160495
5.00365e-05
-0.00159217
5.15657e-05
-0.00157896
5.32633e-05
-0.00156531
5.50313e-05
-0.00155119
5.69326e-05
-0.00153658
5.89115e-05
-0.00152145
6.09938e-05
-0.00150579
6.31515e-05
-0.00148958
6.54009e-05
-0.00147278
6.77373e-05
-0.00145539
7.01816e-05
-0.00143736
7.27478e-05
-0.00141865
7.54631e-05
-0.00139923
7.83511e-05
-0.00137905
8.14399e-05
-0.00135804
8.47534e-05
-0.00133615
8.83158e-05
-0.00131331
9.21487e-05
-0.00128945
9.62748e-05
-0.00126448
0.000100719
-0.00123833
0.000105511
-0.0012109
0.000110691
-0.00118207
0.000116305
-0.00115173
0.000122413
-0.00111974
0.000129084
-0.00108594
0.000136399
-0.00105013
0.000144446
-0.00101213
0.000153324
-0.000971685
0.000163137
-0.000928545
0.000173997
-0.000882416
0.00018602
-0.000832978
0.000199327
-0.000779879
0.000214036
-0.00072274
0.00023026
-0.000661158
0.000248093
-0.000594715
0.000267596
-0.000522989
0.000288775
-0.000445577
0.000311562
-0.000362118
0.000335785
-0.00027233
0.000361138
-0.000176046
0.000387152
-7.32691e-05
0.000413171
3.57966e-05
0.000438377
0.000150628
0.000461556
0.000270383
0.000481443
0.000393939
0.000496891
0.000519765
0.000506314
0.00064601
0.000508421
0.000770561
0.000502164
0.000891141
0.000486847
0.00100545
0.000462341
0.00111129
0.000428998
0.00120671
0.000387756
0.00129012
0.00033995
0.00136032
0.000287206
0.00141657
0.000231174
0.0014585
0.000173558
0.00148609
0.000115637
0.00149969
5.89632e-05
0.00149979
4.20059e-06
0.00148696
-4.86044e-05
0.00146206
-9.77147e-05
0.00142593
-0.000143542
0.00137945
-0.000185883
0.0013235
-0.000224589
0.00125905
-0.000259478
0.00118706
-0.000290392
0.00110864
-0.000316861
0.00102501
-0.000338431
0.00093763
-0.000354206
0.000848089
-0.000363623
0.000758239
-0.000365695
0.000669866
-0.000360647
0.000584817
-0.000348236
0.000504408
-0.000330424
0.000429588
-0.000308919
0.00036051
-0.00028618
0.000295613
-0.00027033
0.00023462
-0.000254273
0.000170545
-0.000267345
0.000109037
-0.000258553
4.24888e-05
-0.000275051
-0.00018421
-0.00177649
2.47717e-05
-0.00176795
2.57137e-05
-0.0017596
2.51666e-05
-0.00175075
2.66476e-05
-0.00174205
2.61976e-05
-0.00173285
2.77107e-05
-0.00172368
2.76283e-05
-0.00171406
2.89841e-05
-0.00170436
2.92457e-05
-0.00169426
3.04255e-05
-0.001684
3.09287e-05
-0.00167339
3.19786e-05
-0.00166256
3.26475e-05
-0.0016514
3.36416e-05
-0.00163998
3.44536e-05
-0.00162821
3.54769e-05
-0.00161612
3.64465e-05
-0.00160366
3.75736e-05
-0.00159081
3.87213e-05
-0.00157755
3.99956e-05
-0.00156384
4.13228e-05
-0.00154965
4.27502e-05
-0.00153498
4.42362e-05
-0.00151979
4.58001e-05
-0.00150406
4.74209e-05
-0.00148776
4.91107e-05
-0.00147089
5.0866e-05
-0.00145341
5.27023e-05
-0.0014353
5.463e-05
-0.0014165
5.66694e-05
-0.00139699
5.88384e-05
-0.00137671
6.11578e-05
-0.0013556
6.36458e-05
-0.00133361
6.63207e-05
-0.00131066
6.91985e-05
-0.00128668
7.22967e-05
-0.00126159
7.56337e-05
-0.00123531
7.92326e-05
-0.00120774
8.31221e-05
-0.00117878
8.7338e-05
-0.00114829
9.19246e-05
-0.00111614
9.69339e-05
-0.00108217
0.000102426
-0.00104619
0.000108467
-0.00100799
0.000115132
-0.000967355
0.000122497
-0.000924006
0.000130648
-0.000877658
0.000139672
-0.000827989
0.000149657
-0.000774648
0.000160694
-0.000717255
0.000172867
-0.000655408
0.000186246
-0.000588688
0.000200876
-0.000516675
0.000216762
-0.000438967
0.000233854
-0.000355203
0.000252022
-0.000265102
0.000271037
-0.000168499
0.000290549
-6.53956e-05
0.000310068
4.40032e-05
0.000328979
0.000159179
0.00034638
0.0002793
0.000361322
0.000403246
0.000372946
0.000529495
0.000380064
0.000656206
0.00038171
0.000781275
0.000377095
0.000902429
0.000365693
0.00101737
0.000347401
0.00112389
0.000322474
0.00122004
0.000291609
0.00130419
0.000255799
0.00137514
0.000216258
0.00143209
0.00017422
0.00147468
0.000130968
0.00150286
8.74611e-05
0.00151695
4.48726e-05
0.00151743
3.71387e-06
0.00150486
-3.60324e-05
0.00148011
-7.29652e-05
0.00144402
-0.000107447
0.00139745
-0.000139316
0.00134132
-0.000168456
0.00127657
-0.000194729
0.00120419
-0.000218015
0.0011253
-0.000237965
0.00104111
-0.000254241
0.000953076
-0.000266174
0.000862796
-0.000273344
0.000772112
-0.000275011
0.000682806
-0.000271341
0.000596722
-0.000262152
0.000515185
-0.000248888
0.000439131
-0.000232866
0.000368778
-0.000215827
0.000302484
-0.000204037
0.000240113
-0.000191902
0.00017455
-0.000201781
0.000111368
-0.000195371
4.37542e-05
-0.000207437
-0.000140456
-0.00177605
1.65262e-05
-0.00176749
1.71524e-05
-0.00175911
1.67905e-05
-0.00175024
1.77758e-05
-0.00174152
1.74778e-05
-0.0017323
1.84861e-05
-0.0017231
1.8432e-05
-0.00171345
1.93365e-05
-0.00170372
1.95116e-05
-0.00169359
2.02991e-05
-0.0016833
2.06352e-05
-0.00167266
2.13361e-05
-0.00166179
2.17827e-05
-0.0016506
2.24463e-05
-0.00163913
2.29881e-05
-0.00162733
2.36709e-05
-0.0016152
2.43177e-05
-0.00160269
2.50694e-05
-0.00158981
2.58349e-05
-0.0015765
2.66848e-05
-0.00156274
2.757e-05
-0.00154852
2.85223e-05
-0.00153379
2.95136e-05
-0.00151855
3.05571e-05
-0.00150277
3.16387e-05
-0.00148642
3.27665e-05
-0.0014695
3.39379e-05
-0.00145196
3.51634e-05
-0.00143378
3.64498e-05
-0.00141492
3.78106e-05
-0.00139534
3.92577e-05
-0.00137498
4.0805e-05
-0.0013538
4.24648e-05
-0.00133173
4.42491e-05
-0.0013087
4.61689e-05
-0.00128464
4.82356e-05
-0.00125947
5.04617e-05
-0.0012331
5.28626e-05
-0.00120543
5.54573e-05
-0.00117637
5.82698e-05
-0.00114577
6.13294e-05
-0.00111351
6.46708e-05
-0.00107941
6.8334e-05
-0.00104331
7.23635e-05
-0.00100499
7.68079e-05
-0.00096421
8.17198e-05
-0.000920716
8.7155e-05
-0.000874216
9.31716e-05
-0.000824388
9.98291e-05
-0.00077088
0.000107187
-0.000713315
0.000115302
-0.000651288
0.00012422
-0.000584384
0.000133971
-0.000512181
0.00014456
-0.000434279
0.000155951
-0.000350317
0.00016806
-0.000260015
0.000180735
-0.000163207
0.000193741
-5.98947e-05
0.000206755
4.97182e-05
0.000219366
0.000165121
0.000230977
0.000285487
0.000240956
0.000409702
0.000248731
0.000536256
0.000253511
0.000663313
0.000254652
0.000788781
0.000251628
0.00091039
0.000244083
0.00102584
0.000231947
0.00113293
0.000215385
0.00122969
0.000194855
0.00131447
0.000171015
0.00138606
0.000144672
0.00144363
0.000116647
0.0014868
8.77968e-05
0.0015155
5.87609e-05
0.00153004
3.03326e-05
0.00153092
2.84122e-06
0.00151861
-2.37279e-05
0.00149404
-4.8398e-05
0.00145804
-7.14445e-05
0.00141148
-9.27509e-05
0.00135526
-0.000112237
0.00129034
-0.000129809
0.00121771
-0.000145389
0.00113849
-0.000158744
0.0010539
-0.000169652
0.000965394
-0.000177667
0.000874562
-0.000182512
0.000783244
-0.000183693
0.000693219
-0.000181316
0.000606328
-0.00017526
0.000523911
-0.000166471
0.000446893
-0.000155848
0.000375554
-0.000144488
0.000308187
-0.000136669
0.000244788
-0.000128503
0.000178121
-0.000135115
0.000113683
-0.000130933
4.51723e-05
-0.000138926
-9.52837e-05
-0.00177576
8.26605e-06
-0.00176718
8.57859e-06
-0.00175879
8.39855e-06
-0.00174991
8.8905e-06
-0.00174117
8.74209e-06
-0.00173193
9.24602e-06
-0.00172272
9.21928e-06
-0.00171305
9.67161e-06
-0.0017033
9.75935e-06
-0.00169316
1.01533e-05
-0.00168284
1.03216e-05
-0.00167218
1.06723e-05
-0.00166129
1.08958e-05
-0.00165007
1.12277e-05
-0.00163858
1.14988e-05
-0.00162675
1.18403e-05
-0.0016146
1.21637e-05
-0.00160207
1.25396e-05
-0.00158916
1.29224e-05
-0.00157582
1.33474e-05
-0.00156204
1.379e-05
-0.00154778
1.42662e-05
-0.00153303
1.4762e-05
-0.00151776
1.52839e-05
-0.00150194
1.58249e-05
-0.00148557
1.63891e-05
-0.0014686
1.6975e-05
-0.00145103
1.7588e-05
-0.00143281
1.82314e-05
-0.00141391
1.89121e-05
-0.00139429
1.96358e-05
-0.00137389
2.04096e-05
-0.00135267
2.12395e-05
-0.00133055
2.21317e-05
-0.00130747
2.30917e-05
-0.00128336
2.41251e-05
-0.00125814
2.52382e-05
-0.00123172
2.64387e-05
-0.001204
2.77362e-05
-0.00117487
2.91425e-05
-0.00114421
3.06723e-05
-0.00111188
3.2343e-05
-0.00107772
3.41744e-05
-0.00104155
3.61888e-05
-0.00100315
3.84106e-05
-0.000962298
4.08659e-05
-0.000918726
4.35826e-05
-0.000872144
4.65898e-05
-0.000822232
4.99172e-05
-0.00076864
5.35941e-05
-0.000710987
5.76493e-05
-0.000648873
6.21058e-05
-0.000581881
6.69786e-05
-0.000509591
7.22697e-05
-0.000431602
7.79622e-05
-0.000347555
8.40134e-05
-0.000257168
9.03476e-05
-0.000160275
9.68488e-05
-5.68751e-05
0.000103355
5.28295e-05
0.000109661
0.000168336
0.000115471
0.000288823
0.000120469
0.000413185
0.000124369
0.00053992
0.000126776
0.000667203
0.000127369
0.000792948
0.000125883
0.000914892
0.00012214
0.00103074
0.000116102
0.00113827
0.00010785
0.00123552
9.76102e-05
0.00132082
8.57104e-05
0.00139294
7.25524e-05
0.00145104
5.85462e-05
0.00149472
4.41204e-05
0.00152388
2.95946e-05
0.00153885
1.53668e-05
0.00154007
1.62339e-06
0.00152806
-1.17178e-05
0.00150371
-2.40516e-05
0.00146786
-3.55973e-05
0.00142139
-4.62739e-05
0.00136519
-5.60396e-05
0.00130023
-6.48482e-05
0.0012275
-7.2661e-05
0.00114812
-7.93624e-05
0.00106331
-8.48414e-05
0.000974518
-8.88766e-05
0.000883334
-9.13288e-05
0.000791593
-9.19515e-05
0.000701072
-9.07947e-05
0.000613611
-8.77991e-05
0.000530567
-8.34275e-05
0.000452857
-7.81379e-05
0.000380823
-7.24539e-05
0.000312705
-6.8551e-05
0.000248627
-6.44247e-05
0.000181238
-6.77259e-05
0.000115973
-6.56682e-05
4.67553e-05
-6.97091e-05
-4.85283e-05
-0.00177561
-3.63579e-11
-0.00176703
-4.21972e-11
-0.00175863
-4.541e-11
-0.00174974
-4.33227e-11
-0.001741
-4.24598e-11
-0.00173176
-4.06267e-11
-0.00172254
-3.48336e-11
-0.00171287
-2.56276e-11
-0.00170311
-1.23643e-11
-0.00169295
7.6993e-12
-0.00168263
2.81791e-11
-0.00167196
3.91171e-11
-0.00166106
4.68021e-11
-0.00164984
5.10035e-11
-0.00163834
4.662e-11
-0.0016265
4.52472e-11
-0.00161433
4.34304e-11
-0.00160179
3.135e-11
-0.00158887
3.58746e-11
-0.00157552
3.21462e-11
-0.00156173
2.86936e-11
-0.00154747
2.90152e-11
-0.00153271
1.6626e-11
-0.00151742
1.65395e-11
-0.0015016
1.26144e-11
-0.00148521
1.18189e-11
-0.00146823
7.88954e-12
-0.00145064
-4.53981e-13
-0.00143241
-1.06073e-11
-0.0014135
-2.49902e-11
-0.00139386
-3.72682e-11
-0.00137346
-5.15026e-11
-0.00135222
-6.43065e-11
-0.00133008
-7.93731e-11
-0.00130699
-1.17092e-10
-0.00128287
-1.35215e-10
-0.00125763
-1.43036e-10
-0.00123119
-1.68859e-10
-0.00120345
-1.84942e-10
-0.00117431
-2.0403e-10
-0.00114364
-2.15122e-10
-0.00111129
-2.0997e-10
-0.00107712
-1.97758e-10
-0.00104093
-1.43073e-10
-0.00100252
-1.01225e-10
-0.000961655
-2.84523e-11
-0.000918072
2.32979e-11
-0.000871482
6.18511e-11
-0.000821565
8.69177e-11
-0.000767971
1.04103e-10
-0.000710322
1.38859e-10
-0.000648216
1.45991e-10
-0.000581238
1.80678e-10
-0.000508968
1.55316e-10
-0.000431006
1.46275e-10
-0.000346993
1.671e-10
-0.000256646
1.79576e-10
-0.000159797
2.18119e-10
-5.64424e-05
2.15576e-10
5.32184e-05
1.78826e-10
0.000168689
2.06379e-10
0.000289158
2.40294e-10
0.000413526
3.03716e-10
0.000540302
3.83125e-10
0.00066767
4.95518e-10
0.000793552
6.33087e-10
0.000915691
6.7543e-10
0.00103179
6.89748e-10
0.00113964
6.66462e-10
0.00123725
5.95766e-10
0.00132296
5.59723e-10
0.00139551
5.05435e-10
0.00145406
4.45978e-10
0.00149818
3.65296e-10
0.00152777
2.82223e-10
0.00154314
1.47995e-10
0.00154476
2.05025e-11
0.00153305
-1.66223e-10
0.00150899
-3.92467e-10
0.0014734
-6.30887e-10
0.00142712
-8.87513e-10
0.00137109
-1.12522e-09
0.00130624
-1.31671e-09
0.00123358
-1.43214e-09
0.00115422
-1.44885e-09
0.00106938
-1.35393e-09
0.000980503
-1.15502e-09
0.000889175
-8.84457e-10
0.000797224
-5.57208e-10
0.00070643
-2.03232e-10
0.000618631
1.31806e-10
0.000535203
4.19007e-10
0.000457064
6.32622e-10
0.000384609
7.4162e-10
0.000316058
7.34553e-10
0.000251632
6.24008e-10
0.000183906
4.50851e-10
0.000118238
2.69236e-10
4.85284e-05
1.38446e-10
6.92709e-11
-0.00152192
0.00013878
-0.00014486
-0.00151524
0.000147658
-0.000154341
-0.00150905
0.000140748
-0.000146942
-0.00150229
0.000151773
-0.00015853
-0.00149575
0.000147386
-0.000153928
-0.0014888
0.000156994
-0.000163945
-0.00148189
0.000155735
-0.000162642
-0.00147467
0.000163652
-0.000170872
-0.0014674
0.000164706
-0.000171977
-0.00145987
0.000171303
-0.000178829
-0.00145224
0.00017385
-0.000181485
-0.00144438
0.00017963
-0.000187492
-0.00143636
0.000183212
-0.00019123
-0.00142811
0.000188729
-0.000196977
-0.00141966
0.000193247
-0.000201699
-0.00141095
0.000199038
-0.000207749
-0.00140198
0.00020457
-0.000213539
-0.00139271
0.000211038
-0.000220305
-0.00138313
0.000217635
-0.000227211
-0.00137322
0.000224944
-0.000234856
-0.00136296
0.000232518
-0.000242776
-0.00135234
0.000240609
-0.000251229
-0.00134135
0.000248968
-0.000259956
-0.00132999
0.000257704
-0.000269071
-0.00131823
0.000266709
-0.000278462
-0.00130608
0.000276072
-0.000288225
-0.00129351
0.000285797
-0.000298368
-0.0012805
0.000296
-0.000309014
-0.00126701
0.000306763
-0.00032025
-0.00125301
0.000318217
-0.000332215
-0.00123846
0.000330466
-0.000345018
-0.00122331
0.000343621
-0.000358772
-0.00120751
0.000357767
-0.000373564
-0.00119102
0.000372984
-0.000389476
-0.00117378
0.000389342
-0.000406576
-0.00115576
0.000406918
-0.000424946
-0.00113688
0.000425813
-0.000444689
-0.00111709
0.000446162
-0.00046595
-0.00109632
0.000468146
-0.000488919
-0.00107448
0.000492
-0.000513844
-0.00105146
0.000518007
-0.000541026
-0.00102714
0.000546497
-0.000570813
-0.00100139
0.000577842
-0.000603595
-0.000974038
0.000612446
-0.000639795
-0.000944912
0.000650745
-0.000679871
-0.000913806
0.000693205
-0.000724311
-0.000880495
0.000740325
-0.000773636
-0.000844727
0.000792635
-0.000828403
-0.000806221
0.000850684
-0.000889189
-0.000764669
0.000915028
-0.00095658
-0.000719734
0.000986188
-0.00103112
-0.000671058
0.0010646
-0.00111328
-0.000618271
0.00115055
-0.00120333
-0.000561009
0.00124402
-0.00130128
-0.000498936
0.00134464
-0.00140672
-0.000431776
0.00145153
-0.00151869
-0.000359355
0.00156308
-0.0016355
-0.000281654
0.0016769
-0.00175461
-0.000198863
0.00178957
-0.00187236
-0.000111417
0.00189687
-0.00198432
-2.0288e-05
0.00199335
-0.00208447
7.38901e-05
0.00207413
-0.00216831
0.000169335
0.00212928
-0.00222472
0.000264229
0.00215533
-0.00225023
0.000356497
0.00214535
-0.00223762
0.000443953
0.00209552
-0.00218298
0.000524518
0.00200415
-0.00208472
0.000596315
0.00187232
-0.00194411
0.000657851
0.00170353
-0.00176506
0.000708175
0.0015042
-0.00155453
0.000746831
0.00128187
-0.00132052
0.000773823
0.00104463
-0.00107162
0.000789527
0.000800163
-0.000815867
0.000794552
0.000555205
-0.000560231
0.00078965
0.000315249
-0.000310347
0.000775786
8.51955e-05
-7.1331e-05
0.000753578
-0.000134843
0.000157051
0.000724271
-0.00034015
0.000369457
0.000688786
-0.000529765
0.00056525
0.000647813
-0.000704286
0.000745259
0.000602103
-0.000863405
0.000909114
0.000552413
-0.00100684
0.00105653
0.000499491
-0.0011342
0.00118712
0.000444153
-0.00124449
0.00129983
0.00038738
-0.00133513
0.0013919
0.000330353
-0.0014032
0.00146023
0.000274519
-0.00144411
0.00149994
0.000221532
-0.00145445
0.00150744
0.000173092
-0.00143067
0.00147911
0.000130763
-0.0013745
0.00141683
9.56648e-05
-0.00128749
0.00132259
6.81517e-05
-0.00118187
0.00120938
4.80783e-05
-0.00106387
0.00108394
3.35188e-05
-0.000957658
0.000972218
2.44099e-05
-0.000870374
0.000879482
1.60854e-05
-0.000821129
0.000829453
1.445e-05
-0.000832332
0.000833967
9.32586e-06
-0.00080695
0.000812074
8.99551e-06
-0.000913916
0.000914246
-0.000403882
0.000412878
-0.00152073
0.000132686
-0.0015139
0.000140831
-0.00150771
0.000134556
-0.00150083
0.000144897
-0.00149427
0.00014082
-0.00148722
0.000149943
-0.00148026
0.00014878
-0.00147295
0.000156341
-0.00146561
0.000157369
-0.001458
0.000163686
-0.00145028
0.000166136
-0.00144232
0.000171673
-0.00143422
0.000175106
-0.00142587
0.000180383
-0.00141732
0.000184699
-0.00140851
0.000190228
-0.00139945
0.000195503
-0.00139008
0.00020167
-0.0013804
0.000207959
-0.00137039
0.000214929
-0.00136003
0.000222156
-0.0013493
0.000229882
-0.0013382
0.000237869
-0.00132672
0.000246222