/*--------------------------------*- C++ -*----------------------------------*\
  =========                 |
  \\      /  F ield         | OpenFOAM: The Open Source CFD Toolbox
   \\    /   O peration     | Website:  https://openfoam.org
    \\  /    A nd           | Version:  7
     \\/     M anipulation  |
\*---------------------------------------------------------------------------*/
FoamFile
{
    version     2.0;
    format      ascii;
    class       volVectorField;
    location    "14";
    object      U;
}
// * * * * * * * * * * * * * * * * * * * * * * * * * * * * * * * * * * * * * //

dimensions      [0 1 -1 0 0 0 0];

internalField   nonuniform List<vector> 
11200
(
(0.935388 -0.00671373 -5.38677e-20)
(0.927547 -0.00698364 -1.40366e-19)
(0.926103 -0.00681447 8.41145e-20)
(0.919642 -0.00723301 -5.39481e-22)
(0.91686 -0.00709658 3.07185e-20)
(0.911154 -0.00751312 1.92358e-19)
(0.907453 -0.00748432 8.55332e-20)
(0.902075 -0.00785114 -1.39993e-19)
(0.89773 -0.00791815 6.40789e-20)
(0.892419 -0.00823442 8.82391e-19)
(0.887596 -0.00836733 -1.50219e-18)
(0.8822 -0.00864789 -1.52684e-18)
(0.876992 -0.00882621 4.81775e-19)
(0.871419 -0.00909254 -7.53235e-20)
(0.865868 -0.00931072 2.46975e-18)
(0.860048 -0.00958644 -8.68972e-19)
(0.854149 -0.00984859 2.03987e-18)
(0.848018 -0.0101536 2.95522e-18)
(0.841739 -0.0104647 2.59376e-18)
(0.83523 -0.0108098 3.60045e-18)
(0.828525 -0.011169 2.65587e-18)
(0.821578 -0.0115546 -1.05688e-18)
(0.814402 -0.0119554 4.80336e-19)
(0.80697 -0.0123763 1.03561e-19)
(0.799284 -0.0128119 1.48539e-19)
(0.791328 -0.0132655 2.28648e-18)
(0.783097 -0.0137365 -2.86141e-18)
(0.774576 -0.0142294 -5.53895e-19)
(0.765753 -0.0147473 -5.34714e-19)
(0.756611 -0.0152959 3.29883e-18)
(0.747128 -0.0158802 1.02467e-18)
(0.73728 -0.0165057 -2.07867e-20)
(0.727042 -0.0171772 3.71943e-18)
(0.716383 -0.0178994 -3.91683e-18)
(0.705271 -0.0186764 5.44172e-18)
(0.693674 -0.0195125 2.59603e-18)
(0.681555 -0.0204128 -3.97706e-19)
(0.668875 -0.0213832 3.18978e-18)
(0.65559 -0.0224318 8.74634e-18)
(0.641653 -0.0235685 8.06413e-18)
(0.627008 -0.0248056 7.64606e-18)
(0.611592 -0.0261575 5.00272e-18)
(0.595329 -0.027641 -3.31285e-18)
(0.578137 -0.0292745 3.69048e-18)
(0.559919 -0.0310783 -6.38051e-19)
(0.540565 -0.033074 -1.75898e-18)
(0.519953 -0.0352848 1.0589e-17)
(0.497947 -0.0377351 8.69634e-18)
(0.474392 -0.0404502 -5.1451e-18)
(0.449121 -0.0434551 -2.97133e-18)
(0.421949 -0.0467739 -9.71424e-18)
(0.392676 -0.0504268 -4.10787e-18)
(0.361089 -0.0544277 1.19211e-18)
(0.32697 -0.0587795 4.43312e-19)
(0.290097 -0.0634694 2.03934e-18)
(0.250264 -0.068463 1.32774e-18)
(0.207284 -0.0736977 3.58177e-18)
(0.161028 -0.0790773 -3.55716e-18)
(0.111421 -0.0844652 -2.86208e-19)
(0.0584833 -0.0896964 -2.11648e-19)
(0.00235628 -0.094503 -2.29782e-18)
(-0.0565816 -0.0986196 -1.72639e-18)
(-0.117858 -0.101814 -9.07308e-18)
(-0.180854 -0.10375 -1.26123e-17)
(-0.244655 -0.104152 -4.32092e-18)
(-0.30825 -0.102802 -8.57353e-18)
(-0.370478 -0.0995591 -2.05223e-18)
(-0.430135 -0.0944047 -3.16863e-18)
(-0.486044 -0.0874215 -5.48185e-18)
(-0.537116 -0.0788204 1.17368e-17)
(-0.58245 -0.0688925 -2.94077e-17)
(-0.621347 -0.0579842 -3.90339e-17)
(-0.653348 -0.0464449 1.92738e-17)
(-0.678209 -0.0346238 -6.12398e-17)
(-0.695876 -0.022786 3.23581e-17)
(-0.706502 -0.0112379 -6.04317e-17)
(-0.710269 -1.09475e-05 5.59709e-17)
(-0.707525 0.0105258 3.51739e-19)
(-0.698668 0.0204685 -7.32455e-17)
(-0.684126 0.0297164 2.12391e-17)
(-0.664297 0.0382389 5.0599e-19)
(-0.639661 0.0460125 -6.78019e-17)
(-0.610634 0.0530069 -3.90141e-17)
(-0.577712 0.0591892 -2.14389e-17)
(-0.541323 0.0644606 5.30131e-18)
(-0.502105 0.0687199 -5.73898e-17)
(-0.460577 0.071776 2.09987e-17)
(-0.417695 0.0734992 4.1426e-17)
(-0.374074 0.0736848 7.77732e-17)
(-0.33113 0.072376 5.76124e-17)
(-0.289197 0.0695292 4.97783e-17)
(-0.250248 0.0655832 2.99819e-17)
(-0.213287 0.0608454 -1.61646e-17)
(-0.181373 0.0559787 -2.59064e-18)
(-0.150244 0.0523679 2.48481e-17)
(-0.125501 0.0489965 2.19704e-17)
(-0.0976107 0.0513685 -3.28889e-17)
(-0.0743106 0.0491024 -1.61304e-17)
(-0.0470621 0.0542771 -7.33519e-18)
(-0.0109608 0.0357083 -8.76555e-18)
(0.934798 -0.00602679 -5.64919e-20)
(0.926889 -0.0062647 -2.12515e-19)
(0.925436 -0.00611827 -1.8191e-19)
(0.918914 -0.00648969 -3.36853e-19)
(0.916115 -0.00637058 6.86168e-20)
(0.910352 -0.00674284 -4.89632e-19)
(0.906626 -0.00671843 -3.87933e-19)
(0.901193 -0.00704766 -2.09579e-19)
(0.896812 -0.00710862 -1.56884e-19)
(0.891447 -0.00739311 -1.42605e-19)
(0.886579 -0.00751309 -8.17239e-19)
(0.881127 -0.00776563 -1.96525e-18)
(0.875867 -0.00792624 -4.51234e-20)
(0.870235 -0.00816585 -8.26782e-19)
(0.864626 -0.00836201 1.99432e-18)
(0.858745 -0.00860976 -1.47516e-18)
(0.852784 -0.00884515 1.75667e-18)
(0.846588 -0.00911898 3.31753e-18)
(0.840244 -0.00939815 1.79021e-18)
(0.833667 -0.00970796 2.23742e-18)
(0.826893 -0.0100305 1.80162e-18)
(0.819874 -0.0103768 -9.75164e-19)
(0.812624 -0.0107369 1.19275e-18)
(0.805114 -0.0111153 -8.87277e-19)
(0.797347 -0.011507 1.04167e-19)
(0.789306 -0.0119151 9.50777e-19)
(0.780986 -0.0123388 -8.63342e-19)
(0.772371 -0.0127822 -3.4411e-19)
(0.763451 -0.013248 -8.06558e-19)
(0.754205 -0.0137413 4.42655e-18)
(0.744615 -0.0142665 1.19095e-18)
(0.734656 -0.0148286 -5.83087e-19)
(0.724301 -0.0154321 2.51204e-18)
(0.713521 -0.016081 -2.11666e-18)
(0.702282 -0.0167793 4.31565e-18)
(0.690552 -0.0175308 2.24072e-18)
(0.678293 -0.01834 -2.57641e-18)
(0.665466 -0.0192124 3.91608e-18)
(0.652026 -0.0201552 9.69419e-18)
(0.637924 -0.0211773 9.4233e-18)
(0.623103 -0.0222895 8.15323e-18)
(0.6075 -0.0235049 2.91549e-18)
(0.59104 -0.0248384 -3.17596e-18)
(0.573637 -0.0263066 -1.29088e-18)
(0.555194 -0.0279274 -1.15619e-18)
(0.535601 -0.0297205 3.94044e-18)
(0.514734 -0.0317064 8.38103e-18)
(0.492454 -0.0339071 7.70179e-18)
(0.468609 -0.036345 -2.9374e-18)
(0.443027 -0.0390427 -2.36873e-18)
(0.415522 -0.0420216 -5.30988e-18)
(0.385895 -0.0452998 -5.34484e-18)
(0.353931 -0.0488894 2.06974e-18)
(0.319412 -0.0527931 6.62233e-19)
(0.282117 -0.0569992 3.76203e-18)
(0.241839 -0.061477 1.95651e-18)
(0.198395 -0.0661705 2.02604e-18)
(0.151656 -0.0709937 -5.47049e-18)
(0.101549 -0.0758245 -8.52557e-20)
(0.0481027 -0.0805126 -4.04752e-19)
(-0.00854012 -0.0848304 -1.53403e-18)
(-0.0680092 -0.0885271 -4.30693e-18)
(-0.129824 -0.0914031 -6.90308e-18)
(-0.193358 -0.0931549 -9.77331e-18)
(-0.257703 -0.0935379 -7.41252e-18)
(-0.321846 -0.0923553 -2.03871e-17)
(-0.384632 -0.0894794 -5.49834e-18)
(-0.444851 -0.0848907 1.02944e-17)
(-0.501327 -0.0786601 -1.33718e-17)
(-0.552964 -0.0709722 2.48611e-17)
(-0.598851 -0.0620843 -2.77467e-17)
(-0.638272 -0.0523045 -4.77861e-17)
(-0.670754 -0.0419446 -8.25429e-18)
(-0.696035 -0.0313187 -6.7317e-17)
(-0.714049 -0.0206641 2.61001e-17)
(-0.724914 -0.0102547 -4.26719e-17)
(-0.728857 -9.79046e-05 5.22569e-17)
(-0.72619 0.00933949 -2.52659e-18)
(-0.717266 0.018318 -5.96024e-17)
(-0.702567 0.026674 -1.50564e-17)
(-0.682477 0.0343744 -5.23833e-18)
(-0.657482 0.0413988 -7.77639e-17)
(-0.628 0.0477188 -4.65939e-17)
(-0.59454 0.0533045 -5.21112e-17)
(-0.557535 0.0580675 6.77172e-18)
(-0.517637 0.0619183 -4.28782e-17)
(-0.475364 0.0646873 1.45096e-17)
(-0.431683 0.0662616 2.29038e-17)
(-0.387191 0.0664596 8.59355e-17)
(-0.343323 0.0653222 5.69768e-17)
(-0.300366 0.0628117 5.78639e-17)
(-0.260342 0.0593161 2.41063e-17)
(-0.222181 0.0551214 -1.536e-17)
(-0.18901 0.0507938 -8.52017e-19)
(-0.156513 0.0476288 2.87296e-17)
(-0.130195 0.0446336 3.30231e-17)
(-0.100791 0.0468324 -4.11229e-17)
(-0.0753382 0.0448851 -1.17559e-17)
(-0.0464508 0.0490417 -5.76138e-18)
(-0.0104627 0.0320857 -1.18932e-17)
(0.934261 -0.00533291 -3.68568e-20)
(0.926291 -0.00554153 -1.71553e-19)
(0.92483 -0.00541436 -1.63273e-19)
(0.918254 -0.00574075 -4.35279e-19)
(0.915438 -0.00563704 -3.2151e-19)
(0.909624 -0.00596563 -6.42294e-19)
(0.905873 -0.00594464 -9.75479e-19)
(0.900392 -0.00623612 -3.79061e-19)
(0.895978 -0.00629036 -4.09649e-19)
(0.890563 -0.00654259 -1.62841e-19)
(0.885654 -0.00664903 -9.96548e-19)
(0.880151 -0.006873 -1.77405e-18)
(0.874844 -0.00701534 -6.06789e-19)
(0.869158 -0.00722767 -7.57555e-19)
(0.863496 -0.00740129 6.06308e-19)
(0.857558 -0.00762057 -8.25452e-19)
(0.851541 -0.00782872 1.12022e-18)
(0.845285 -0.00807087 2.39601e-18)
(0.838881 -0.00831765 1.33346e-18)
(0.832242 -0.00859158 1.03317e-18)
(0.825404 -0.00887677 1.64091e-18)
(0.81832 -0.00918321 -1.00659e-18)
(0.811001 -0.00950187 -1.12339e-19)
(0.80342 -0.00983689 -2.1027e-18)
(0.795579 -0.0101838 -1.02786e-19)
(0.78746 -0.0105452 9.78666e-20)
(0.779057 -0.0109206 -1.64004e-18)
(0.770357 -0.0113134 -1.35906e-19)
(0.761346 -0.0117259 -2.0317e-18)
(0.752006 -0.0121628 2.88949e-18)
(0.742317 -0.0126278 -1.50163e-18)
(0.732255 -0.0131254 -1.66877e-18)
(0.721792 -0.0136596 1.98938e-18)
(0.710899 -0.014234 -1.25726e-18)
(0.699544 -0.0148521 3.50068e-18)
(0.687691 -0.0155175 3.02021e-18)
(0.675302 -0.0162341 -1.22491e-18)
(0.662339 -0.0170068 3.9076e-18)
(0.648754 -0.0178419 1.17384e-17)
(0.634499 -0.0187472 7.54402e-18)
(0.619517 -0.0197325 5.56143e-18)
(0.603741 -0.0208092 2.34953e-18)
(0.587097 -0.0219905 -2.9431e-18)
(0.569498 -0.0232909 -6.66793e-18)
(0.550847 -0.0247265 -2.29437e-18)
(0.531032 -0.0263145 9.63527e-18)
(0.509928 -0.0280733 7.27524e-18)
(0.487396 -0.0300222 9.01167e-18)
(0.46328 -0.0321811 -3.7462e-19)
(0.437409 -0.0345701 -1.86809e-18)
(0.409597 -0.0372078 -9.14948e-19)
(0.379642 -0.0401104 -2.37624e-18)
(0.347329 -0.0432886 3.1997e-18)
(0.31244 -0.0467448 1.1315e-18)
(0.274755 -0.0504686 1.44185e-18)
(0.234067 -0.0544331 2.98814e-18)
(0.190195 -0.0585889 9.91552e-19)
(0.143012 -0.0628601 -6.05229e-18)
(0.0924479 -0.0671392 2.16279e-19)
(0.038536 -0.0712924 -3.34228e-19)
(-0.018577 -0.0751229 -1.02333e-18)
(-0.0785273 -0.0784063 -3.65021e-18)
(-0.140828 -0.0809669 -5.88552e-18)
(-0.204848 -0.0825362 -8.80366e-18)
(-0.269681 -0.0828985 -1.24775e-17)
(-0.334317 -0.0818789 -1.9611e-17)
(-0.397599 -0.0793626 -1.0016e-17)
(-0.458321 -0.0753303 1.82103e-18)
(-0.515303 -0.0698423 -2.53658e-17)
(-0.567443 -0.0630587 4.46475e-17)
(-0.613821 -0.0552048 -3.89652e-17)
(-0.65371 -0.0465516 -2.11053e-17)
(-0.686619 -0.0373742 4.47684e-18)
(-0.712271 -0.0279518 -8.39071e-17)
(-0.730591 -0.0184951 2.89506e-17)
(-0.741676 -0.00925058 -3.38592e-17)
(-0.745754 -0.000287169 6.39003e-17)
(-0.743126 0.00816733 -1.86407e-17)
(-0.734141 0.0161684 -1.01595e-17)
(-0.719285 0.023605 5.83917e-18)
(-0.698944 0.0304601 3.21839e-17)
(-0.673607 0.0367148 -1.0583e-16)
(-0.643697 0.0423423 -5.64261e-17)
(-0.609734 0.0473161 -8.61654e-17)
(-0.572157 0.0515579 1.30134e-17)
(-0.53163 0.0549899 -4.01317e-17)
(-0.488672 0.0574633 1.69564e-17)
(-0.444262 0.0588806 1.40083e-17)
(-0.398981 0.0590825 7.62926e-17)
(-0.354278 0.0581062 6.36284e-17)
(-0.310404 0.0559192 4.20491e-17)
(-0.269413 0.0528591 1.98318e-17)
(-0.230182 0.0491897 -1.87963e-17)
(-0.195876 0.0453833 1.39868e-18)
(-0.162159 0.0426389 3.77353e-17)
(-0.13441 0.0399979 2.07898e-17)
(-0.103653 0.0419931 -3.14118e-17)
(-0.0763049 0.0403321 -8.61373e-18)
(-0.0459134 0.0436308 -5.52262e-18)
(-0.0100311 0.0285283 -1.64615e-17)
(0.933783 -0.00463365 6.46376e-21)
(0.925758 -0.00481322 -1.32498e-19)
(0.924289 -0.00470491 -1.17702e-19)
(0.917664 -0.00498649 -5.92987e-19)
(0.914834 -0.00489788 -2.34399e-19)
(0.908975 -0.00518261 -2.282e-19)
(0.905201 -0.00516495 -1.14108e-18)
(0.899676 -0.00541823 -6.2636e-19)
(0.895232 -0.00546567 -7.69432e-19)
(0.889774 -0.00568515 -9.40925e-20)
(0.884828 -0.0057779 -1.17465e-18)
(0.879279 -0.00597286 -1.9049e-18)
(0.87393 -0.00609673 -1.43724e-18)
(0.868196 -0.00628146 -9.32738e-19)
(0.862486 -0.00643238 -6.00969e-19)
(0.856497 -0.00662295 -5.04145e-19)
(0.850429 -0.00680371 2.5106e-19)
(0.84412 -0.00701399 1.86405e-18)
(0.837662 -0.00722823 1.2521e-18)
(0.830967 -0.00746608 -2.05661e-20)
(0.824072 -0.00771375 2.18424e-18)
(0.816928 -0.00797996 -9.75465e-19)
(0.809548 -0.00825688 -1.25299e-18)
(0.801903 -0.00854812 -1.16487e-18)
(0.793994 -0.00884976 -5.35061e-19)
(0.785804 -0.00916411 -3.52955e-18)
(0.777328 -0.00949061 6.15292e-20)
(0.76855 -0.00983223 2.34358e-19)
(0.759457 -0.010191 -4.0196e-18)
(0.750032 -0.0105709 1.98148e-18)
(0.740254 -0.0109751 -3.69077e-19)
(0.730098 -0.0114077 -3.42589e-18)
(0.719539 -0.0118719 1.94012e-18)
(0.708544 -0.0123711 -5.72721e-19)
(0.697082 -0.0129084 3.01297e-18)
(0.685117 -0.0134867 4.66324e-18)
(0.672612 -0.0141097 -1.76689e-19)
(0.659524 -0.0147816 3.43232e-18)
(0.645809 -0.0155077 1.06692e-17)
(0.631416 -0.016295 7.31146e-18)
(0.616286 -0.0171519 9.25173e-18)
(0.600353 -0.0180881 3.16628e-18)
(0.583542 -0.0191152 -2.57678e-18)
(0.565765 -0.0202459 -8.1677e-18)
(0.546925 -0.021494 1.49781e-19)
(0.526907 -0.0228745 1.10043e-17)
(0.505588 -0.0244034 6.93975e-18)
(0.482826 -0.0260975 6.85967e-18)
(0.458464 -0.0279742 2.85259e-18)
(0.432331 -0.0300506 -1.73294e-18)
(0.404239 -0.0323431 3.78316e-18)
(0.373986 -0.0348657 -1.75382e-20)
(0.341357 -0.0376276 4.66824e-18)
(0.306133 -0.0406307 1.79827e-18)
(0.268094 -0.0438663 -1.10352e-18)
(0.227035 -0.0473109 4.51177e-18)
(0.182776 -0.0509217 1.96908e-19)
(0.135193 -0.0546331 -5.27516e-18)
(0.084216 -0.0583521 6.65616e-19)
(0.0298859 -0.0619635 -2.14881e-19)
(-0.0276489 -0.0652926 -6.65227e-19)
(-0.0880291 -0.0681544 -3.77045e-18)
(-0.150763 -0.070389 -6.05994e-18)
(-0.215214 -0.0717658 -9.37054e-18)
(-0.280482 -0.0720979 -7.42812e-18)
(-0.345553 -0.071233 -2.33129e-17)
(-0.409274 -0.0690705 -1.46157e-17)
(-0.470439 -0.0655917 -7.33992e-18)
(-0.527866 -0.060847 -4.20158e-17)
(-0.58045 -0.0549731 4.38909e-17)
(-0.627261 -0.0481633 -2.8462e-17)
(-0.667559 -0.0406517 -3.28374e-17)
(-0.700843 -0.0326762 1.5868e-17)
(-0.726818 -0.02448 -7.08929e-17)
(-0.745402 -0.0162463 -1.3688e-18)
(-0.756673 -0.00819101 -2.97345e-17)
(-0.760864 -0.000362169 4.34389e-17)
(-0.758262 0.00699649 4.48433e-19)
(-0.749206 0.0139831 -1.08661e-17)
(-0.734199 0.0204761 -1.94285e-17)
(-0.713619 0.0264636 1.77145e-17)
(-0.687963 0.0319282 -1.15224e-16)
(-0.657658 0.0368458 -6.93149e-17)
(-0.623232 0.0411933 -8.55829e-17)
(-0.585133 0.044903 -1.04326e-17)
(-0.544034 0.0479081 -4.74366e-17)
(-0.500456 0.0500804 2.66372e-17)
(-0.45539 0.0513371 1.04579e-17)
(-0.409401 0.0515402 5.12192e-17)
(-0.363955 0.0507224 4.41573e-17)
(-0.319269 0.0488556 2.99291e-17)
(-0.277425 0.0462273 1.57183e-17)
(-0.237253 0.043075 -2.65514e-17)
(-0.201941 0.0397845 4.36103e-18)
(-0.167155 0.037441 5.39122e-17)
(-0.138133 0.0351438 1.09521e-17)
(-0.106188 0.0369112 -2.03201e-18)
(-0.0771895 0.0355189 -6.55602e-18)
(-0.0454338 0.0381514 -5.80496e-18)
(-0.00964519 0.0250788 -2.4576e-17)
(0.933366 -0.00392957 -5.61582e-20)
(0.925294 -0.00408046 -1.06083e-19)
(0.923817 -0.00399036 -2.38714e-20)
(0.917151 -0.00422754 -5.01373e-19)
(0.914307 -0.0041536 -2.26424e-19)
(0.908408 -0.00439439 -2.63115e-19)
(0.904615 -0.0043799 -1.4586e-18)
(0.899052 -0.00459464 -1.02289e-18)
(0.894582 -0.00463512 -1.30901e-18)
(0.889085 -0.00482146 4.38127e-20)
(0.884107 -0.00490031 -1.203e-18)
(0.878518 -0.00506589 -2.30275e-18)
(0.873132 -0.00517109 -1.32494e-18)
(0.867355 -0.0053279 -1.37998e-18)
(0.861604 -0.00545593 -1.98996e-18)
(0.855571 -0.00561756 -3.40143e-19)
(0.849457 -0.00577077 7.76096e-19)
(0.843102 -0.005949 1.58703e-18)
(0.836596 -0.00613054 -2.70593e-19)
(0.829852 -0.00633212 -1.34286e-18)
(0.822907 -0.00654204 9.59786e-19)
(0.815711 -0.00676775 -7.50637e-19)
(0.808276 -0.0070026 -2.54574e-18)
(0.800575 -0.00724968 -5.16195e-19)
(0.792607 -0.00750564 -6.18542e-19)
(0.784355 -0.00777244 -4.96664e-18)
(0.775814 -0.00804957 1.4736e-18)
(0.766967 -0.00833953 -1.89942e-18)
(0.757803 -0.00864404 -4.003e-18)
(0.748302 -0.00896635 1.05245e-18)
(0.738445 -0.0093093 1.26314e-18)
(0.728208 -0.00967624 -2.58829e-18)
(0.717562 -0.01007 2.14365e-18)
(0.706478 -0.0104935 -4.44921e-19)
(0.694922 -0.0109492 2.48446e-18)
(0.682858 -0.0114398 3.4378e-18)
(0.670249 -0.0119684 5.82632e-19)
(0.657052 -0.0125384 2.00379e-18)
(0.643221 -0.0131546 6.35199e-18)
(0.628704 -0.0138228 8.16455e-18)
(0.613444 -0.0145499 1.03075e-17)
(0.597372 -0.0153445 1.99127e-19)
(0.580413 -0.016216 -1.4321e-18)
(0.562479 -0.0171754 -5.96961e-18)
(0.54347 -0.0182343 1.22112e-18)
(0.523274 -0.0194056 1.36887e-17)
(0.501763 -0.0207027 7.79429e-18)
(0.478797 -0.0221398 5.9383e-18)
(0.454217 -0.0237318 7.14829e-18)
(0.427852 -0.0254933 -2.10829e-18)
(0.399512 -0.027438 9.35128e-18)
(0.368994 -0.0295776 1.90465e-18)
(0.336085 -0.0319202 1.65992e-18)
(0.300563 -0.0344673 2.87619e-18)
(0.262212 -0.0372115 3.41976e-19)
(0.220825 -0.040133 2.7422e-18)
(0.176225 -0.0431957 3.12077e-18)
(0.128289 -0.0463442 -5.21188e-18)
(0.0769492 -0.0494999 1.24143e-18)
(0.0222518 -0.0525656 -1.35452e-19)
(-0.0356532 -0.0553922 -4.45703e-19)
(-0.0964098 -0.0578275 -6.10347e-19)
(-0.159522 -0.0597325 -7.77295e-18)
(-0.22435 -0.0609131 -2.64492e-18)
(-0.289995 -0.0612108 -3.58143e-18)
(-0.355444 -0.0604965 -1.69416e-17)
(-0.419547 -0.0586834 -2.21585e-17)
(-0.481097 -0.0557543 -2.11298e-17)
(-0.53891 -0.0517504 -6.7019e-17)
(-0.591878 -0.0467852 2.15534e-17)
(-0.639063 -0.0410209 -3.17004e-17)
(-0.679715 -0.0346548 -4.93585e-17)
(-0.713321 -0.027888 -1.60988e-17)
(-0.739574 -0.0209272 -7.44364e-17)
(-0.758382 -0.013928 -2.44626e-17)
(-0.769808 -0.0070749 -2.65956e-17)
(-0.774088 -0.000413841 3.38444e-17)
(-0.771499 0.00584656 1.3961e-17)
(-0.762372 0.0118013 -1.6371e-17)
(-0.747221 0.0173367 -4.40601e-17)
(-0.726422 0.0224419 2.62363e-18)
(-0.700476 0.0271021 -1.07874e-16)
(-0.669814 0.0312964 -8.58956e-17)
(-0.634974 0.0350051 -9.36945e-17)
(-0.596408 0.0381711 -2.68706e-17)
(-0.5548 0.0407384 -6.08522e-17)
(-0.510672 0.0425992 9.3263e-18)
(-0.465025 0.0436843 -2.60586e-17)
(-0.418416 0.0438773 4.12203e-17)
(-0.372319 0.0432059 3.19883e-17)
(-0.326928 0.0416468 2.20438e-17)
(-0.284344 0.0394388 1.39052e-17)
(-0.243362 0.036791 -3.93882e-17)
(-0.207182 0.0340095 1.03104e-17)
(-0.171477 0.0320504 5.25303e-17)
(-0.141352 0.0300947 2.03284e-18)
(-0.108383 0.031615 -2.63608e-18)
(-0.0779765 0.0304749 -6.13337e-18)
(-0.0450142 0.0325595 -6.10151e-18)
(-0.00930342 0.0215579 -3.76126e-17)
(0.933013 -0.00322123 -1.19922e-19)
(0.924902 -0.00334394 -2.28118e-19)
(0.923418 -0.00327125 -1.56031e-19)
(0.916717 -0.00346455 -4.44497e-19)
(0.913861 -0.00340472 -2.78695e-19)
(0.907929 -0.00360162 -1.394e-19)
(0.904119 -0.00359005 -1.22729e-18)
(0.898524 -0.00376602 -8.20498e-19)
(0.894031 -0.00379934 -1.43405e-18)
(0.888502 -0.0039522 2.44041e-19)
(0.883497 -0.00401694 -1.12368e-18)
(0.877874 -0.0041528 -1.92267e-18)
(0.872456 -0.00423911 -1.49286e-18)
(0.866643 -0.00436772 -1.9051e-18)
(0.860857 -0.00447267 -2.43303e-18)
(0.854786 -0.00460513 1.0422e-18)
(0.848634 -0.00473063 1.1617e-18)
(0.842239 -0.00487661 1.74992e-18)
(0.835693 -0.00502529 4.33064e-19)
(0.828907 -0.00519039 -9.78025e-19)
(0.821919 -0.00536234 -1.00577e-19)
(0.814678 -0.00554728 -1.17883e-19)
(0.807198 -0.00573975 -1.87234e-18)
(0.799448 -0.00594229 -6.40713e-20)
(0.79143 -0.00615217 -2.32633e-19)
(0.783125 -0.00637096 -4.93734e-18)
(0.774528 -0.00659825 -1.10956e-19)
(0.765623 -0.00683605 -3.70055e-18)
(0.756398 -0.00708577 -1.89311e-18)
(0.746833 -0.00735005 3.11474e-18)
(0.736909 -0.00763122 3.74598e-18)
(0.726601 -0.00793202 -2.44451e-18)
(0.715881 -0.0082548 2.45656e-18)
(0.70472 -0.00860192 3.50514e-18)
(0.693084 -0.0089755 5.90535e-18)
(0.680936 -0.00937775 2.73553e-18)
(0.668238 -0.00981111 1.48139e-18)
(0.654947 -0.0102786 4.70274e-18)
(0.641017 -0.010784 6.81217e-18)
(0.626395 -0.0113319 4.91991e-18)
(0.611022 -0.0119283 8.57599e-18)
(0.594832 -0.0125799 3.10805e-18)
(0.577746 -0.0132948 1.99338e-19)
(0.559676 -0.0140815 -5.03899e-18)
(0.540523 -0.01495 6.05146e-18)
(0.520173 -0.0159105 1.27648e-17)
(0.498499 -0.0169742 1.04027e-17)
(0.475357 -0.0181528 5.65764e-18)
(0.45059 -0.0194585 8.00806e-18)
(0.424025 -0.0209032 2.63766e-18)
(0.395472 -0.0224981 1.09434e-17)
(0.364728 -0.0242531 4.78617e-18)
(0.331578 -0.0261744 4.03721e-18)
(0.295802 -0.0282637 4.81946e-18)
(0.257183 -0.0305148 2.09296e-18)
(0.215516 -0.0329116 1.26793e-18)
(0.170624 -0.0354247 3.89712e-18)
(0.122386 -0.0380089 -3.30512e-18)
(0.0707376 -0.0406 7.01379e-19)
(0.0157272 -0.0431183 -5.028e-20)
(-0.0424928 -0.0454426 -3.333e-19)
(-0.103569 -0.0474485 -1.56091e-18)
(-0.167002 -0.0490215 -1.16311e-17)
(-0.232149 -0.0500029 4.6098e-18)
(-0.298114 -0.0502625 7.62379e-20)
(-0.363885 -0.049694 -2.9786e-17)
(-0.428311 -0.0482252 -1.38926e-17)
(-0.490187 -0.0458407 -1.67729e-17)
(-0.548327 -0.0425729 -7.53217e-17)
(-0.60162 -0.0385131 6.14009e-18)
(-0.64912 -0.0337932 -4.95559e-17)
(-0.690071 -0.0285742 -7.22554e-17)
(-0.723948 -0.0230204 -5.06358e-17)
(-0.750433 -0.0173021 -9.4551e-17)
(-0.769426 -0.0115472 -4.506e-17)
(-0.780979 -0.0059082 -2.32777e-17)
(-0.785331 -0.000423933 -1.35385e-17)
(-0.782744 0.0047211 2.18339e-17)
(-0.773547 0.00963066 -3.1298e-17)
(-0.758265 0.0141947 -7.24159e-17)
(-0.737272 0.018404 -1.57476e-17)
(-0.71107 0.0222467 -8.32247e-17)
(-0.680098 0.0257054 -1.11881e-16)
(-0.644897 0.0287639 -1.10815e-16)
(-0.605926 0.0313758 -3.88807e-17)
(-0.563878 0.0334955 -8.00116e-17)
(-0.519277 0.0350352 1.37147e-18)
(-0.473131 0.0359387 -2.96497e-17)
(-0.425991 0.0361112 4.24254e-17)
(-0.379341 0.0355751 2.34339e-17)
(-0.333353 0.034312 1.72084e-17)
(-0.290146 0.0325137 1.25201e-17)
(-0.248484 0.0303582 -6.03801e-17)
(-0.211575 0.0280798 2.06602e-17)
(-0.175105 0.0264906 6.07613e-17)
(-0.144054 0.024876 -8.99337e-18)
(-0.11023 0.0261342 -3.83375e-18)
(-0.0786539 0.025228 -7.51087e-18)
(-0.044659 0.0268467 -5.9289e-18)
(-0.00900838 0.0179281 -3.21991e-17)
(0.932728 -0.00250932 -1.82896e-19)
(0.924584 -0.00260424 -3.95019e-19)
(0.923094 -0.0025483 -2.73118e-19)
(0.916365 -0.00269815 -4.61717e-19)
(0.9135 -0.00265198 -3.98933e-19)
(0.907541 -0.00280503 -3.88465e-19)
(0.903717 -0.00279615 -1.13902e-18)
(0.898096 -0.00293316 -6.93892e-19)
(0.893585 -0.00295916 -1.11008e-18)
(0.88803 -0.00307826 5.26541e-19)
(0.883002 -0.00312871 -9.25044e-19)
(0.877352 -0.00323458 -1.80523e-18)
(0.871908 -0.0033018 -1.8896e-18)
(0.866066 -0.00340199 -2.54171e-18)
(0.860251 -0.00348368 -2.27956e-18)
(0.854149 -0.00358679 5.94067e-19)
(0.847967 -0.00368444 -2.84761e-20)
(0.841539 -0.00379803 2.33839e-18)
(0.83496 -0.00391369 -3.68326e-19)
(0.82814 -0.00404215 -7.6633e-19)
(0.821117 -0.00417595 -1.27172e-18)
(0.81384 -0.00431988 7.87292e-19)
(0.806322 -0.00446972 -1.5583e-18)
(0.798533 -0.00462743 2.15216e-19)
(0.790474 -0.00479088 9.26092e-19)
(0.782126 -0.0049613 -5.92172e-18)
(0.773484 -0.00513834 -1.50011e-18)
(0.764531 -0.00532358 -2.83048e-18)
(0.755256 -0.00551809 -8.86356e-19)
(0.745638 -0.00572392 1.66443e-18)
(0.735659 -0.00594289 3.97385e-18)
(0.725294 -0.00617714 -2.75107e-18)
(0.714514 -0.00642849 2.50002e-18)
(0.70329 -0.0066988 3.37756e-18)
(0.691588 -0.00698973 6.37133e-18)
(0.679371 -0.00730303 2.93705e-18)
(0.6666 -0.0076406 2.49772e-18)
(0.653233 -0.00800479 7.6372e-18)
(0.639221 -0.00839852 3.73893e-18)
(0.624513 -0.00882549 2.03174e-18)
(0.609049 -0.00929019 3.60379e-18)
(0.592761 -0.00979798 2.21013e-18)
(0.575571 -0.010355 2.67247e-18)
(0.557391 -0.0109681 -5.85694e-18)
(0.538119 -0.0116449 4.9029e-18)
(0.517643 -0.0123935 8.05737e-18)
(0.495834 -0.0132226 9.51818e-18)
(0.472548 -0.0141414 6.59373e-18)
(0.447628 -0.0151593 1.04559e-17)
(0.420899 -0.0162858 7.33517e-18)
(0.392172 -0.0175296 1.45374e-17)
(0.361242 -0.0188983 3.0681e-18)
(0.327895 -0.0203969 6.8576e-18)
(0.291912 -0.0220266 2.32871e-18)
(0.253073 -0.023783 -2.91972e-19)
(0.211177 -0.0256534 -3.32911e-19)
(0.166047 -0.0276152 2.11728e-18)
(0.117564 -0.0296333 -1.89354e-18)
(0.0656626 -0.031658 2.35509e-19)
(0.0103973 -0.0336268 9.85762e-20)
(-0.0480794 -0.0354468 -3.25148e-19)
(-0.109415 -0.0370202 -2.915e-18)
(-0.173109 -0.0382579 -1.18209e-17)
(-0.238516 -0.0390361 5.06191e-18)
(-0.304742 -0.0392532 2.73352e-18)
(-0.370774 -0.0388255 -3.47587e-17)
(-0.435465 -0.0376958 -5.95065e-18)
(-0.497607 -0.0358512 6.30302e-18)
(-0.556014 -0.0333155 -6.95656e-17)
(-0.609573 -0.0301589 -2.83749e-18)
(-0.657332 -0.0264831 -4.78037e-17)
(-0.698525 -0.0224134 -6.98581e-17)
(-0.732623 -0.0180777 -5.24412e-17)
(-0.759295 -0.0136093 -8.64469e-17)
(-0.778437 -0.0091081 -6.52935e-17)
(-0.790089 -0.00469438 -6.95061e-17)
(-0.794495 -0.000394948 -9.70085e-18)
(-0.791906 0.00361901 3.4905e-17)
(-0.782644 0.0074702 -6.26739e-17)
(-0.76725 0.0110494 -6.17727e-17)
(-0.746091 0.0143499 -3.40952e-17)
(-0.719675 0.017363 -8.45109e-17)
(-0.688442 0.020075 -1.10838e-16)
(-0.652941 0.0224733 -9.60157e-17)
(-0.613634 0.0245217 -5.02361e-17)
(-0.571222 0.026185 -1.09479e-16)
(-0.526229 0.0273952 -3.74002e-17)
(-0.479672 0.0281088 -3.60345e-17)
(-0.432096 0.0282523 2.17517e-17)
(-0.384994 0.0278427 1.73004e-17)
(-0.33852 0.0268665 1.4235e-17)
(-0.294809 0.0254702 1.16206e-17)
(-0.252599 0.0237977 -6.47117e-17)
(-0.215105 0.0220189 9.76084e-18)
(-0.178022 0.0207885 5.10837e-17)
(-0.146228 0.0195165 -2.48149e-17)
(-0.11172 0.0205018 -5.15739e-18)
(-0.0792107 0.0198125 -8.78291e-18)
(-0.0443701 0.0210278 -6.91393e-18)
(-0.00876283 0.0141897 -3.40839e-17)
(0.932511 -0.00179456 -2.34235e-19)
(0.924343 -0.00186194 -4.76964e-19)
(0.922849 -0.00182225 -4.16935e-19)
(0.916098 -0.00192894 -5.36083e-19)
(0.913225 -0.00189608 -5.96993e-19)
(0.907246 -0.00200529 -5.78376e-19)
(0.903412 -0.00199893 -1.23651e-18)
(0.897771 -0.00209681 -6.58013e-19)
(0.893247 -0.00211534 -1.21175e-18)
(0.887672 -0.00220046 -1.21982e-20)
(0.882627 -0.00223647 -1.64358e-18)
(0.876956 -0.00231212 -1.75152e-18)
(0.871492 -0.00236011 -2.46535e-18)
(0.865628 -0.00243167 -2.21693e-18)
(0.859792 -0.00248997 -1.4335e-18)
(0.853666 -0.00256358 -2.2211e-20)
(0.84746 -0.00263325 9.52226e-20)
(0.841008 -0.00271432 1.59154e-18)
(0.834404 -0.00279685 -7.89683e-19)
(0.827558 -0.00288853 -5.66966e-19)
(0.820508 -0.00298403 -3.00597e-18)
(0.813204 -0.00308679 1.86322e-18)
(0.805657 -0.00319378 -1.54545e-18)
(0.797838 -0.00330642 3.2448e-19)
(0.789748 -0.00342317 3.05284e-18)
(0.781367 -0.00354493 -4.94961e-18)
(0.772691 -0.00367142 -2.82674e-19)
(0.763701 -0.00380377 -2.55451e-18)
(0.754388 -0.00394274 -5.22189e-19)
(0.744731 -0.0040898 -1.5982e-20)
(0.73471 -0.00424624 5.56369e-18)
(0.7243 -0.00441359 -3.5297e-18)
(0.713475 -0.00459317 2.30244e-18)
(0.702203 -0.00478631 3.38383e-18)
(0.690451 -0.0049942 7.87165e-18)
(0.678181 -0.0052181 -5.07656e-19)
(0.665355 -0.00545939 3.11445e-18)
(0.651928 -0.00571975 7.21451e-18)
(0.637855 -0.00600126 1.91431e-18)
(0.623081 -0.00630658 -7.24993e-19)
(0.607546 -0.00663893 -9.67412e-19)
(0.591184 -0.00700213 1.48888e-18)
(0.573914 -0.0074006 1.40819e-18)
(0.55565 -0.00783927 -8.02239e-18)
(0.536288 -0.00832357 3.47537e-18)
(0.515715 -0.00885939 4.10531e-18)
(0.493803 -0.00945301 1.03187e-17)
(0.470407 -0.0101111 8.194e-18)
(0.44537 -0.0108407 8.87401e-18)
(0.418516 -0.0116485 6.60347e-18)
(0.389655 -0.0125404 1.51582e-17)
(0.358583 -0.0135221 1.43433e-18)
(0.325086 -0.014597 5.56172e-18)
(0.288944 -0.0157663 4.38922e-19)
(0.249938 -0.0170267 -2.98626e-18)
(0.207868 -0.0183693 -2.2051e-18)
(0.162557 -0.0197781 4.1132e-18)
(0.113886 -0.0212281 -7.43218e-19)
(0.0617937 -0.0226837 -2.46915e-19)
(0.00633466 -0.0241003 2.14183e-19)
(-0.052337 -0.0254119 -3.94062e-19)
(-0.11387 -0.0265481 -1.09689e-18)
(-0.177762 -0.0274452 -8.3585e-18)
(-0.243368 -0.0280143 7.32228e-18)
(-0.309793 -0.0281822 4.95746e-18)
(-0.376026 -0.0278885 -3.16159e-17)
(-0.44092 -0.0270915 4.17137e-18)
(-0.503267 -0.0257809 2.94595e-17)
(-0.561881 -0.023973 -5.04349e-17)
(-0.615644 -0.0217173 -8.57788e-18)
(-0.663603 -0.019086 -2.73238e-17)
(-0.704984 -0.0161686 -8.03275e-17)
(-0.73925 -0.0130568 -6.54508e-17)
(-0.766064 -0.00984665 -9.40484e-17)
(-0.785319 -0.00661004 -9.11052e-17)
(-0.797044 -0.00343444 -7.10492e-17)
(-0.801491 -0.000341054 1.02036e-17)
(-0.798896 0.00254121 5.06998e-17)
(-0.789579 0.00532246 -6.91529e-17)
(-0.774094 0.00790346 -5.84983e-17)
(-0.752805 0.0102826 -5.69655e-17)
(-0.72622 0.0124544 -6.00034e-17)
(-0.694783 0.014409 -8.66804e-17)
(-0.659049 0.0161375 -9.00618e-17)
(-0.619481 0.0176138 -6.62615e-17)
(-0.576786 0.0188132 -1.18348e-16)
(-0.531489 0.0196868 -3.04683e-17)
(-0.484615 0.0202038 -7.92743e-18)
(-0.436703 0.0203119 1.28848e-17)
(-0.389254 0.0200227 1.37435e-17)
(-0.342409 0.0193275 1.37189e-17)
(-0.298316 0.0183285 1.0058e-17)
(-0.255693 0.0171332 -5.23071e-17)
(-0.217759 0.0158539 5.90256e-18)
(-0.180217 0.0149747 2.44704e-17)
(-0.147866 0.0140499 -2.00659e-17)
(-0.112844 0.0147553 -6.90702e-18)
(-0.0796374 0.0142688 -1.14799e-17)
(-0.0441486 0.0151229 -7.44287e-18)
(-0.00857041 0.0103367 -4.45189e-17)
(0.932365 -0.00107768 -2.74281e-19)
(0.924181 -0.00111766 -4.76553e-19)
(0.922684 -0.00109385 -6.163e-19)
(0.915919 -0.00115758 -6.67246e-19)
(0.913041 -0.00113775 -8.75651e-19)
(0.907049 -0.00120311 -7.6519e-19)
(0.903207 -0.00119913 -1.50351e-18)
(0.897553 -0.00125774 -6.53062e-19)
(0.893019 -0.00126868 -1.59349e-18)
(0.887431 -0.00131964 -4.24131e-19)
(0.882375 -0.00134107 -2.36032e-18)
(0.87669 -0.00138633 -1.87529e-18)
(0.871213 -0.00141494 -2.0755e-18)
(0.865334 -0.00145771 -2.34416e-18)
(0.859483 -0.00149249 -1.12951e-18)
(0.853341 -0.00153647 -7.77381e-19)
(0.84712 -0.00157806 3.5297e-20)
(0.840651 -0.00162648 1.27912e-18)
(0.83403 -0.00167577 7.65519e-19)
(0.827166 -0.00173055 -6.69856e-22)
(0.820099 -0.00178761 -3.52732e-18)
(0.812776 -0.00184904 1.04175e-18)
(0.80521 -0.00191301 -1.64749e-18)
(0.797371 -0.00198037 -2.02204e-19)
(0.789259 -0.0020502 3.96922e-18)
(0.780857 -0.00212304 -4.69001e-18)
(0.772157 -0.00219872 6.6314e-19)
(0.763143 -0.00227792 3.78895e-19)
(0.753804 -0.00236108 -4.31328e-19)
(0.74412 -0.0024491 8.72321e-19)
(0.73407 -0.00254274 5.20154e-18)
(0.723632 -0.00264294 -1.14519e-18)
(0.712776 -0.00275047 1.70202e-18)
(0.701471 -0.00286616 3.12901e-18)
(0.689685 -0.00299071 7.31529e-18)
(0.677379 -0.0031249 5.96049e-19)
(0.664515 -0.00326955 3.43794e-18)
(0.651049 -0.00342569 8.17399e-18)
(0.636934 -0.00359457 6.89769e-19)
(0.622115 -0.0037778 1.51309e-18)