/*--------------------------------*- C++ -*----------------------------------*\
  =========                 |
  \\      /  F ield         | OpenFOAM: The Open Source CFD Toolbox
   \\    /   O peration     | Website:  https://openfoam.org
    \\  /    A nd           | Version:  7
     \\/     M anipulation  |
\*---------------------------------------------------------------------------*/
FoamFile
{
    version     2.0;
    format      ascii;
    class       surfaceScalarField;
    location    "15";
    object      phi;
}
// * * * * * * * * * * * * * * * * * * * * * * * * * * * * * * * * * * * * * //

dimensions      [0 3 -1 0 0 0 0];

internalField   nonuniform List<scalar> 
203
(
0.00201463
-0.00225633
0.00177853
0.00154716
0.00131972
0.00109547
0.000873732
0.000653892
0.000435358
0.000217573
-0.000273941
0.0022105
-0.00251189
0.0043115
-0.00458544
-0.00026222
0.00193055
0.00404928
-0.000251898
0.00167349
0.00379738
-0.000242388
0.00143897
0.00355499
-0.000233688
0.00122651
0.0033213
-0.000225789
0.00103552
0.00309551
-0.000218663
0.000865338
0.00287685
-0.000212275
0.000715203
0.00266458
-0.000206602
0.000584259
0.00245798
-0.000201649
-0.00108327
0.0196373
-0.0194994
-0.00116084
0.0202603
-0.0201827
-0.00101789
0.0199235
-0.0200665
0.0127981
-0.013816
-0.00106618
0.0197672
-0.00112623
0.0203203
-0.000959419
0.0197567
0.0118387
-0.00104946
0.019889
-0.00109291
0.0203638
-0.00089745
0.0195612
0.0109412
-0.00103245
0.0200027
-0.00106041
0.0203918
-0.000838654
0.0193395
0.0101026
-0.00101452
0.0201077
-0.00102726
0.0204045
-0.000782916
0.0190951
0.00931966
-0.000899902
0.0197764
-0.000995711
0.0202035
-0.000993184
0.020402
-0.000728523
0.0188305
0.00859114
-0.000889905
0.0198895
-0.000976197
0.0202898
-0.000958416
0.0203842
-0.00067524
0.0185473
0.0079159
-0.00087958
0.0199982
-0.000956023
0.0203662
-0.000922992
0.0203512
-0.000623186
0.0182475
0.00729272
-0.000868966
0.0201023
-0.000935322
0.0204326
-0.000886921
0.0203028
-0.000572609
0.0179332
0.00672011
-0.000857465
0.0202011
-0.000912572
0.0204877
-0.000848798
0.020239
-0.000528032
0.0176124
0.00619207
-0.000623724
0.0189963
-0.000720302
0.0199355
-0.000739661
0.020537
0.0185263
-0.000609318
0.0190728
-0.000689254
0.0200154
-0.000689793
0.0205375
0.0178365
-0.000594855
0.0191446
-0.000659424
0.02008
-0.000642715
0.0205208
0.0171938
-0.000580091
0.0192116
-0.000630828
0.0201307
-0.000599106
0.0204891
0.0165947
-0.000564859
0.0192735
-0.000602787
0.0201686
-0.000557915
0.0204442
0.0160368
-0.0005492
0.01933
-0.000574937
0.0201944
-0.000518346
0.0203876
0.0155184
-0.000533215
0.019381
-0.000547187
0.0202083
-0.000480066
0.0203205
0.0150384
-0.000517
0.0194262
-0.000519538
0.0202109
-0.000442908
0.0202439
0.0145955
-0.000500513
0.0194656
-0.00049162
0.020202
-0.00040655
0.0201588
0.0141889
-0.000484542
-0.000465265
-0.000372912
-0.0187553
0.00473065
-0.0106855
-0.0179552
0.00595686
-0.00815302
-0.0159546
0.0069044
-0.00386862
-0.0114805
0.00649505
0.00226326
-0.0038699
)
;

boundaryField
{
    inlet
    {
        type            calculated;
        value           nonuniform 0();
    }
    outlet
    {
        type            calculated;
        value           nonuniform 0();
    }
    polygon
    {
        type            calculated;
        value           uniform 0;
    }
    top
    {
        type            symmetryPlane;
        value           uniform 0;
    }
    bottom
    {
        type            symmetryPlane;
        value           uniform 0;
    }
    outside
    {
        type            calculated;
        value           nonuniform 0();
    }
    procBoundary10to6
    {
        type            processor;
        value           uniform 3.0645e-11;
    }
    procBoundary10to9
    {
        type            processor;
        value           nonuniform List<scalar> 4(-0.018915 -0.0198389 -0.0205176 -0.019266);
    }
    procBoundary10to11
    {
        type            processor;
        value           nonuniform List<scalar> 
16
(
0.000241697
0.00047155
0.000236097
0.00023137
0.000227445
0.000224252
0.000221734
0.00021984
0.000218533
0.000217785
0.000217573
0.000416778
0.000388842
0.00036241
0.000337546
0.000314358
)
;
    }
    procBoundary10to14
    {
        type            processor;
        value           nonuniform List<scalar> 
23
(
0.00094534
0.000936304
0.000927595
0.000918774
0.000909546
-0.0196591
0.00078259
0.000776801
0.000770902
0.000764909
0.000758673
0.000542495
0.000532807
0.000523032
0.000513103
0.000502972
0.000492667
0.000482236
0.000471727
0.000461152
0.000450797
-0.00347691
0.0121313
)
;
    }
    procBoundary10to15
    {
        type            processor;
        value           nonuniform List<scalar> 10(0.000575337 0.000542169 0.000508954 0.000476906 0.000446155 0.0175016 0.016729 0.015007 0.0118899 0.00785306);
    }
}


// ************************************************************************* //
