/*--------------------------------*- C++ -*----------------------------------*\
  =========                 |
  \\      /  F ield         | OpenFOAM: The Open Source CFD Toolbox
   \\    /   O peration     | Website:  https://openfoam.org
    \\  /    A nd           | Version:  7
     \\/     M anipulation  |
\*---------------------------------------------------------------------------*/
FoamFile
{
    version     2.0;
    format      ascii;
    class       surfaceScalarField;
    location    "82";
    object      phi;
}
// * * * * * * * * * * * * * * * * * * * * * * * * * * * * * * * * * * * * * //

dimensions      [0 3 -1 0 0 0 0];

internalField   nonuniform List<scalar> 
465
(
0.00522925
-0.00672272
0.00524114
-0.00671364
0.00525016
-0.00669622
0.00525349
-0.00666986
0.00524809
-0.00663293
0.00523049
-0.00658344
0.00519634
-0.0065183
0.00513997
-0.00643263
0.00505417
-0.00631964
-0.00617127
0.0052269
-0.00674767
0.00524997
-0.00673671
0.00526995
-0.00671619
0.00528435
-0.00668426
0.00529026
-0.00663884
0.00528393
-0.00657712
0.00525999
-0.00649437
0.0052109
-0.00638353
0.00512703
-0.00623577
-0.00604165
0.00521481
-0.00677962
0.00524123
-0.00676314
0.00525997
-0.00673493
0.00526827
-0.00669256
0.00526282
-0.00663339
0.00523906
-0.00655336
0.00519052
-0.00644582
0.00510876
-0.00630178
0.00498419
-0.0061112
-0.00586487
0.00520325
-0.00682662
0.00524767
-0.00680756
0.00528856
-0.00677582
0.00532375
-0.00672775
0.00534977
-0.00665941
0.00536107
-0.00656466
0.00534937
-0.00643412
0.00530409
-0.00625649
0.00521364
-0.00602076
-0.00571833
0.00517003
-0.00688616
0.00522396
-0.00686149
0.00527093
-0.00682278
0.00530759
-0.00676441
0.00532906
-0.00668088
0.00532771
-0.00656331
0.00529318
-0.00639959
0.00521374
-0.00617705
0.00507835
-0.00588537
-0.0055186
0.00513314
-0.00696523
0.00520982
-0.00693817
0.00528371
-0.00689667
0.00535135
-0.00683205
0.00540655
-0.00673608
0.0054393
-0.00659606
0.00543673
-0.00639701
0.00538539
-0.00612572
0.00527374
-0.00577372
-0.00533873
0.00506224
-0.00706201
0.00515527
-0.00703121
0.0052436
-0.006985
0.00532161
-0.00691006
0.00538004
-0.00679451
0.0054057
-0.00662173
0.00538387
-0.00637518
0.00530151
-0.00604335
0.00514979
-0.005622
-0.0051141
0.00497626
-0.0071805
0.00509381
-0.00714875
0.00520884
-0.00710003
0.00531362
-0.00701484
0.00539556
-0.00687645
0.0054385
-0.00666466
0.00542642
-0.0063631
0.00534713
-0.00596407
0.00519417
-0.00546904
-0.00488676
0.00484927
-0.00731897
0.00498671
-0.00728619
0.00511919
-0.00723251
0.00523491
-0.00713056
0.00531713
-0.00695868
0.00534755
-0.00669508
0.00531118
-0.00632673
0.00519968
-0.00585257
0.00501194
-0.0052813
-0.00462751
0.00469618
-0.00747794
0.00485542
-0.00744543
0.0050076
-0.00738469
0.00513648
-0.00725944
0.00522186
-0.00704406
0.00524482
-0.00671804
0.00519305
-0.00627496
0.00506268
-0.0057222
0.00485714
-0.00507576
-0.00435497
0.00450014
-0.00765429
0.0046757
-0.00762099
0.00483795
-0.00754693
0.00496569
-0.00738718
0.00503661
-0.00711498
0.00503377
-0.00671521
0.00495023
-0.00619142
0.00478859
-0.00556056
0.00455804
-0.0048452
-0.00406761
0.00427391
-0.00784522
0.00446227
-0.00780935
0.0046293
-0.00771396
0.00474983
-0.00750771
0.00480166
-0.00716681
0.00477225
-0.00668579
0.00466094
-0.00608012
0.00447609
-0.0053757
0.00423065
-0.00459977
-0.0037753
0.00401027
-0.00804563
0.00420383
-0.00800292
0.00436526
-0.0078754
0.00446719
-0.00760963
0.0044903
-0.00718992
0.00442861
-0.00662411
0.00428857
-0.00594007
0.0040838
-0.00517094
0.0038301
-0.00434607
-0.00348682
0.00372236
-0.00825051
0.00391464
-0.0081952
0.00406329
-0.00802404
0.00414111
-0.00768745
0.00413397
-0.00718279
0.00404314
-0.00653327
0.00388107
-0.00577801
0.00366488
-0.00495475
0.0034112
-0.00409239
-0.0032089
0.00341099
-0.00845406
0.00359459
-0.0083788
0.00372319
-0.00815264
0.0037723
-0.00773657
0.0037346
-0.00714508
0.00361849
-0.00641717
0.00344123
-0.00560075
0.00322179
-0.00473531
0.00297625
-0.00384684
-0.00294868
0.00308967
-0.00865133
0.00325911
-0.00854824
0.00336386
-0.00825739
0.00338406
-0.00775677
0.0033196
-0.00708063
0.00318485
-0.00628241
0.00299997
-0.00541586
0.00278412
-0.00451946
0.00255184
-0.00361457
-0.00270928
0.00276339
-0.008838
0.00291436
-0.00869921
0.00299329
-0.00833632
0.00298615
-0.00774963
0.00289973
-0.00699421
0.00275282
-0.0061355
0.002567
-0.00523004
0.00236038
-0.00431284
0.00214543
-0.00339962
-0.00249305
0.00244336
-0.00901115
0.00257367
-0.00882951
0.00262726
-0.00838991
0.00259623
-0.00771861
0.0024933
-0.00689128
0.00234001
-0.0059822
0.00215803
-0.00504806
0.00196369
-0.0041185
0.00176729
-0.00320321
-0.00229969
0.00213395
-0.00916902
0.00224284
-0.00893841
0.00227279
-0.00841985
0.00222181
-0.00766763
0.00210734
-0.00677681
0.00195226
-0.00582711
0.00177735
-0.00487315
0.00159696
-0.00393811
0.0014193
-0.00302555
-0.00212819
0.00184154
-0.00931112
0.00192964
-0.00902651
0.00193858
-0.00842879
0.00187161
-0.00760066
0.0017497
-0.0066549
0.00159584
-0.00567326
0.00142954
-0.00470685
0.00126309
-0.00377165
0.00110295
-0.00286542
-0.00197653
0.00156703
-0.00943791
0.00163579
-0.00909527
0.0016267
-0.0084197
0.00154741
-0.00752137
0.00142138
-0.00652887
0.0012708
-0.00552269
0.0011137
-0.00454975
0.000960441
-0.00361839
0.000816158
-0.00272113
-0.00184248
0.00131146
-0.00955061
0.00136293
-0.00914674
0.00133895
-0.00839572
0.00125063
-0.00743306
0.00112302
-0.00640127
0.000976778
-0.00537644
0.000828626
-0.00440159
0.000687086
-0.00347685
0.000556599
-0.00259065
-0.00172366
0.00107198
-0.00965094
0.00110866
-0.00918342
0.00107305
-0.00836011
0.000978842
-0.00733885
0.000851823
-0.00627425
0.000710618
-0.00523523
0.000570916
-0.00426189
0.000439582
-0.00334552
0.000320931
-0.002472
-0.00161786
0.000845528
-0.00974106
0.000870278
-0.00920817
0.000826363
-0.0083162
0.000729383
-0.00724187
0.000604854
-0.00614972
0.000469311
-0.00509969
0.000337374
-0.00412996
0.000214906
-0.00322305
0.000106286
-0.00236338
-0.00152324
0.000626158
0.000642429
0.000593852
0.000497751
0.000377809
0.000249051
0.00012431
1.02146e-05
-9.02488e-05
)
;

boundaryField
{
    inlet
    {
        type            calculated;
        value           nonuniform 0();
    }
    outlet
    {
        type            calculated;
        value           nonuniform List<scalar> 10(0.00671012 0.00670175 0.0066872 0.00666653 0.00663833 0.00660104 0.00655245 0.006489 0.00640544 0.0062951);
    }
    polygon
    {
        type            calculated;
        value           nonuniform 0();
    }
    top
    {
        type            symmetryPlane;
        value           uniform 0;
    }
    bottom
    {
        type            symmetryPlane;
        value           uniform 0;
    }
    outside
    {
        type            calculated;
        value           nonuniform List<scalar> 
25
(
-0.00521665
-0.00520195
-0.00518286
-0.00515625
-0.00511049
-0.00505406
-0.00496546
-0.00485777
-0.0047108
-0.00453721
-0.00432379
-0.00408298
-0.00380985
-0.00351749
-0.00320744
-0.00289241
-0.00257672
-0.00227022
-0.00197608
-0.00169943
-0.00144024
-0.00119877
-0.000971644
-0.000755406
-0.000543702
)
;
    }
    procBoundary3to2
    {
        type            processor;
        value           nonuniform List<scalar> 10(-0.00982352 -0.00922444 -0.00826762 -0.00714577 -0.00602978 -0.00497093 -0.00400522 -0.00310896 -0.00226291 -0.00143831);
    }
    procBoundary3to7
    {
        type            processor;
        value           nonuniform List<scalar> 
25
(
0.00493034
0.00499741
0.00480742
0.00506711
0.00487861
0.00509388
0.00492516
0.00496682
0.00475269
0.0045846
0.00427068
0.00393834
0.00354162
0.00313328
0.00271603
0.00231244
0.0019292
0.00157392
0.0012478
0.000951294
0.000682111
0.000437778
0.000215127
1.16676e-05
-0.000175183
)
;
    }
}


// ************************************************************************* //
