/*--------------------------------*- C++ -*----------------------------------*\
  =========                 |
  \\      /  F ield         | OpenFOAM: The Open Source CFD Toolbox
   \\    /   O peration     | Website:  https://openfoam.org
    \\  /    A nd           | Version:  7
     \\/     M anipulation  |
\*---------------------------------------------------------------------------*/
FoamFile
{
    version     2.0;
    format      ascii;
    class       volVectorField;
    location    "84";
    object      U;
}
// * * * * * * * * * * * * * * * * * * * * * * * * * * * * * * * * * * * * * //

dimensions      [0 1 -1 0 0 0 0];

internalField   nonuniform List<vector> 
125
(
(1.34358 -0.215064 -3.21284e-19)
(1.33816 -0.218343 -3.84552e-19)
(1.33161 -0.221859 -6.19959e-19)
(1.32384 -0.225679 -5.94305e-19)
(1.31447 -0.22991 -6.71303e-19)
(1.30277 -0.234493 -5.62576e-19)
(1.34638 -0.190775 -2.90111e-20)
(1.35033 -0.19251 2.35042e-19)
(1.35332 -0.194207 -1.30211e-19)
(1.3554 -0.195887 -3.81948e-19)
(1.35659 -0.197571 -2.10841e-19)
(1.35693 -0.199284 -7.60997e-20)
(1.35644 -0.201047 -2.96999e-19)
(1.35515 -0.202886 -2.44439e-19)
(1.35305 -0.204822 1.44397e-20)
(1.35012 -0.206881 -2.01987e-19)
(1.34634 -0.209084 -1.79308e-19)
(1.34163 -0.211442 -1.8267e-19)
(1.33595 -0.213954 -1.82613e-19)
(1.32922 -0.216619 -1.07129e-19)
(1.32131 -0.219467 -1.60825e-19)
(1.31184 -0.222534 -1.15664e-19)
(1.30031 -0.225677 -5.17908e-20)
(1.35535 -0.192839 -2.39302e-19)
(1.35711 -0.194013 8.27521e-21)
(1.35823 -0.195176 1.2678e-19)
(1.35873 -0.196344 -2.58661e-19)
(1.35863 -0.197534 -1.55914e-19)
(1.35793 -0.198765 -5.6392e-20)
(1.35664 -0.200051 2.27187e-19)
(1.35474 -0.201406 -2.54033e-19)
(1.3522 -0.202843 -8.39145e-20)
(1.34897 -0.204372 6.80576e-20)
(1.34498 -0.206001 1.37229e-19)
(1.34016 -0.207723 2.43493e-19)
(1.33441 -0.209522 5.77611e-19)
(1.32764 -0.211382 9.74518e-19)
(1.31968 -0.213304 1.81284e-18)
(1.31023 -0.215271 3.15493e-18)
(1.29895 -0.217102 5.51855e-18)
(1.35894 -0.193732 -3.24725e-19)
(1.35959 -0.194535 -3.56496e-20)
(1.3598 -0.195339 -9.88179e-20)
(1.35958 -0.196156 -5.6849e-20)
(1.35892 -0.196995 -4.12331e-19)
(1.35781 -0.197866 -9.07685e-20)
(1.35621 -0.198775 1.71729e-20)
(1.3541 -0.199727 1.76571e-20)
(1.35142 -0.200724 2.15306e-19)
(1.3481 -0.201765 1.05353e-19)
(1.34406 -0.202844 3.20368e-19)
(1.33921 -0.203944 3.03206e-19)
(1.33347 -0.205037 8.66901e-19)
(1.32671 -0.206096 1.1473e-18)
(1.31877 -0.207099 1.72321e-18)
(1.30941 -0.207991 2.4028e-18)
(1.29843 -0.208577 3.08338e-18)
(1.36014 -0.194065 -4.57537e-19)
(1.36028 -0.194616 -2.60175e-19)
(1.36011 -0.195166 -3.79214e-19)
(1.35961 -0.19572 -7.89146e-19)
(1.35874 -0.196282 -1.11897e-18)
(1.35749 -0.196854 -2.03715e-18)
(1.3558 -0.197434 -3.31375e-18)
(1.35364 -0.19802 -5.79709e-18)
(1.35093 -0.198608 2.80717e-18)
(1.3476 -0.199187 -9.98361e-19)
(1.34357 -0.199744 7.70022e-19)
(1.33876 -0.200255 -1.52673e-20)
(1.33306 -0.200687 6.68562e-19)
(1.32637 -0.201009 4.31362e-19)
(1.31854 -0.201191 4.74869e-19)
(1.30937 -0.201157 2.28049e-19)
(1.29876 -0.200716 -3.10438e-19)
(1.36042 -0.194135 -2.07126e-19)
(1.36037 -0.194491 -4.9205e-20)
(1.36006 -0.194831 -2.19303e-19)
(1.35946 -0.195155 -7.02023e-19)
(1.35854 -0.195461 -7.9932e-19)
(1.35725 -0.195743 -9.5727e-19)
(1.35555 -0.195996 -1.10421e-18)
(1.35339 -0.196211 -5.64259e-19)
(1.35069 -0.196375 9.94858e-19)
(1.34739 -0.196472 -5.57211e-19)
(1.3434 -0.19648 4.22588e-19)
(1.33864 -0.196368 5.97174e-21)
(1.33301 -0.196096 3.59127e-19)
(1.32642 -0.195626 1.83665e-19)
(1.31871 -0.194909 3.09326e-19)
(1.30976 -0.193846 3.09716e-19)
(1.29954 -0.192236 6.07276e-19)
(1.36039 -0.194215 1.41055e-20)
(1.36028 -0.194424 8.52535e-20)
(1.35993 -0.194602 1.32556e-19)
(1.35932 -0.194744 -2.75799e-19)
(1.3584 -0.194844 -4.08055e-19)
(1.35712 -0.194893 -1.33114e-19)
(1.35545 -0.194883 -1.37273e-19)
(1.35332 -0.194801 -6.33116e-20)
(1.35066 -0.194631 2.20215e-19)
(1.34741 -0.194354 -6.90122e-20)
(1.3435 -0.193943 2.26525e-19)
(1.33884 -0.193365 6.95772e-20)
(1.33335 -0.19258 3.30981e-19)
(1.32693 -0.191547 2.61707e-19)
(1.31946 -0.190222 5.52347e-19)
(1.31086 -0.188536 7.67647e-19)
(1.30112 -0.186337 1.32803e-18)
(1.3602 -0.194015 1.25706e-19)
(1.36006 -0.194001 -8.51058e-21)
(1.35969 -0.193924 -1.4915e-20)
(1.35907 -0.193772 -4.97351e-19)
(1.35814 -0.193535 -8.44792e-20)
(1.35686 -0.193198 1.09187e-19)
(1.35518 -0.192746 7.7822e-20)
(1.35305 -0.192158 1.06715e-19)
(1.35039 -0.191411 9.23467e-21)
(1.34715 -0.190479 1.11479e-19)
(1.34326 -0.189328 1.7042e-19)
(1.33863 -0.187921 4.2015e-20)
(1.33318 -0.186216 3.74792e-19)
(1.3268 -0.184168 4.26944e-19)
(1.31938 -0.181732 6.67991e-19)
(1.31085 -0.178859 9.05347e-19)
(1.30137 -0.175454 1.22784e-18)
)
;

boundaryField
{
    inlet
    {
        type            uniformFixedValue;
        uniformValue    constant (1 0 0);
        value           nonuniform 0();
    }
    outlet
    {
        type            pressureInletOutletVelocity;
        value           nonuniform 0();
    }
    polygon
    {
        type            fixedValue;
        value           nonuniform 0();
    }
    top
    {
        type            symmetryPlane;
    }
    bottom
    {
        type            symmetryPlane;
    }
    outside
    {
        type            zeroGradient;
    }
    procBoundary2to1
    {
        type            processor;
        value           nonuniform List<vector> 5((1.29482 -0.172692 1.55522e-18) (1.29401 -0.184373 1.67774e-18) (1.29219 -0.19069 8.62714e-19) (1.29096 -0.19996 -1.14945e-18) (1.29026 -0.208518 3.33447e-18));
    }
    procBoundary2to3
    {
        type            processor;
        value           nonuniform List<vector> 7((1.34145 -0.188984 -3.10917e-19) (1.35292 -0.191636 -2.86277e-19) (1.35785 -0.192918 5.61308e-20) (1.35969 -0.193508 3.69142e-19) (1.36023 -0.193765 1.87363e-19) (1.36029 -0.193979 -1.32686e-19) (1.36014 -0.193974 6.02998e-20));
    }
    procBoundary2to9
    {
        type            processor;
        value           nonuniform List<vector> 3((1.29036 -0.217896 8.12771e-18) (1.2913 -0.227394 5.97453e-23) (1.29329 -0.237271 -2.45698e-19));
    }
    procBoundary2to10
    {
        type            processor;
        value           nonuniform List<vector> 
18
(
(1.34522 -0.218296 -9.19965e-19)
(1.3407 -0.222478 -8.48873e-19)
(1.33476 -0.226946 -1.19436e-18)
(1.32743 -0.231813 -1.1913e-18)
(1.31838 -0.237271 -1.82357e-18)
(1.30666 -0.243395 -2.6235e-18)
(1.32686 -0.186577 -4.38988e-19)
(1.33457 -0.189124 -5.57692e-19)
(1.34096 -0.191609 -5.71381e-19)
(1.34604 -0.19405 -3.51022e-19)
(1.34986 -0.196466 -3.04501e-19)
(1.35243 -0.198883 -6.51479e-19)
(1.35379 -0.201328 -5.27827e-19)
(1.35398 -0.203827 -5.73112e-19)
(1.35305 -0.206415 -2.36049e-19)
(1.351 -0.209126 -4.98352e-19)
(1.34785 -0.211999 -4.53573e-19)
(1.34785 -0.211999 -4.53573e-19)
)
;
    }
}


// ************************************************************************* //
