/*--------------------------------*- C++ -*----------------------------------*\
  =========                 |
  \\      /  F ield         | OpenFOAM: The Open Source CFD Toolbox
   \\    /   O peration     | Website:  https://openfoam.org
    \\  /    A nd           | Version:  7
     \\/     M anipulation  |
\*---------------------------------------------------------------------------*/
FoamFile
{
    version     2.0;
    format      ascii;
    class       surfaceScalarField;
    location    "64";
    object      phi;
}
// * * * * * * * * * * * * * * * * * * * * * * * * * * * * * * * * * * * * * //

dimensions      [0 3 -1 0 0 0 0];

internalField   nonuniform List<scalar> 
15760
(
0.00111538
2.37861e-07
-3.52554e-07
0.00111565
5.00383e-07
-7.64102e-07
0.00111597
1.36994e-07
-4.56176e-07
0.00111618
-1.32835e-06
1.11467e-06
0.00111611
-4.14623e-06
4.21595e-06
0.00111559
-8.34998e-06
8.86449e-06
0.0011145
-1.38594e-05
1.49546e-05
0.00111271
-2.05297e-05
2.23156e-05
0.00111015
-2.81798e-05
3.07418e-05
0.00110675
-3.66148e-05
4.00155e-05
0.00110247
-4.56399e-05
4.99217e-05
0.00109728
-5.5068e-05
6.02558e-05
0.00109118
-6.47242e-05
7.08276e-05
0.00108416
-7.44474e-05
8.14625e-05
0.00107625
-8.40904e-05
9.20011e-05
0.00106747
-9.35189e-05
0.000102298
0.00105786
-0.000102611
0.000112222
0.00104746
-0.000111255
0.000121653
0.00103633
-0.00011935
0.00013048
0.00102453
-0.000126805
0.000138605
0.00101213
-0.00013354
0.00014594
0.000999209
-0.000139484
0.000152409
0.000985837
-0.000144578
0.000157949
0.000972103
-0.000148776
0.000162511
0.000958091
-0.000152048
0.00016606
0.000943888
-0.000154377
0.000168581
0.000929576
-0.000155763
0.000170075
0.000915239
-0.000156223
0.00017056
0.000900954
-0.000155788
0.000170073
0.000886795
-0.000154505
0.000168665
0.000872828
-0.000152434
0.000166401
0.000859115
-0.000149643
0.000163356
0.000845711
-0.000146208
0.000159613
0.000832662
-0.00014221
0.000155259
0.000820008
-0.000137731
0.000150384
0.000807785
-0.000132851
0.000145074
0.00079602
-0.000127647
0.000139412
0.000784736
-0.00012219
0.000133474
0.000773952
-0.000116542
0.000127326
0.000763683
-0.000110752
0.000121022
0.000753941
-0.00010486
0.000114603
0.000744735
-9.88925e-05
0.000108098
0.000736074
-9.28668e-05
0.000101528
0.000727961
-8.67896e-05
9.49029e-05
0.000720393
-8.06631e-05
8.82312e-05
0.000713363
-7.4497e-05
8.15268e-05
0.000706857
-6.83101e-05
7.48155e-05
0.000700854
-6.21346e-05
6.81377e-05
0.000695323
-5.60168e-05
6.15482e-05
0.000690224
-5.00166e-05
5.51158e-05
0.00068551
-4.42051e-05
4.89193e-05
0.000681127
-3.86587e-05
4.30419e-05
0.000677016
-3.34536e-05
3.75643e-05
0.000673116
-2.86591e-05
3.25586e-05
0.000669367
-2.43327e-05
2.80823e-05
0.000665707
-2.05156e-05
2.41751e-05
0.000662081
-1.72309e-05
2.08567e-05
0.000658437
-1.44835e-05
1.81277e-05
0.000654727
-1.2262e-05
1.59716e-05
0.00065091
-1.0542e-05
1.43592e-05
0.000646948
-9.2901e-06
1.32522e-05
0.000642809
-8.4731e-06
1.26125e-05
0.000638463
-8.04967e-06
1.23952e-05
0.000633885
-7.9789e-06
1.25574e-05
0.000629048
-8.22564e-06
1.30627e-05
0.000623927
-8.76444e-06
1.3885e-05
0.000618498
-9.57523e-06
1.50042e-05
0.000612735
-1.06449e-05
1.64085e-05
0.000606608
-1.1969e-05
1.80954e-05
0.000600091
-1.35574e-05
2.00751e-05
0.00059315
-1.54186e-05
2.23594e-05
0.000585752
-1.75777e-05
2.49752e-05
0.000577861
-2.006e-05
2.79509e-05
0.000569437
-2.28997e-05
3.13239e-05
0.000560436
-2.61382e-05
3.51395e-05
0.000550809
-2.98266e-05
3.94529e-05
0.000540506
-3.40258e-05
4.43294e-05
0.000529467
-3.88088e-05
4.98473e-05
0.000517631
-4.42609e-05
5.60973e-05
0.000504927
-5.0485e-05
6.31889e-05
0.000491279
-5.76044e-05
7.12523e-05
0.000476603
-6.57683e-05
8.04449e-05
0.000460804
-7.51586e-05
9.09571e-05
0.000443781
-8.59998e-05
0.000103023
0.000425421
-9.857e-05
0.00011693
0.000405603
-0.000113222
0.00013304
0.000384198
-0.000130392
0.000151797
0.000361068
-0.00015069
0.00017382
0.000336089
-0.000174816
0.000199794
0.000309156
-0.000203811
0.000230744
0.00028022
-0.000238884
0.000267821
0.000249313
-0.000282001
0.000312907
0.000216798
-0.000335032
0.000367547
0.000182911
-0.000401758
0.000435645
0.000150041
-0.000485269
0.00051814
0.000117911
-0.00058568
0.000617809
9.50684e-05
-0.000718136
0.000740979
7.35954e-05
-0.000812368
0.000833841
5.051e-05
-0.000956942
0.000980028
-0.000558965
0.000609475
0.00116898
1.58557e-07
0.00116917
3.10078e-07
0.00116939
-8.09037e-08
0.00116949
-1.42705e-06
0.0011693
-3.95482e-06
0.00116866
-7.70775e-06
0.00116742
-1.26263e-05
0.00116548
-1.85891e-05
0.00116274
-2.54393e-05
0.00115913
-3.30049e-05
0.0011546
-4.11119e-05
0.00114913
-4.95921e-05
0.00114269
-5.82872e-05
0.0011353
-6.70508e-05
0.00112695
-7.5749e-05
0.00111769
-8.42595e-05
0.00110755
-9.2471e-05
0.00109658
-0.000100282
0.00108483
-0.000107601
0.00107237
-0.000114346
0.00105928
-0.000120442
0.00104562
-0.000125826
0.00103149
-0.000130445
0.00101697
-0.000134257
0.00100215
-0.000137231
0.000987126
-0.000139354
0.000971987
-0.000140624
0.000956819
-0.000141055
0.000941706
-0.000140675
0.000926728
-0.000139527
0.000911956
-0.000137662
0.000897456
-0.000135143
0.000883288
-0.00013204
0.000869502
-0.000128424
0.000856142
-0.000124371
0.000843245
-0.000119954
0.000830841
-0.000115243
0.000818955
-0.000110304
0.000807605
-0.000105192
0.000796808
-9.9955e-05
0.000786575
-9.46277e-05
0.000776917
-8.92347e-05
0.000767843
-8.37921e-05
0.000759356
-7.83031e-05
0.000751458
-7.27654e-05
0.000744147
-6.7185e-05
0.000737412
-6.15753e-05
0.000731238
-5.5961e-05
0.000725602
-5.03803e-05
0.00072047
-4.48847e-05
0.000715801
-3.95368e-05
0.000711548
-3.44057e-05
0.000707656
-2.95616e-05
0.000704067
-2.50698e-05
0.00070072
-2.09858e-05
0.000697555
-1.73509e-05
0.000694515
-1.41902e-05
0.000691543
-1.1512e-05
0.00068859
-9.30904e-06
0.00068561
-7.56147e-06
0.00068256
-6.24035e-06
0.000679406
-5.31885e-06
0.000676115
-4.75917e-06
0.000672658
-4.52168e-06
0.000669006
-4.57328e-06
0.000665132
-4.89101e-06
0.000661012
-5.45545e-06
0.00065662
-6.25241e-06
0.000651927
-7.27655e-06
0.000646906
-8.53572e-06
0.000641523
-1.00356e-05
0.000635746
-1.18008e-05
0.000629539
-1.38529e-05
0.000622861
-1.62224e-05
0.00061567
-1.89464e-05
0.000607914
-2.20714e-05
0.000599542
-2.56532e-05
0.000590492
-2.97586e-05
0.000580697
-3.44662e-05
0.000570083
-3.98709e-05
0.000558565
-4.60866e-05
0.000546049
-5.32522e-05
0.000532427
-6.15371e-05
0.000517579
-7.11517e-05
0.000501367
-8.23579e-05
0.000483636
-9.54904e-05
0.00046421
-0.000110966
0.000442888
-0.000129368
0.000419456
-0.000151384
0.000393678
-0.000178032
0.000365327
-0.000210533
0.000334159
-0.000250833
0.000300158
-0.000301031
0.000263024
-0.000364624
0.000224012
-0.000446258
0.000182335
-0.000544003
0.000142428
-0.000678229
9.97807e-05
-0.00076972
4.1033e-05
-0.000898195
-0.000517932
0.00121721
1.03961e-07
0.00121734
1.7684e-07
0.00121748
-2.17531e-07
0.00121748
-1.42998e-06
0.00121718
-3.66035e-06
0.00121643
-6.95666e-06
0.00121508
-1.12757e-05
0.00121301
-1.65172e-05
0.00121012
-2.25475e-05
0.00120633
-2.92173e-05
0.00120159
-3.63742e-05
0.00119587
-4.38696e-05
0.00118915
-5.15629e-05
0.00118142
-5.9324e-05
0.0011727
-6.70329e-05
0.00116303
-7.45805e-05
0.00115242
-8.18672e-05
0.00114094
-8.88025e-05
0.00112864
-9.53045e-05
0.0011156
-0.000101299
0.00110188
-0.000106722
0.00108756
-0.000111514
0.00107275
-0.000115629
0.00105752
-0.000119029
0.00104198
-0.000121687
0.00102621
-0.000123588
0.00101032
-0.000124733
0.000994395
-0.000125131
0.000978527
-0.000124807
0.000962798
-0.000123798
0.000947288
-0.000122151
0.000932065
-0.000119921
0.000917194
-0.000117168
0.000902728
-0.000113959
0.000888716
-0.000110358
0.000875195
-0.000106433
0.000862198
-0.000102246
0.00084975
-9.78562e-05
0.000837872
-9.3314e-05
0.000826579
-8.8662e-05
0.000815883
-8.39322e-05
0.000805795
-7.91467e-05
0.000796323
-7.43197e-05
0.000787473
-6.94529e-05
0.000779248
-6.45403e-05
0.000771648
-5.95852e-05
0.000764669
-5.45962e-05
0.0007583
-4.95922e-05
0.000752523
-4.46039e-05
0.000747313
-3.96745e-05
0.000742635
-3.48582e-05
0.000738445
-3.0216e-05
0.000734695
-2.58111e-05
0.000731328
-2.17035e-05
0.000728287
-1.79449e-05
0.000725512
-1.45756e-05
0.000722943
-1.16211e-05
0.000720523
-9.09191e-06
0.000718198
-6.98436e-06
0.000715919
-5.28242e-06
0.00071364
-3.96109e-06
0.00071132
-2.99899e-06
0.000708925
-2.36386e-06
0.000706424
-2.021e-06
0.000703788
-1.93736e-06
0.000700988
-2.09093e-06
0.000697996
-2.46387e-06
0.000694786
-3.04198e-06
0.000691326
-3.81658e-06
0.000687592
-4.8014e-06
0.000683552
-5.99641e-06
0.000679173
-7.42129e-06
0.000674418
-9.09797e-06
0.000669248
-1.10523e-05
0.000663618
-1.33163e-05
0.000657478
-1.59316e-05
0.000650773
-1.89482e-05
0.000643441
-2.2426e-05
0.00063541
-2.64358e-05
0.000626602
-3.1063e-05
0.000616926
-3.64106e-05
0.000606278
-4.26044e-05
0.00059454
-4.97984e-05
0.000581573
-5.81848e-05
0.000567218
-6.80031e-05
0.00055129
-7.95622e-05
0.000533572
-9.3248e-05
0.000513804
-0.000109601
0.000491691
-0.000129271
0.000466877
-0.000153219
0.00043897
-0.000182626
0.00040747
-0.000219333
0.000371979
-0.00026554
0.00033169
-0.000324335
0.000286841
-0.00040141
0.000236048
-0.00049321
0.000180664
-0.000622845
0.000120101
-0.000709157
4.05616e-05
-0.000818655
-0.00047737
0.00125986
6.68575e-08
0.00125995
8.72436e-08
0.00126002
-2.8907e-07
0.00125994
-1.35428e-06
0.00125956
-3.28003e-06
0.00125872
-6.11433e-06
0.00125727
-9.8266e-06
0.00125509
-1.43355e-05
0.00125207
-1.95293e-05
0.00124814
-2.52813e-05
0.00124322
-3.14609e-05
0.00123729
-3.79398e-05
0.00123033
-4.45962e-05
0.00122232
-5.13168e-05
0.00121328
-5.79971e-05
0.00120324
-6.45416e-05
0.00119224
-7.08636e-05
0.00118032
-7.68839e-05
0.00116755
-8.25311e-05
0.00115399
-8.77407e-05
0.00113972
-9.24556e-05
0.00112484
-9.66261e-05
0.00110942
-0.00010021
0.00109356
-0.000103175
0.00107738
-0.000105497
0.00106095
-0.000107164
0.00104439
-0.000108172
0.00102779
-0.000108531
0.00101125
-0.000108263
0.000994846
-0.000107399
0.000978673
-0.000105978
0.0009628
-0.000104048
0.000947295
-0.000101663
0.000932216
-9.88795e-05
0.000917612
-9.57547e-05
0.000903525
-9.23465e-05
0.00088999
-8.87105e-05
0.000877031
-8.48977e-05
0.000864671
-8.09534e-05
0.000852924
-7.6915e-05
0.000841802
-7.28109e-05
0.000831316
-6.86607e-05
0.000821474
-6.44769e-05
0.000812281
-6.02606e-05
0.000803744
-5.60027e-05
0.000795863
-5.17048e-05
0.000788639
-4.73723e-05
0.000782066
-4.30188e-05
0.00077613
-3.86685e-05
0.000770813
-3.4357e-05
0.000766085
-3.01298e-05
0.000761908
-2.60395e-05
0.000758238
-2.21414e-05
0.000755024
-1.84889e-05
0.000752208
-1.51292e-05
0.000749732
-1.20993e-05
0.000747535
-9.42424e-06
0.000745559
-7.11561e-06
0.000743746
-5.17225e-06
0.000742045
-3.58119e-06
0.000740405
-2.32129e-06
0.000738788
-1.38113e-06
0.000737153
-7.29668e-07
0.000735462
-3.2976e-07
0.000733682
-1.57045e-07
0.000731786
-1.95338e-07
0.000729749
-4.26196e-07
0.000727539
-8.32817e-07
0.000725137
-1.41392e-06
0.000722503
-2.16802e-06
0.000719604
-3.09739e-06
0.000716417
-4.23364e-06
0.000712901
-5.58182e-06
0.000709016
-7.16787e-06
0.000704719
-9.01883e-06
0.000699958
-1.11707e-05
0.000694677
-1.36672e-05
0.000688811
-1.65607e-05
0.000682289
-1.99131e-05
0.000675025
-2.37994e-05
0.000666925
-2.83101e-05
0.000657876
-3.35557e-05
0.00064775
-3.96724e-05
0.000636395
-4.68302e-05
0.000623634
-5.52416e-05
0.000609254
-6.51822e-05
0.000593003
-7.69973e-05
0.000574573
-9.11706e-05
0.000553597
-0.000108295
0.000529617
-0.000129239
0.000502092
-0.0001551
0.000470302
-0.000187543
0.000433503
-0.000228741
0.000390443
-0.000281275
0.000340451
-0.000351418
0.000281668
-0.000434426
0.00021311
-0.000554287
0.000137527
-0.000633574
4.40882e-05
-0.000725217
-0.000433282
0.00129677
4.20337e-08
0.00129682
3.06355e-08
0.00129684
-3.09313e-07
0.0012967
-1.21524e-06
0.00129625
-2.82973e-06
0.00129534
-5.19734e-06
0.00129381
-8.29706e-06
0.00129154
-1.20645e-05
0.00128841
-1.64085e-05
0.00128436
-2.12248e-05
0.0012793
-2.64045e-05
0.0012732
-3.18404e-05
0.00126604
-3.74301e-05
0.0012578
-4.30778e-05
0.0012485
-4.86953e-05
0.00123816
-5.4202e-05
0.00122682
-5.95242e-05
0.00121453
-6.4595e-05
0.00120135
-6.9354e-05
0.00118736
-7.37466e-05
0.00117263
-7.77246e-05
0.00115725
-8.12458e-05
0.00114131
-8.42748e-05
0.00112492
-8.67835e-05
0.00110817
-8.87516e-05
0.00109118
-9.01676e-05
0.00107403
-9.10293e-05
0.00105685
-9.13444e-05
0.00103971
-9.11298e-05
0.00102273
-9.04115e-05
0.00100597
-8.92231e-05
0.000989528
-8.76046e-05
0.000973466
-8.56009e-05
0.000957846
-8.32595e-05
0.00094272
-8.06295e-05
0.000928134
-7.77597e-05
0.00091412
-7.46973e-05
0.000900708
-7.14856e-05
0.000887918
-6.81635e-05
0.000875766
-6.47629e-05
0.000864264
-6.13084e-05
0.00085342
-5.78166e-05
0.000843242
-5.42989e-05
0.000833737
-5.07557e-05
0.00082491
-4.71763e-05
0.000816767
-4.35612e-05
0.000809308
-3.99135e-05
0.000802532
-3.62428e-05
0.000796431
-3.25675e-05
0.00079099
-2.89159e-05
0.000786186
-2.53254e-05
0.000781986
-2.18398e-05
0.00077835
-1.85057e-05
0.00077523
-1.53692e-05
0.000772573
-1.24713e-05
0.000770319
-9.84518e-06
0.000768408
-7.51372e-06
0.000766781
-5.48861e-06
0.000765379
-3.77067e-06
0.000764147
-2.34909e-06
0.000763031
-1.20532e-06
0.000761982
-3.31604e-07
0.000760963
2.89624e-07
0.000759945
6.87477e-07
0.000758888
8.99802e-07
0.000757757
9.36023e-07
0.000756521
8.09785e-07
0.000755153
5.34835e-07
0.00075361
1.29927e-07
0.000751887
-4.45696e-07
0.00074996
-1.16965e-06
0.000747767
-2.04082e-06
0.000745288
-3.10306e-06
0.000742482
-4.3618e-06
0.000739303
-5.83988e-06
0.0007357
-7.56798e-06
0.000731616
-9.58329e-06
0.000726986
-1.193e-05
0.000721733
-1.46606e-05
0.000715772
-1.78384e-05
0.000709002
-2.15402e-05
0.000701307
-2.58601e-05
0.000692548
-3.09136e-05
0.000682564
-3.68459e-05
0.00067116
-4.38385e-05
0.000658106
-5.21278e-05
0.000643119
-6.20105e-05
0.000625851
-7.39027e-05
0.000605877
-8.83202e-05
0.000582655
-0.000106017
0.00055552
-0.000127965
0.000523571
-0.000155594
0.00048577
-0.00019094
0.000440519
-0.000236024
0.000386306
-0.000297205
0.000321006
-0.000369126
0.000241729
-0.00047501
0.000153687
-0.000545531
4.99748e-05
-0.000621505
-0.000383307
0.00132777
2.56906e-08
0.00132781
-1.29917e-09
0.00132779
-2.90055e-07
0.0013276
-1.0265e-06
0.00132709
-2.32408e-06
0.00132612
-4.22124e-06
0.00132452
-6.70406e-06
0.00132218
-9.72326e-06
0.00131898
-1.32075e-05
0.00131483
-1.7074e-05
0.00130966
-2.12361e-05
0.00130343
-2.56075e-05
0.0012961
-3.01059e-05
0.00128768
-3.46541e-05
0.00127817
-3.91806e-05
0.00126758
-4.362e-05
0.00125597
-4.79129e-05
0.00124338
-5.20049e-05
0.00122988
-5.5847e-05
0.00121552
-5.93952e-05
0.00120041
-6.26104e-05
0.00118462
-6.54583e-05
0.00116826
-6.79103e-05
0.00115142
-6.99434e-05
0.00113421
-7.1541e-05
0.00111673
-7.26936e-05
0.0010991
-7.33989e-05
0.00108142
-7.36629e-05
0.00106379
-7.34988e-05
0.00104631
-7.29274e-05
0.00102906
-7.19756e-05
0.00101213
-7.06756e-05
0.000995592
-6.90635e-05
0.000979511
-6.71778e-05
0.000963939
-6.50581e-05
0.000948924
-6.27441e-05
0.0009345
-6.02739e-05
0.000920698
-5.76831e-05
0.000907537
-5.50032e-05
0.000895035
-5.22604e-05
0.000883202
-4.9475e-05
0.000872046
-4.66606e-05
0.000861574
-4.3827e-05
0.000851793
-4.09749e-05
0.000842709
-3.80925e-05
0.000834328
-3.518e-05
0.000826653
-3.22391e-05
0.000819687
-2.92763e-05
0.000813424
-2.6305e-05
0.000807855
-2.3347e-05
0.000802961
-2.04314e-05
0.000798715
-1.75933e-05
0.00079508
-1.48704e-05
0.000792011
-1.23003e-05
0.000789456
-9.91712e-06
0.00078736
-7.74876e-06
0.000785661
-5.81509e-06
0.0007843
-4.12676e-06
0.000783214
-2.68543e-06
0.000782347
-1.48158e-06
0.000781645
-5.03287e-07
0.000781062
2.51066e-07
0.000780558
7.93383e-07
0.000780077
1.16869e-06
0.00077959
1.38638e-06
0.000779066
1.46047e-06
0.000778473
1.40317e-06
0.000777781
1.22607e-06
0.000776982
9.29396e-07
0.000776018
5.17802e-07
0.000774837
1.15748e-08
0.000773473
-6.76785e-07
0.000771845
-1.47474e-06
0.000769922
-2.43903e-06
0.00076766
-3.57798e-06
0.000765008
-4.91589e-06
0.000761908
-6.48318e-06
0.000758293
-8.31547e-06
0.000754088
-1.04551e-05
0.000749203
-1.29533e-05
0.000743535
-1.58721e-05
0.000736962
-1.92876e-05
0.000729342
-2.32937e-05
0.000720504
-2.8008e-05
0.000710244
-3.35782e-05
0.000698313
-4.01969e-05
0.000684409
-4.81065e-05
0.000668153
-5.76463e-05
0.000649075
-6.92422e-05
0.000626569
-8.3511e-05
0.000599874
-0.00010127
0.000567952
-0.000123672
0.000529523
-0.000152511
0.000482743
-0.000189244
0.000425365
-0.000239827
0.000355134
-0.000298894
0.000267576
-0.000387452
0.000169407
-0.000447363
5.73255e-05
-0.000509423
-0.000325982
0.00135275
1.50578e-08
0.00135276
-1.51493e-08
0.00135272
-2.41401e-07
0.00135249
-8.00263e-07
0.00135194
-1.77654e-06
0.00135092
-3.20059e-06
0.00134928
-5.06364e-06
0.00134689
-7.33007e-06
0.00134363
-9.94731e-06
0.00133941
-1.28538e-05
0.00133416
-1.59848e-05
0.00132782
-1.92754e-05
0.00132038
-2.26637e-05
0.00131182
-2.60914e-05
0.00130214
-2.95044e-05
0.00129138
-3.28533e-05
0.00127956
-3.60929e-05
0.00126673
-3.91823e-05
0.00125297
-4.20843e-05
0.00123834
-4.47655e-05
0.00122293
-4.71963e-05
0.00120682
-4.93508e-05
0.00119012
-5.12073e-05
0.00117292
-5.27483e-05
0.00115534
-5.39611e-05
0.00113749
-5.48382e-05
0.00111946
-5.53779e-05
0.00110139
-5.55842e-05
0.00108335
-5.54671e-05
0.00106547
-5.50419e-05
0.00104782
-5.4329e-05
0.0010305
-5.33524e-05
0.00101357
-5.21394e-05
0.000997116
-5.07191e-05
0.00098118
-4.91214e-05
0.000965812
-4.73764e-05
0.000951051
-4.5513e-05
0.000936926
-4.35583e-05
0.000923459
-4.15363e-05
0.000910666
-3.94671e-05
0.000898557
-3.7366e-05
0.00088714
-3.52438e-05
0.000876421
-3.31083e-05
0.000866407
-3.09605e-05
0.000857103
-2.87889e-05
0.000848517
-2.65937e-05
0.000840654
-2.4376e-05
0.000833518
-2.21398e-05
0.000827107
-1.98945e-05
0.000821416
-1.76556e-05
0.000816429
-1.54445e-05
0.000812123
-1.32875e-05
0.000808466
-1.12131e-05
0.000805415
-9.24986e-06
0.000802922
-7.4241e-06
0.000800931
-5.75764e-06
0.000799382
-4.26636e-06
0.000798215
-2.95916e-06
0.000797368
-1.83838e-06
0.000796782
-8.9581e-07
0.00079639
-1.11576e-07
0.000796167
4.74356e-07
0.000796044
9.16784e-07
0.000795987
1.22579e-06
0.000795955
1.41842e-06
0.000795912
1.50252e-06
0.000795829
1.48679e-06
0.000795675
1.38039e-06
0.000795416
1.18824e-06
0.000795032
9.01577e-07
0.00079452
5.23641e-07
0.000793766
7.74747e-08
0.000792809
-5.18495e-07
0.000791585
-1.21474e-06
0.000790049
-2.0424e-06
0.000788152
-3.01792e-06
0.000785833
-4.16474e-06
0.000783027
-5.50987e-06
0.000779658
-7.08515e-06
0.000775633
-8.9291e-06
0.00077085
-1.10885e-05
0.000765183
-1.36207e-05
0.000758486
-1.65966e-05
0.000750583
-2.01049e-05
0.000741262
-2.42575e-05
0.000730265
-2.91999e-05
0.000717275
-3.51161e-05
0.000701891
-4.22628e-05
0.000683615
-5.09658e-05
0.000661795
-6.16915e-05
0.000635602
-7.5077e-05
0.000603905
-9.1975e-05
0.000565239
-0.000113845
0.000517613
-0.000141618
0.000458165
-0.000180379
0.000384607
-0.000225336
0.000291115
-0.000293961
0.000185083
-0.000341331
6.57881e-05
-0.000390128
-0.000260194
0.00137159
8.1786e-09
0.00137159
-1.65925e-08
0.00137152
-1.71973e-07
0.00137126
-5.47502e-07
0.00137069
-1.19954e-06
0.00136964
-2.14903e-06
0.00136796
-3.39089e-06
0.00136554
-4.90205e-06
0.00136224
-6.64794e-06
0.00135797
-8.58785e-06
0.00135266
-1.06786e-05
0.00134627
-1.28772e-05
0.00133874
-1.5142e-05
0.00133009
-1.74341e-05
0.0013203
-1.97172e-05
0.0013094
-2.19583e-05
0.00129744
-2.4127e-05
0.00128445
-2.61959e-05
0.00127051
-2.81399e-05
0.00125568
-2.99367e-05
0.00124005
-3.15665e-05
0.00122371
-3.30119e-05
0.00120676
-3.42583e-05
0.00118931
-3.52938e-05
0.00117146
-3.61099e-05
0.00115332
-3.67015e-05
0.00113501
-3.70673e-05
0.00111663
-3.72098e-05
0.0010983
-3.71356e-05
0.00108012
-3.68549e-05
0.00106217
-3.63812e-05
0.00104455
-3.57306e-05
0.00102733
-3.49212e-05
0.00101058
-3.39726e-05
0.000994365
-3.29049e-05
0.000978726
-3.17381e-05
0.000963705
-3.04917e-05
0.000949331
-2.9184e-05
0.000935626
-2.78311e-05
0.000922605
-2.64467e-05
0.00091028
-2.50412e-05
0.000898658
-2.36216e-05
0.000887744
-2.2194e-05
0.000877543
-2.07598e-05
0.000868063
-1.93081e-05
0.000859309
-1.78403e-05
0.00085129
-1.6357e-05
0.000844011
-1.48604e-05
0.000837472
-1.33562e-05
0.000831671
-1.18546e-05
0.000826596
-1.03695e-05
0.000822227
-8.91821e-06
0.000818534
-7.51983e-06
0.000815478
-6.19366e-06
0.000813011
-4.95756e-06
0.00081108
-3.82652e-06
0.000809625
-2.81159e-06
0.000808585
-1.91908e-06
0.000807897
-1.15068e-06
0.000807502
-5.0074e-07
0.000807354
3.62777e-08
0.000807382
4.46862e-07
0.000807541
7.5755e-07
0.000807786
9.80689e-07
0.00080808
1.12429e-06
0.000808389
1.19447e-06
0.000808678
1.19757e-06
0.000808919
1.13943e-06
0.000809084
1.02254e-06
0.000809139
8.46926e-07
0.000809046
6.1703e-07
0.000808814
3.08899e-07
0.000808348
-5.23648e-08
0.000807646
-5.12981e-07
0.000806653
-1.04937e-06
0.00080532
-1.6849e-06
0.00080359
-2.43409e-06
0.000801395
-3.31487e-06
0.000798658
-4.34845e-06
0.000795289
-5.56048e-06
0.000791183
-6.9821e-06
0.000786214
-8.65153e-06
0.000780233
-1.06159e-05
0.000773063
-1.29346e-05
0.000764487
-1.5682e-05
0.000754243
-1.89554e-05
0.000742004
-2.28775e-05
0.000727361
-2.76195e-05
0.000709795
-3.34005e-05
0.000688634
-4.05296e-05
0.000663
-4.94436e-05
0.000631719
-6.06936e-05
0.00059319
-7.53159e-05
0.000545375
-9.38032e-05
0.000484922
-0.000119927
0.000409603
-0.000150017
0.000312427
-0.000196784
0.00020085
-0.000229753
7.515e-05
-0.000264428
-0.000185044
0.00138419
3.55738e-09
0.00138419
-1.03609e-08
0.00138411
-8.94671e-08
0.00138384
-2.78206e-07
0.00138324
-6.04611e-07
0.00138217
-1.07932e-06
0.00138048
-1.70003e-06
0.00137803
-2.45537e-06
0.00137471
-3.32823e-06
0.00137042
-4.29833e-06
0.00136509
-5.34416e-06
0.00135866
-6.4442e-06
0.00135109
-7.57768e-06
0.00134238
-8.72507e-06
0.00133253
-9.86827e-06
0.00132157
-1.09907e-05
0.00130952
-1.2077e-05
0.00129643
-1.31136e-05
0.00128238
-1.40879e-05
0.00126743
-1.49888e-05
0.00125167
-1.58061e-05
0.00123519
-1.65313e-05
0.00121809
-1.7157e-05
0.00120048
-1.76773e-05
0.00118245
-1.80878e-05
0.00116414
-1.83859e-05
0.00114564
-1.8571e-05
0.00112708
-1.86442e-05
0.00110855
-1.86089e-05
0.00109017
-1.847e-05
0.00107202
-1.82344e-05
0.0010542
-1.79099e-05
0.00103678
-1.75059e-05
0.00101984
-1.70319e-05
0.00100343
-1.64981e-05
0.000987611
-1.59145e-05
0.00097241
-1.5291e-05
0.000957863
-1.46366e-05
0.000943991
-1.39596e-05
0.000930812
-1.32668e-05
0.000918334
-1.25634e-05
0.000906565
-1.1853e-05
0.000895511
-1.11395e-05
0.000885174
-1.04234e-05
0.000875563
-9.69685e-06
0.000866685
-8.96246e-06
0.000858548
-8.22016e-06
0.000851159
-7.4709e-06
0.00084452
-6.71737e-06
0.00083863
-5.96441e-06
0.000833479
-5.21891e-06
0.00082905
-4.48945e-06
0.000825316
-3.78559e-06
0.00082224
-3.11701e-06
0.000819775
-2.49278e-06
0.000817869
-1.92054e-06
0.000816463
-1.40599e-06
0.000815497
-9.52507e-07
0.000814907
-5.61207e-07
0.000814634
-2.27471e-07
0.000814618
5.20665e-08
0.000814808
2.56839e-07
0.000815147
4.18655e-07
0.000815592
5.36155e-07
0.000816102
6.13682e-07
0.000816642
6.5435e-07
0.000817179
6.61189e-07
0.000817681
6.37245e-07
0.000818119
5.84045e-07
0.000818466
4.99887e-07
0.000818696
3.87446e-07
0.000818759
2.45361e-07
0.000818642
6.54141e-08
0.000818287
-1.58379e-07
0.000817664
-4.2587e-07
0.000816716
-7.37791e-07
0.000815389
-1.10636e-06
0.000813614
-1.54046e-06
0.000811316
-2.05056e-06
0.000808405
-2.64935e-06
0.000804775
-3.35226e-06
0.000800302
-4.17825e-06
0.000794837
-5.15073e-06
0.000788201
-6.29913e-06
0.00078018
-7.66042e-06
0.000770507
-9.28279e-06
0.000758857
-1.12274e-05
0.000744816
-1.35786e-05
0.000727863
-1.64467e-05
0.000707315
-1.99817e-05
0.00068228
-2.44088e-05
0.00065157
-2.99833e-05
0.000613521
-3.72676e-05
0.000566132
-4.64135e-05
0.000505672
-5.94674e-05
0.000430079
-7.44237e-05
0.00033137
-9.80748e-05
0.000216692
-0.000115076
8.60324e-05
-0.000133769
-9.90111e-05
0.00139052
-2.04949e-11
0.00139051
-3.1905e-10
0.00139042
-8.8279e-10
0.00139014
-1.65223e-09
0.00138954
-2.56016e-09
0.00138846
-3.52966e-09
0.00138677
-4.48214e-09
0.00138432
-5.34607e-09
0.00138099
-6.06323e-09
0.0013767
-6.59319e-09
0.00137137
-6.91261e-09
0.00136493
-7.01423e-09
0.00135736
-6.9045e-09
0.00134864
-6.60011e-09
0.00133878
-6.12377e-09
0.00132779
-5.50167e-09
0.00131572
-4.76126e-09
0.00130261
-3.92921e-09
0.00128853
-3.02999e-09
0.00127354
-2.08646e-09
0.00125773
-1.11858e-09
0.0012412
-1.41633e-10
0.00122404
8.25337e-10
0.00120637
1.77014e-09
0.00118827
2.67975e-09
0.00116989
3.5414e-09
0.00115131
4.34158e-09
0.00113266
5.0666e-09
0.00111405
5.70234e-09
0.00109557
6.23422e-09
0.00107733
6.64777e-09
0.00105941
6.9292e-09
0.0010419
7.06653e-09
0.00102486
7.05014e-09
0.00100836
6.87371e-09
0.000992434
6.53391e-09
0.000977137
6.03119e-09
0.000962495
5.36912e-09
0.000948531
4.55498e-09
0.000935261
3.60047e-09
0.000922695
2.52424e-09
0.00091084
1.3526e-09
0.000899701
1.1767e-10
0.000889278
-1.12705e-09
0.000879584
-2.34852e-09
0.000870625
-3.49822e-09
0.000862409
-4.53537e-09
0.000854944
-5.42671e-09
0.000848233
-6.14772e-09
0.000842275
-6.68531e-09
0.000837063
-7.0343e-09
0.000832581
-7.19578e-09
0.000828802
-7.17557e-09
0.000825692
-6.98151e-09
0.000823206
-6.62448e-09
0.000821292
-6.11232e-09
0.000819891
-5.46219e-09
0.000818943
-4.66356e-09
0.000818386
-3.77636e-09
0.000818161
-2.78777e-09
0.000818215
-1.68556e-09
0.000818473
-6.12576e-10
0.000818891
4.99124e-10
0.000819425
1.61528e-09
0.000820036
2.70297e-09
0.000820687
3.69942e-09
0.000821343
4.57418e-09
0.000821975
5.32436e-09
0.000822554
5.87756e-09
0.000823047
6.45529e-09
0.000823428
6.85002e-09
0.000823666
6.84609e-09
0.000823724
7.14216e-09
0.000823559
6.48428e-09
0.000823127
6.33195e-09
0.000822384
5.75352e-09
0.000821272
5.00607e-09
0.000819728
4.13722e-09
0.000817674
3.17174e-09
0.000815023
2.15324e-09
0.000811669
1.13076e-09
0.000807491
1.4872e-10
0.000802341
-7.42877e-10
0.000796043
-1.53282e-09
0.000788385
-2.18399e-09
0.000779105
-2.68666e-09
0.00076788
-3.031e-09
0.000754305
-3.21826e-09
0.000737862
-3.25233e-09
0.000717883
-3.14494e-09
0.000693477
-2.91478e-09
0.000663496
-2.58788e-09
0.000626231
-2.18671e-09
0.000579819
-1.75842e-09
0.000520353
-1.30631e-09
0.00044593
-8.96954e-10
0.000347856
-5.09892e-10
0.00023278
-1.8464e-10
9.90115e-05
1.01503e-10
3.44806e-10
-0.000672407
0.00956645
-0.00944106
-0.000798029
0.00955167
-0.00942605
-0.000924372
0.00952813
-0.00940179
-0.00105199
0.00950645
-0.00937883
-0.00118126
0.00948828
-0.00935901
-0.00131248
0.00947454
-0.00934332
-0.00144608
0.00946589
-0.00933229
-0.00158253
0.00946286
-0.00932641
-0.00172251
0.00946625
-0.00932627
-0.00186708
0.00947787
-0.00933331
-0.00201812
0.00950113
-0.00935009
-0.0021781
0.00954346
-0.00938347
-0.00235109
0.00961309
-0.0094401
-0.00253896
0.00972093
-0.00953307
-0.00273639
0.009856
-0.00965856
-0.00290418
0.00996998
-0.00980219
-0.00293607
0.00985587
-0.00982397
-0.00257652
0.00906748
-0.00942703
-0.0015084
0.00661514
-0.00768326
0.00216142
-0.00366982
-0.000679918
0.00969132
-0.000805302
0.00967706
-0.000931481
0.00965431
-0.00105901
0.00963398
-0.00118811
0.00961738
-0.00131915
0.00960558
-0.00145249
0.00959923
-0.00158858
0.00959895
-0.00172808
0.00960575
-0.00187204
0.00962184
-0.00202232
0.00965141
-0.00218153
0.00970266
-0.00235255
0.00978411
-0.0025341
0.00990248
-0.00271068
0.0100326
-0.00282273
0.010082
-0.0027326
0.00976573
-0.00220151
0.00853639
-0.0010716
0.00548523
0.00108983
-0.000687146
0.00981574
-0.000812184
0.0098021
-0.000938154
0.00978028
-0.00106548
0.00976131
-0.00119439
0.00974628
-0.00132521
0.0097364
-0.00145828
0.0097323
-0.00159403
0.0097347
-0.00173311
0.00974483
-0.00187663
0.00976535
-0.00202643
0.00980121
-0.00218489
0.00986112
-0.00235338
0.00995261
-0.00252571
0.0100748
-0.00267442
0.0101813
-0.00272038
0.010128
-0.00250816
0.00955352
-0.00183664
0.00786487
-0.000694989
0.00434357
0.000394838
-0.000694056
0.0099397
-0.000818705
0.00992675
-0.000944389
0.00990596
-0.00107144
0.00988836
-0.00120008
0.00987492
-0.00133061
0.00986693
-0.00146334
0.00986503
-0.00159869
0.00987005
-0.0017373
0.00988345
-0.00188031
0.00990836
-0.0020295
0.0099504
-0.00218667
0.0100183
-0.00235105
0.010117
-0.00251028
0.010234
-0.00262405
0.0102951
-0.00259702
0.010101
-0.00226776
0.00922425
-0.00147987
0.00707698
-0.000428956
0.00329266
-3.41183e-05
-0.000700625
0.0100632
-0.000824862
0.010051
-0.0009502
0.0100313
-0.00107692
0.0100151
-0.00120522
0.0100032
-0.00133537
0.00999708
-0.00146766
0.00999732
-0.00160249
0.0100049
-0.0017405
0.0100215
-0.00188283
0.0100507
-0.0020311
0.0100987
-0.00218619
0.0101734
-0.00234431
0.0102751
-0.00248579
0.0103755
-0.00255737
0.0103666
-0.00245255
0.00999613
-0.00201862
0.00879032
-0.0011556
0.00621396
-0.000243672
0.00238073
-0.000277791
-0.000706857
0.0101861
-0.000830664
0.0101748
-0.00095562
0.0101563
-0.00108196
0.0101414
-0.00120986
0.0101311
-0.00133957
0.0101268
-0.00147133
0.0101291
-0.00160552
0.0101391
-0.00174278
0.0101587
-0.00188416
0.0101921
-0.00203088
0.0102454
-0.00218249
0.010325
-0.00233146
0.0104241
-0.00245052
0.0104946
-0.00247482
0.0103909
-0.00229134
0.00981265
-0.0017699
0.00826888
-0.000879853
0.00532392
-0.000126004
0.00162688
-0.000403794
-0.000712724
0.0103085
-0.000836079
0.0102981
-0.000960609
0.0102808
-0.00108652
0.0102673
-0.00121396
0.0102586
-0.00134315
0.010256
-0.00147429
0.0102602
-0.00160774
0.0102725
-0.00174414
0.0102951
-0.00188445
0.0103324
-0.00202946
0.0103904
-0.00217702
0.0104725
-0.00231513
0.0105622
-0.0024082
0.0105876
-0.00238126
0.010364
-0.0021202
0.00955159
-0.00152534
0.00767402
-0.000659674
0.00445826
-6.24482e-05
0.00102966
-0.000466243
-0.000718279
0.0104302
-0.000841188
0.0104211
-0.000965286
0.0104049
-0.00109077
0.0103928
-0.00121774
0.0103855
-0.00134639
0.0103846
-0.00147688
0.0103907
-0.00160956
0.0104052
-0.001745
0.0104305
-0.00188392
0.0104713
-0.00202621
0.0105327
-0.00216729
0.0106136
-0.00229016
0.0106851
-0.00235206
0.0106495
-0.00227249
0.0102844
-0.00194238
0.00922148
-0.0012961
0.00702775
-0.000494718
0.00365687
-3.80642e-05
0.000573006
-0.000504307
-0.000723364
0.0105513
-0.000845819
0.0105435
-0.000969375
0.0105284
-0.00109434
0.0105178
-0.00122072