/*--------------------------------*- C++ -*----------------------------------*\
  =========                 |
  \\      /  F ield         | OpenFOAM: The Open Source CFD Toolbox
   \\    /   O peration     | Website:  https://openfoam.org
    \\  /    A nd           | Version:  7
     \\/     M anipulation  |
\*---------------------------------------------------------------------------*/
FoamFile
{
    version     2.0;
    format      ascii;
    class       volVectorField;
    location    "52";
    object      U;
}
// * * * * * * * * * * * * * * * * * * * * * * * * * * * * * * * * * * * * * //

dimensions      [0 1 -1 0 0 0 0];

internalField   nonuniform List<vector> 
175
(
(-0.209002 0.000784952 1.18002e-17)
(-0.208054 0.000973519 -3.40563e-18)
(-0.206968 0.00119362 -1.30723e-17)
(-0.205725 0.00145167 6.24604e-18)
(-0.204297 0.00175362 -3.85441e-18)
(-0.202663 0.00210988 -1.66944e-17)
(-0.200782 0.00252793 -6.02999e-18)
(-0.198629 0.00302622 -8.30159e-19)
(-0.196135 0.00361271 2.56228e-18)
(-0.193286 0.00432337 -1.14548e-17)
(-0.189947 0.00516146 9.58862e-18)
(-0.186154 0.00620341 1.47684e-17)
(-0.21558 4.93971e-05 -1.07626e-17)
(-0.215266 0.000111158 -9.95685e-18)
(-0.214894 0.000185959 -4.00986e-18)
(-0.214455 0.000274681 -1.21419e-17)
(-0.213938 0.00037891 5.44162e-18)
(-0.213333 0.00050102 -6.28584e-18)
(-0.212624 0.000643766 1.13045e-17)
(-0.211799 0.000810891 -3.96964e-18)
(-0.210838 0.00100636 -1.16476e-17)
(-0.209723 0.00123599 -1.18194e-19)
(-0.208426 0.00150516 -4.72486e-18)
(-0.206925 0.0018233 -1.88857e-17)
(-0.205177 0.00219721 -7.86247e-18)
(-0.203158 0.00264367 -6.62652e-18)
(-0.200793 0.00316984 3.21755e-18)
(-0.198071 0.00380856 -8.35895e-18)
(-0.194846 0.00456265 8.06173e-18)
(-0.19116 0.00550198 1.04865e-17)
(-0.218206 1.3187e-05 -1.33344e-17)
(-0.217979 6.24488e-05 -5.09029e-18)
(-0.217697 0.000125822 -2.1522e-18)
(-0.217352 0.000201978 -1.58768e-17)
(-0.216932 0.00029187 6.58831e-18)
(-0.216427 0.00039757 -3.84655e-18)
(-0.215823 0.000521504 1.36018e-17)
(-0.215105 0.000666988 -6.193e-18)
(-0.214254 0.00083754 -4.20033e-18)
(-0.213252 0.00103834 3.06662e-18)
(-0.21207 0.00127416 1.7856e-18)
(-0.210686 0.00155345 -2.51161e-17)
(-0.209055 0.00188225 -1.01242e-17)
(-0.207153 0.0022756 -1.31222e-17)
(-0.204903 0.00273986 5.64623e-18)
(-0.202291 0.00330452 -7.33319e-18)
(-0.199167 0.00397205 8.43604e-18)
(-0.195575 0.00480522 8.22885e-18)
(-0.220491 -1.51283e-05 -1.14011e-17)
(-0.220339 2.6595e-05 -8.09106e-18)
(-0.220135 8.07404e-05 -5.1184e-19)
(-0.219871 0.000145414 -1.43631e-17)
(-0.219536 0.000221903 9.77402e-19)
(-0.219118 0.000312074 -2.51869e-18)
(-0.218604 0.000418035 1.0598e-17)
(-0.217979 0.000542662 -2.56329e-18)
(-0.217225 0.000689013 -5.22259e-18)
(-0.21632 0.00086161 -1.09491e-18)
(-0.215239 0.00106462 -1.94887e-19)
(-0.213956 0.00130544 -2.70829e-17)
(-0.212427 0.00158931 -1.3391e-17)
(-0.210626 0.00192947 -1.28528e-17)
(-0.208475 0.00233141 1.17484e-18)
(-0.20596 0.0028211 -8.26915e-18)
(-0.202924 0.00340058 1.11753e-17)
(-0.199412 0.00412514 7.43056e-18)
(-0.22244 -3.56537e-05 -1.24128e-17)
(-0.222352 5.72859e-06 -1.19649e-17)
(-0.222214 4.81528e-05 -6.60021e-18)
(-0.222019 0.000101547 -1.54853e-17)
(-0.221756 0.000165165 -3.01399e-18)
(-0.221413 0.000240385 -2.33607e-18)
(-0.220976 0.000328965 9.76667e-18)
(-0.22043 0.000433332 2.55701e-19)
(-0.219757 0.000556074 -6.8544e-18)
(-0.218936 0.000701038 -5.9359e-18)
(-0.21794 0.000871756 -2.50675e-18)
(-0.216743 0.00107455 -2.59062e-17)
(-0.2153 0.00131387 -1.74271e-17)
(-0.213586 0.00160103 -1.46176e-17)
(-0.211519 0.00194068 -2.28542e-18)
(-0.209087 0.00235506 -1.11417e-17)
(-0.206125 0.00284586 7.6786e-18)
(-0.202683 0.00346041 -2.25333e-18)
(-0.224056 -4.2258e-05 -1.63693e-17)
(-0.224021 -8.95464e-06 -1.7362e-17)
(-0.22394 2.55353e-05 -1.31433e-17)
(-0.223802 6.85332e-05 -1.87845e-17)
(-0.223598 0.000119802 -6.74833e-18)
(-0.223316 0.000180529 -1.66187e-18)
(-0.222943 0.000252168 2.95378e-18)
(-0.222463 0.000336697 2.39481e-18)
(-0.221857 0.000436235 -1.0341e-17)
(-0.221106 0.000553943 -1.17287e-17)
(-0.22018 0.00069272 -5.21326e-18)
(-0.219055 0.000857777 -2.13836e-17)
(-0.217684 0.00105277 -2.30755e-17)
(-0.216042 0.00128702 -1.84303e-17)
(-0.214045 0.00156436 -5.70235e-18)
(-0.21168 0.00190314 -1.54704e-17)
(-0.20878 0.00230475 6.2763e-18)
(-0.205396 0.00280823 -2.70556e-18)
(-0.225345 -4.17792e-05 -1.57552e-17)
(-0.225352 -1.73817e-05 -1.77218e-17)
(-0.225315 1.23745e-05 -1.35235e-17)
(-0.225223 4.47993e-05 -1.75972e-17)
(-0.225066 8.39349e-05 -1.08682e-17)
(-0.224833 0.000130492 -9.51837e-18)
(-0.224511 0.000185543 5.01187e-18)
(-0.224083 0.000250599 4.85467e-18)
(-0.223531 0.000327298 -1.61911e-17)
(-0.222835 0.000418102 -1.03674e-17)
(-0.221965 0.000525269 -8.39174e-18)
(-0.220897 0.000652872 -2.0996e-17)
(-0.219584 0.000803764 -2.35878e-17)
(-0.217999 0.000985248 -1.59104e-17)
(-0.216057 0.00120031 -8.86156e-18)
(-0.213747 0.00146332 -2.28554e-17)
(-0.210897 0.00177538 -2.2988e-18)
(-0.207558 0.00216701 -4.86083e-18)
(-0.226309 -3.52843e-05 -1.05867e-17)
(-0.226348 -1.74566e-05 -2.04648e-17)
(-0.226343 3.88244e-06 -1.53755e-17)
(-0.226286 2.69064e-05 -1.91644e-17)
(-0.226164 5.46716e-05 -1.60256e-17)
(-0.225968 8.76692e-05 -9.74092e-18)
(-0.225683 0.000126676 8.74948e-18)
(-0.225295 0.000172758 7.7755e-18)
(-0.224783 0.000227084 -1.70902e-17)
(-0.224128 0.000291414 -1.02099e-17)
(-0.2233 0.000367366 -1.25583e-17)
(-0.222275 0.00045786 -1.56411e-17)
(-0.221004 0.000564947 -1.88328e-17)
(-0.219462 0.000693862 -1.51565e-17)
(-0.217562 0.000846762 -1.34434e-17)
(-0.215293 0.00103395 -2.47677e-17)
(-0.21248 0.00125627 -7.36796e-19)
(-0.209177 0.00153553 1.97726e-18)
(-0.22695 -2.14769e-05 -7.71981e-18)
(-0.22701 -1.01787e-05 -1.86966e-17)
(-0.227027 3.52835e-06 -1.93376e-17)
(-0.226992 1.68982e-05 -1.51981e-17)
(-0.226895 3.32808e-05 -1.4676e-17)
(-0.226723 5.27343e-05 -1.10979e-17)
(-0.226463 7.57179e-05 6.65239e-18)
(-0.226101 0.000102859 1.16496e-17)
(-0.225616 0.000134851 -1.31912e-17)
(-0.224988 0.000172748 -2.70341e-18)
(-0.224188 0.000217522 -1.03535e-17)
(-0.223192 0.000270932 -1.25718e-17)
(-0.221949 0.000334223 -1.6498e-17)
(-0.220436 0.000410549 -7.32625e-18)
(-0.218564 0.000501243 -1.07693e-17)
(-0.216323 0.000612493 -2.18976e-17)
(-0.213534 0.00074492 2.12843e-18)
(-0.210254 0.00091155 8.62216e-18)
(-0.22727 -1.0707e-05 -6.48184e-18)
(-0.22734 -5.81648e-06 -1.25619e-17)
(-0.227369 -4.38101e-07 -1.82251e-17)
(-0.227346 3.84747e-06 -1.35704e-17)
(-0.22726 8.86386e-06 -1.58448e-17)
(-0.2271 1.49898e-05 -1.35787e-17)
(-0.226853 2.22654e-05 -1.36219e-18)
(-0.226504 3.08371e-05 9.1762e-18)
(-0.226032 4.09227e-05 -1.2602e-17)
(-0.225418 5.28646e-05 4.7205e-18)
(-0.224632 6.70023e-05 -9.62953e-18)
(-0.22365 8.39216e-05 -1.16745e-17)
(-0.222422 0.000104083 -1.68002e-17)
(-0.220923 0.000128525 -4.31092e-19)
(-0.219065 0.000157797 -9.96819e-19)
(-0.216837 0.000193878 -1.38644e-17)
(-0.21406 0.000237246 7.22496e-18)
(-0.210792 0.000291907 8.11348e-18)
(-0.206629 0.000357909 7.43501e-19)
)
;

boundaryField
{
    inlet
    {
        type            uniformFixedValue;
        uniformValue    constant (1 0 0);
        value           nonuniform 0();
    }
    outlet
    {
        type            pressureInletOutletVelocity;
        value           nonuniform 0();
    }
    polygon
    {
        type            fixedValue;
        value           nonuniform 0();
    }
    top
    {
        type            symmetryPlane;
    }
    bottom
    {
        type            symmetryPlane;
    }
    outside
    {
        type            zeroGradient;
    }
    procBoundary35to27
    {
        type            processor;
        value           nonuniform List<vector> 
19
(
(-0.22727 1.39446e-05 -6.15875e-18)
(-0.22734 1.13926e-05 -8.65435e-18)
(-0.227369 8.06486e-06 -1.21115e-17)
(-0.227346 4.44316e-06 -5.75654e-18)
(-0.22726 9.63627e-07 -1.10115e-17)
(-0.2271 -4.04202e-06 -9.72245e-18)
(-0.226853 -1.05398e-05 -5.09475e-19)
(-0.226504 -1.87072e-05 8.29153e-18)
(-0.226032 -2.87592e-05 -7.12302e-18)
(-0.225418 -4.10275e-05 5.49106e-18)
(-0.224632 -5.58273e-05 -1.18083e-17)
(-0.22365 -7.37084e-05 -1.25735e-17)
(-0.222422 -9.5084e-05 -1.12918e-17)
(-0.220923 -0.000120935 -9.87324e-19)
(-0.219065 -0.000151749 -6.57262e-19)
(-0.216837 -0.000189434 -8.47201e-18)
(-0.21406 -0.000234402 1.42083e-17)
(-0.210792 -0.000290593 9.00893e-18)
(-0.206629 -0.000357989 7.34771e-18)
)
;
    }
    procBoundary35to34
    {
        type            processor;
        value           nonuniform List<vector> 
11
(
(-0.181609 0.00743172 2.3763e-17)
(-0.186692 0.00661055 2.67538e-17)
(-0.191176 0.00578988 2.49355e-17)
(-0.195072 0.00498238 1.8142e-17)
(-0.198393 0.00418821 1.50846e-17)
(-0.201148 0.0034051 1.53753e-17)
(-0.203344 0.0026318 9.26068e-18)
(-0.204988 0.00186745 5.83811e-18)
(-0.206082 0.0011102 3.09743e-18)
(-0.206082 0.0011102 3.09743e-18)
(-0.201856 0.000443225 5.49603e-18)
)
;
    }
    procBoundary35to36
    {
        type            processor;
        value           nonuniform List<vector> 9((-0.215844 2.92703e-06 5.52299e-18) (-0.218387 -3.06411e-05 1.03321e-17) (-0.220599 -5.45652e-05 9.85356e-18) (-0.222487 -6.52006e-05 4.14432e-18) (-0.224053 -6.67497e-05 5.51172e-19) (-0.225302 -6.03711e-05 -1.46104e-18) (-0.226236 -4.86352e-05 -2.59968e-18) (-0.226858 -3.01339e-05 -3.03619e-18) (-0.227168 -1.4443e-05 -3.3164e-18));
    }
    procBoundary35to43
    {
        type            processor;
        value           nonuniform List<vector> 
19
(
(-0.212607 0.000109007 -1.08134e-17)
(-0.212195 0.0001797 -8.59781e-18)
(-0.211721 0.000265345 1.65632e-18)
(-0.211175 0.000366566 -1.08861e-17)
(-0.210548 0.000485082 5.78952e-18)
(-0.209828 0.000623523 -9.76941e-18)
(-0.209828 0.000623523 -9.76941e-18)
(-0.205115 0.00091284 6.94608e-18)
(-0.204033 0.00112152 -4.48111e-18)
(-0.202808 0.00136491 -8.30923e-18)
(-0.201422 0.00165 6.42639e-18)
(-0.199849 0.00198338 -4.51928e-18)
(-0.198067 0.00237634 -1.71196e-17)
(-0.196037 0.00283727 -4.50711e-18)
(-0.193735 0.00338602 -3.7615e-18)
(-0.191096 0.00403184 2.12461e-18)
(-0.188104 0.00481315 -7.87334e-18)
(-0.184634 0.00573499 4.16747e-18)
(-0.180719 0.00687831 1.20265e-17)
)
;
    }
}


// ************************************************************************* //
