/*--------------------------------*- C++ -*----------------------------------*\
  =========                 |
  \\      /  F ield         | OpenFOAM: The Open Source CFD Toolbox
   \\    /   O peration     | Website:  https://openfoam.org
    \\  /    A nd           | Version:  7
     \\/     M anipulation  |
\*---------------------------------------------------------------------------*/
FoamFile
{
    version     2.0;
    format      ascii;
    class       volVectorField;
    location    "54";
    object      U;
}
// * * * * * * * * * * * * * * * * * * * * * * * * * * * * * * * * * * * * * //

dimensions      [0 1 -1 0 0 0 0];

internalField   nonuniform List<vector> 
250
(
(0.688294 0.234602 1.75113e-18)
(0.681892 0.221106 5.41873e-18)
(0.672453 0.205294 2.01223e-18)
(0.659179 0.186881 6.87063e-18)
(0.641285 0.165619 1.96858e-18)
(0.618255 0.14135 -6.46593e-18)
(0.590506 0.11406 6.48511e-18)
(0.560552 0.0839389 2.76999e-18)
(0.533884 0.0514429 9.57971e-18)
(0.517821 0.0173385 4.02234e-19)
(0.643514 0.231471 2.0557e-18)
(0.629124 0.217593 7.18092e-18)
(0.610583 0.201375 2.48305e-18)
(0.587157 0.182573 8.5949e-18)
(0.558293 0.161025 2.29889e-18)
(0.523905 0.136698 -7.82793e-18)
(0.485067 0.109709 7.49828e-18)
(0.445202 0.080341 3.28732e-18)
(0.410924 0.0490533 1.08926e-17)
(0.390683 0.0164994 5.68645e-19)
(0.633174 0.228785 1.21806e-18)
(0.617722 0.214119 8.94591e-18)
(0.598273 0.197137 2.25438e-18)
(0.574285 0.177692 1.14821e-17)
(0.545401 0.155741 2.0433e-18)
(0.511667 0.13137 -1.22312e-17)
(0.474127 0.104795 1.22399e-17)
(0.435954 0.0763427 4.02808e-18)
(0.4033 0.0464331 1.67016e-17)
(0.384065 0.0155863 7.319e-19)
(0.596472 0.23798 -1.56363e-18)
(0.574127 0.223935 -1.81583e-18)
(0.546881 0.207318 -6.99661e-19)
(0.51431 0.187909 -1.9027e-18)
(0.476282 0.165604 -3.92939e-19)
(0.433185 0.140439 1.5356e-18)
(0.386545 0.112593 -1.06736e-18)
(0.340196 0.0823834 -7.84485e-19)
(0.301181 0.0502739 -1.66491e-18)
(0.278408 0.0169061 4.72843e-19)
(0.579086 0.237788 5.37066e-19)
(0.553933 0.222649 1.5011e-18)
(0.523869 0.204858 1.10352e-18)
(0.488738 0.184337 1.68269e-18)
(0.448688 0.161158 1.11392e-18)
(0.404316 0.135532 -3.22991e-19)
(0.357206 0.107789 3.38215e-19)
(0.311052 0.0783202 5.95853e-19)
(0.272564 0.0475488 9.06008e-19)
(0.250218 0.015946 9.52728e-19)
(0.547034 0.252039 3.72787e-19)
(0.515241 0.237528 3.56819e-18)
(0.477945 0.219971 1.81796e-18)
(0.435221 0.199233 4.31517e-18)
(0.387483 0.17533 2.66827e-18)
(0.33561 0.148417 -2.44401e-18)
(0.281469 0.118773 1.98335e-18)
(0.229101 0.0867753 1.72879e-18)
(0.185759 0.0529027 3.21277e-18)
(0.160678 0.0177824 1.10335e-18)
(0.525413 0.255625 3.07808e-18)
(0.488855 0.239912 1.50162e-17)
(0.4467 0.220976 4.28778e-18)
(0.399339 0.19885 1.8993e-17)
(0.34748 0.173728 7.72998e-18)
(0.292228 0.145941 -2.00599e-17)
(0.235578 0.115912 1.73798e-17)
(0.181582 0.084108 6.44949e-18)
(0.137371 0.0510042 2.61358e-17)
(0.111948 0.017093 3.08197e-18)
(0.495402 0.269914 -1.4305e-18)
(0.451716 0.254296 -2.18425e-18)
(0.402251 0.23508 -1.12621e-18)
(0.347712 0.21232 -1.99993e-18)
(0.289081 0.186212 1.66717e-17)
(0.227677 0.157067 -1.37531e-17)
(0.165631 0.125271 -4.16624e-18)
(0.107099 0.0912684 -6.12052e-19)
(0.0594254 0.0555472 3.4928e-18)
(0.0320759 0.0186609 2.80701e-17)
(0.470001 0.274913 3.16059e-19)
(0.419775 0.257948 1.91408e-18)
(0.363898 0.237278 1.18102e-18)
(0.303366 0.213124 2.27728e-18)
(0.23938 0.185823 -2.42177e-20)
(0.173411 0.155798 -4.88651e-19)
(0.1077 0.123514 4.83268e-19)
(0.0464838 0.0895016 4.94098e-19)
(-0.00285971 0.0542211 1.22308e-18)
(-0.0309917 0.0181523 2.18581e-18)
(0.439215 0.284027 1.57428e-18)
(0.381303 0.266438 7.52361e-18)
(0.318081 0.24502 2.19174e-18)
(0.250794 0.220063 1.10838e-17)
(0.180808 0.191928 3.18421e-18)
(0.109696 0.16102 -1.21157e-17)
(0.0397336 0.127756 1.19942e-17)
(-0.0248721 0.0925876 4.79856e-18)
(-0.0766411 0.056085 1.76429e-17)
(-0.106075 0.018788 7.85023e-19)
(0.40905 0.284554 1.711e-19)
(0.343821 0.265637 -6.45332e-19)
(0.273864 0.243111 -3.61568e-19)
(0.200543 0.217371 -6.41482e-19)
(0.125278 0.188825 -2.69063e-19)
(0.0496719 0.157887 -2.47503e-19)
(-0.0239129 0.124978 4.31016e-19)
(-0.0912281 0.090457 5.37188e-19)
(-0.144842 0.0547437 1.73152e-18)
(-0.175205 0.0183273 4.74187e-19)
(0.37515 0.282551 1.17683e-18)
(0.302741 0.262767 5.14048e-19)
(0.226393 0.239679 2.15728e-19)
(0.147485 0.213696 8.81558e-20)
(0.0674034 0.185205 2.71232e-20)
(-0.0122674 0.154522 5.48858e-21)
(-0.0891419 0.122002 3.83638e-20)
(-0.158898 0.0880866 1.26782e-19)
(-0.214102 0.0532117 2.48413e-19)
(-0.245247 0.017795 2.9544e-19)
(0.340081 0.272186 8.35678e-19)
(0.261399 0.251807 2.52397e-19)
(0.179612 0.228701 1.63371e-19)
(0.0959683 0.203243 4.24389e-20)
(0.0117418 0.175732 -4.46449e-20)
(-0.0714594 0.146377 2.00664e-20)
(-0.151225 0.115429 -3.46248e-20)
(-0.22311 0.0832554 3.38233e-20)
(-0.27963 0.0502459 2.42289e-20)
(-0.311376 0.0167929 5.07552e-20)
(0.303303 0.256341 1.46616e-18)
(0.219492 0.235982 3.08064e-19)
(0.133366 0.213478 4.13962e-20)
(0.0459588 0.189143 -1.64936e-19)
(-0.041591 0.163127 -1.79024e-20)
(-0.127729 0.135584 -1.03687e-19)
(-0.20994 0.106746 -3.09162e-21)
(-0.283616 0.0768758 4.6633e-20)
(-0.341209 0.0463367 1.654e-19)
(-0.373415 0.0154745 2.28823e-19)
(0.266832 0.234518 -2.64615e-18)
(0.179147 0.21492 -1.78299e-18)
(0.0897328 0.19377 -7.54297e-19)
(-0.000618516 0.171233 -2.10459e-19)
(-0.090857 0.147388 -5.83505e-20)
(-0.179452 0.122318 3.72806e-20)
(-0.263709 0.0961602 -1.47725e-19)
(-0.338839 0.0691507 -3.94599e-19)
(-0.397234 0.0416263 -1.21884e-18)
(-0.429743 0.0138902 -2.27611e-18)
(0.231684 0.209446 -6.35124e-18)
(0.141299 0.191196 -6.43491e-18)
(0.049547 0.171856 -2.91348e-18)
(-0.0429752 0.151485 -1.57713e-18)
(-0.135327 0.130109 -5.5903e-19)
(-0.225902 0.107776 -2.2768e-18)
(-0.311822 0.0845669 2.56276e-18)
(-0.388087 0.0606985 2.3847e-18)
(-0.447033 0.0364774 6.76594e-18)
(-0.4797 0.0121597 6.69878e-18)
(0.199248 0.182745 -1.89337e-17)
(0.106999 0.166303 -4.978e-17)
(0.0135423 0.149086 -1.57807e-17)
(-0.080632 0.131101 -4.68691e-17)
(-0.174638 0.112337 -9.11482e-18)
(-0.266766 0.0928244 3.41808e-17)
(-0.353954 0.072645 -3.20772e-17)
(-0.431 0.0520054 -1.09041e-17)
(-0.490224 0.0311828 -3.90402e-17)
(-0.522896 0.0103808 -7.31264e-18)
(0.170217 0.156289 -3.52269e-18)
(0.0766938 0.14184 -5.14815e-18)
(-0.0180061 0.126802 -2.86279e-18)
(-0.113457 0.111175 -4.24482e-18)
(-0.208737 0.0949692 -1.63141e-18)
(-0.302035 0.0781988 1.52408e-18)
(-0.390102 0.0609686 3.7893e-19)
(-0.467574 0.0434832 7.85776e-19)
(-0.5268 0.0259903 2.59493e-18)
(-0.559326 0.00863607 6.90209e-18)
(0.144905 0.131021 -1.94526e-17)
(0.0504303 0.118582 -5.89384e-17)
(-0.0452358 0.105681 -1.83152e-17)
(-0.141678 0.0923164 -6.21042e-17)
(-0.237903 0.0785111 -1.01943e-17)
(-0.331993 0.0643195 4.45148e-17)
(-0.42054 0.0498724 -5.27431e-17)
(-0.498068 0.0353768 -1.91504e-17)
(-0.557013 0.0210492 -6.24365e-17)
(-0.589243 0.00697579 -8.98067e-18)
(0.123308 0.107504 1.0155e-17)
(0.0280708 0.0969773 6.43904e-17)
(-0.0683889 0.0860679 1.81626e-17)
(-0.165591 0.0747906 5.98403e-17)
(-0.262468 0.0631976 1.21329e-17)
(-0.35699 0.051388 1.55725e-17)
(-0.445628 0.0395222 4.95106e-17)
(-0.522851 0.02781 8.6239e-18)
(-0.581243 0.016436 4.03742e-17)
(-0.613033 0.00542566 3.92495e-18)
(0.105199 0.0857881 -6.27326e-19)
(0.00931477 0.0770239 2.61945e-18)
(-0.0877985 0.0679379 2.26294e-18)
(-0.185559 0.0585734 7.47451e-18)
(-0.282808 0.0490145 4.28024e-18)
(-0.377418 0.0394021 5.53746e-18)
(-0.465769 0.0299244 1.23336e-17)
(-0.542338 0.0207928 5.05165e-18)
(-0.59992 0.0121586 1.13366e-17)
(-0.631135 0.00398864 1.5768e-18)
(0.0902775 0.0657186 1.93718e-19)
(-0.00614898 0.0585543 -2.1092e-19)
(-0.103771 0.0511357 8.60165e-20)
(-0.201889 0.0435244 8.41255e-19)
(-0.299242 0.0358451 1.13287e-18)
(-0.393607 0.0282711 1.98695e-18)
(-0.481317 0.0210131 3.781e-18)
(-0.556911 0.0142803 2.0752e-18)
(-0.613447 0.00819075 3.396e-18)
(-0.643968 0.00265604 -6.10877e-19)
(0.0781939 0.0470288 3.42888e-19)
(-0.0186504 0.0413016 4.94431e-19)
(-0.116613 0.0354029 3.61919e-19)
(-0.214871 0.0294187 1.10147e-18)
(-0.312049 0.0234972 6.7367e-19)
(-0.405849 0.0178385 4.1614e-19)
(-0.492583 0.0126687 9.10632e-19)
(-0.566905 0.00818887 7.51231e-20)
(-0.622182 0.00448312 7.12975e-19)
(-0.651901 0.00141154 -1.34938e-18)
(0.0686449 0.0294228 -2.7167e-19)
(-0.0284482 0.0249968 2.18612e-19)
(-0.126552 0.0205008 5.92934e-19)
(-0.224713 0.0160455 -2.43249e-19)
(-0.321439 0.0117905 -1.54565e-19)
(-0.41436 0.00795662 4.64369e-20)
(-0.499806 0.00477399 3.82795e-19)
(-0.572587 0.0024329 4.9841e-19)
(-0.626418 0.000982989 7.56406e-19)
(-0.655244 0.000237219 5.24424e-19)
(0.0613524 0.0126358 -1.8849e-18)
(-0.0357695 0.00941372 -3.11109e-19)
(-0.133768 0.00622007 -4.81517e-19)
(-0.231568 0.00322127 6.27702e-19)
(-0.327551 0.000561562 2.27916e-19)
(-0.419296 -0.00150926 1.90039e-19)
(-0.503163 -0.00276915 3.99959e-19)
(-0.574162 -0.00305459 2.70199e-20)
(-0.626382 -0.00234654 -2.90363e-19)
(-0.654233 -0.000878566 -6.42992e-18)
)
;

boundaryField
{
    inlet
    {
        type            uniformFixedValue;
        uniformValue    constant (1 0 0);
        value           nonuniform 0();
    }
    outlet
    {
        type            pressureInletOutletVelocity;
        value           nonuniform List<vector> 10((0.688294 0.234602 1.75113e-18) (0.681892 0.221106 5.41873e-18) (0.672453 0.205294 2.01223e-18) (0.659179 0.186881 6.87063e-18) (0.641285 0.165619 1.96858e-18) (0.618255 0.14135 -6.46593e-18) (0.590506 0.11406 6.48511e-18) (0.560552 0.0839389 2.76999e-18) (0.533884 0.0514429 9.57971e-18) (0.517821 0.0173385 4.02234e-19));
    }
    polygon
    {
        type            fixedValue;
        value           nonuniform 0();
    }
    top
    {
        type            symmetryPlane;
    }
    bottom
    {
        type            symmetryPlane;
    }
    outside
    {
        type            zeroGradient;
    }
    procBoundary7to3
    {
        type            processor;
        value           nonuniform List<vector> 
25
(
(0.692362 0.24607 4.82474e-18)
(0.654509 0.243288 6.54785e-18)
(0.645249 0.241349 6.68899e-18)
(0.614518 0.249746 -4.41084e-18)
(0.599725 0.250477 5.8715e-19)
(0.573552 0.263767 -3.69379e-19)
(0.556313 0.268256 1.14327e-17)
(0.532925 0.282051 -2.72398e-18)
(0.513849 0.288117 -5.84819e-19)
(0.490749 0.297622 5.19838e-18)
(0.468243 0.299521 3.72616e-19)
(0.442197 0.298598 2.92001e-18)
(0.414304 0.289363 1.87382e-18)
(0.383662 0.274132 5.76966e-18)
(0.351952 0.252241 -4.57834e-18)
(0.320179 0.226399 -1.25864e-17)
(0.29001 0.198322 -5.89836e-17)
(0.262432 0.17015 -7.16959e-18)
(0.238099 0.143019 -6.85662e-17)
(0.217208 0.117673 2.04765e-17)
(0.199656 0.0942476 -2.59768e-18)
(0.185186 0.0726415 3.58143e-19)
(0.173436 0.0525889 -5.19727e-20)
(0.164053 0.0337929 -1.06245e-18)
(0.156699 0.0160106 -8.4268e-18)
)
;
    }
    procBoundary7to6
    {
        type            processor;
        value           nonuniform List<vector> 10((0.0560558 -0.00349634 -1.20842e-17) (-0.040789 -0.0055778 -2.00213e-18) (-0.138417 -0.00756149 8.63786e-20) (-0.23556 -0.00915666 3.47671e-19) (-0.330504 -0.0102622 3.45658e-19) (-0.420775 -0.0106213 5.33576e-19) (-0.502788 -0.0100253 7.04913e-19) (-0.571784 -0.00832409 1.31692e-19) (-0.622245 -0.00554089 8.68871e-19) (-0.649054 -0.00194823 7.15566e-18));
    }
    procBoundary7to11
    {
        type            processor;
        value           nonuniform List<vector> 
25
(
(0.517821 -0.0173385 -9.27748e-18)
(0.390683 -0.0164994 -1.00397e-17)
(0.384065 -0.0155863 -1.51071e-17)
(0.278408 -0.0169061 6.38274e-18)
(0.250218 -0.0159461 4.31336e-18)
(0.160678 -0.0177824 1.6263e-18)
(0.111948 -0.017093 -2.27721e-17)
(0.0320759 -0.0186609 2.80102e-17)
(-0.0309917 -0.0181523 5.26634e-18)
(-0.106075 -0.018788 -1.67746e-17)
(-0.175205 -0.0183273 5.14571e-19)
(-0.245247 -0.017795 1.36316e-18)
(-0.311376 -0.0167929 8.48435e-20)
(-0.373415 -0.0154745 -3.64319e-19)
(-0.429743 -0.0138903 -8.80103e-18)
(-0.4797 -0.0121597 2.97141e-17)
(-0.522896 -0.0103808 -8.37061e-18)
(-0.559326 -0.00863607 4.38764e-17)
(-0.589243 -0.00697579 1.2103e-18)
(-0.613033 -0.00542567 2.50905e-18)
(-0.631135 -0.00398865 -4.43553e-18)
(-0.643968 -0.00265604 -8.46251e-18)
(-0.651901 -0.00141154 -1.39526e-17)
(-0.655244 -0.000237221 -7.71471e-18)
(-0.654233 0.000878564 -3.46758e-17)
)
;
    }
}


// ************************************************************************* //
