/*--------------------------------*- C++ -*----------------------------------*\
  =========                 |
  \\      /  F ield         | OpenFOAM: The Open Source CFD Toolbox
   \\    /   O peration     | Website:  https://openfoam.org
    \\  /    A nd           | Version:  7
     \\/     M anipulation  |
\*---------------------------------------------------------------------------*/
FoamFile
{
    version     2.0;
    format      ascii;
    class       surfaceScalarField;
    location    "44";
    object      phi;
}
// * * * * * * * * * * * * * * * * * * * * * * * * * * * * * * * * * * * * * //

dimensions      [0 3 -1 0 0 0 0];

internalField   nonuniform List<scalar> 
319
(
-0.000388867
-0.0106379
0.0107174
-0.00047045
-0.010636
0.0107176
-0.000551951
-0.0106172
0.0106987
-0.000634719
-0.0106085
0.0106913
-0.0007179
-0.0106013
0.0106845
-0.000802103
-0.0106028
0.010687
-0.000887062
-0.0106106
0.0106956
-0.0106279
0.0107139
-0.00038789
-0.0105583
-0.000469414
-0.0105545
-0.000550996
-0.0105356
-0.000633765
-0.0105258
-0.00071701
-0.0105181
-0.000801255
-0.0105185
-0.0008863
-0.0105255
-0.0105418
-0.000386844
-0.0104785
-0.000468348
-0.010473
-0.000550003
-0.010454
-0.00063279
-0.010443
-0.000716096
-0.0104347
-0.000800391
-0.0104342
-0.000885523
-0.0104404
-0.0104556
-0.000385732
-0.0103986
-0.000467237
-0.0103915
-0.000548961
-0.0103723
-0.000631767
-0.0103602
-0.00071513
-0.0103514
-0.000799472
-0.0103499
-0.000884684
-0.0103552
-0.0103692
-0.000384555
-0.0103185
-0.000466079
-0.01031
-0.000547869
-0.0102905
-0.000630696
-0.0102773
-0.00071411
-0.010268
-0.000798496
-0.0102655
-0.00088378
-0.0102699
-0.0102828
-0.000383316
-0.0102383
-0.000464874
-0.0102284
-0.000546727
-0.0102086
-0.000629577
-0.0101945
-0.000713037
-0.0101845
-0.000797462
-0.0101811
-0.00088281
-0.0101846
-0.0101963
-0.000382016
-0.0101579
-0.00046362
-0.0101468
-0.000545534
-0.0101267
-0.000628406
-0.0101116
-0.000711908
-0.010101
-0.000796367
-0.0100966
-0.00088177
-0.0100992
-0.0101097
-0.000380658
-0.0100773
-0.000462316
-0.0100652
-0.00054429
-0.0100447
-0.000627183
-0.0100287
-0.000710721
-0.0100175
-0.000795207
-0.0100121
-0.000880656
-0.0100137
-0.010023
-0.000379237
-0.00999667
-0.000460964
-0.00998343
-0.000542992
-0.0099627
-0.000625905
-0.00994581
-0.000709473
-0.0099339
-0.000793982
-0.00992762
-0.00087947
-0.00992823
-0.0099363
-0.000377805
-0.000459519
-0.000541632
-0.000624529
-0.000708128
-0.000792643
-0.000878169
-0.010944
0.00269592
-0.0108821
0.00273184
-0.0108063
0.00277085
0.0028125
-0.0111163
0.00246478
-0.0111254
0.00248221
-0.0111268
0.00249971
-0.0111208
0.00251751
-0.0111075
0.00253589
-0.011087
0.00255508
-0.0110592
0.00257527
-0.0110237
0.00259658
-0.01098
0.00261913
-0.0109271
0.00264301
-0.0108635
0.0026682
-0.0107872
0.0026946
0.00272085
-0.0111488
0.00246794
-0.0111464
0.00247982
-0.0111386
0.00249189
-0.0111254
0.00250429
-0.0111066
0.00251715
-0.0110821
0.00253057
-0.0110514
0.00254458
-0.011014
0.00255914
-0.010969
0.00257413
-0.0109154
0.00258939
-0.0108518
0.00260461
-0.0107764
0.00261922
0.00263141
-0.0111589
0.00246437
-0.0111512
0.0024722
-0.0111395
0.0024801
-0.0111233
0.00248813
-0.0111024
0.0024963
-0.0110764
0.00250458
-0.0110448
0.00251289
-0.0110067
0.00252105
-0.0109613
0.00252879
-0.0109077
0.00253577
-0.0108447
0.00254161
-0.0107711
0.00254558
0.00254482
-0.0111607
0.00245797
-0.011151
0.00246251
-0.0111377
0.00246687
-0.0111206
0.00247101
-0.0110992
0.00247487
-0.0110729
0.00247833
-0.0110413
0.00248121
-0.0110035
0.00248327
-0.0109588
0.0024841
-0.0109063
0.00248327
-0.010845
0.0024803
-0.0107736
0.00247419
0.00246252
-0.0111601
0.00245053
-0.0111497
0.00245214
-0.011136
0.00245322
-0.0111187
0.00245369
-0.0110972
0.00245338
-0.011071
0.00245214
-0.0110395
0.00244971
-0.011002
0.00244576
-0.0109578
0.00243985
-0.0109059
0.00243143
-0.0108458
0.00242016
-0.0107771
0.00240554
0.00238412
-0.0111593
0.00244288
-0.0111489
0.00244173
-0.0111354
0.00243969
-0.0111183
0.00243661
-0.0110972
0.0024323
-0.0110716
0.00242653
-0.0110409
0.00241901
-0.0110045
0.00240939
-0.0109619
0.00239723
-0.0109124
0.00238198
-0.0108553
0.00236301
-0.0107897
0.00233996
0.00231201
-0.0111573
-0.0111468
-0.0111332
-0.0111161
-0.0110949
-0.0110693
-0.0110385
-0.011002
-0.0109591
-0.0109092
-0.0108523
-0.0107881
)
;

boundaryField
{
    inlet
    {
        type            calculated;
        value           nonuniform 0();
    }
    outlet
    {
        type            calculated;
        value           nonuniform 0();
    }
    polygon
    {
        type            calculated;
        value           nonuniform 0();
    }
    top
    {
        type            symmetryPlane;
        value           uniform 0;
    }
    bottom
    {
        type            symmetryPlane;
        value           uniform 0;
    }
    outside
    {
        type            calculated;
        value           nonuniform List<scalar> 
23
(
0.000309408
0.00030826
0.00030706
0.000305795
0.000304469
0.000303081
0.000301634
0.000300126
0.000298561
0.000296882
0.0024351
0.00243122
0.00242607
0.00241947
0.00241116
0.00240086
0.00238823
0.00237287
0.00235433
0.00233214
0.00230603
0.0022758
0.00224131
)
;
    }
    procBoundary2to1
    {
        type            processor;
        value           nonuniform List<scalar> 5(-0.00991575 -0.00990171 -0.00988059 -0.00986291 -0.0098503);
    }
    procBoundary2to3
    {
        type            processor;
        value           nonuniform List<scalar> 7(0.0110991 0.0111456 0.0111624 0.0111671 0.0111675 0.0111669 0.0111651);
    }
    procBoundary2to9
    {
        type            processor;
        value           nonuniform List<scalar> 3(-0.00984311 -0.00984271 -0.00984953);
    }
    procBoundary2to10
    {
        type            processor;
        value           nonuniform List<scalar> 
24
(
-0.000973055
-0.000972411
-0.000971752
-0.00097102
-0.000970215
-0.000969332
-0.000968367
-0.000967314
-0.000966183
-0.000964934
-0.00274584
-0.00279372
-0.00284671
-0.0029049
-0.00244755
-0.00247309
-0.00249832
-0.00252357
-0.00254918
-0.00257557
-0.00260309
-0.00263205
0.0109939
-0.00266281
)
;
    }
}


// ************************************************************************* //
