/*--------------------------------*- C++ -*----------------------------------*\
  =========                 |
  \\      /  F ield         | OpenFOAM: The Open Source CFD Toolbox
   \\    /   O peration     | Website:  https://openfoam.org
    \\  /    A nd           | Version:  7
     \\/     M anipulation  |
\*---------------------------------------------------------------------------*/
FoamFile
{
    version     2.0;
    format      ascii;
    class       volScalarField;
    location    "46";
    object      p;
}
// * * * * * * * * * * * * * * * * * * * * * * * * * * * * * * * * * * * * * //

dimensions      [0 2 -2 0 0 0 0];

internalField   nonuniform List<scalar> 
175
(
-0.162943
-0.16376
-0.164462
-0.165016
-0.165384
-0.150334
-0.151323
-0.152334
-0.153363
-0.154406
-0.155458
-0.15651
-0.157556
-0.158584
-0.159584
-0.160539
-0.161431
-0.162239
-0.162937
-0.163495
-0.163877
-0.164041
-0.150028
-0.15102
-0.152032
-0.153057
-0.154092
-0.155129
-0.156161
-0.157177
-0.158166
-0.159113
-0.160002
-0.160813
-0.161521
-0.162099
-0.162515
-0.162731
-0.162703
-0.149706
-0.150707
-0.151723
-0.152748
-0.153778
-0.154803
-0.155814
-0.156801
-0.157751
-0.158647
-0.159472
-0.160204
-0.160818
-0.161285
-0.161571
-0.161637
-0.161439
-0.149365
-0.150379
-0.151404
-0.152434
-0.153462
-0.154478
-0.155473
-0.156434
-0.157348
-0.158199
-0.158967
-0.159629
-0.16016
-0.16053
-0.160703
-0.160641
-0.160299
-0.149002
-0.150037
-0.151077
-0.152117
-0.153147
-0.154159
-0.155142
-0.156083
-0.156969
-0.157782
-0.158502
-0.159106
-0.159568
-0.159857
-0.159939
-0.159772
-0.159311
-0.148621
-0.149683
-0.150745
-0.151799
-0.152838
-0.153851
-0.154829
-0.155757
-0.156622
-0.157407
-0.15809
-0.158649
-0.159057
-0.159284
-0.159293
-0.159045
-0.158492
-0.148229
-0.149324
-0.150412
-0.151487
-0.15254
-0.153561
-0.154539
-0.155462
-0.156315
-0.15708
-0.157738
-0.158266
-0.158635
-0.158817
-0.158774
-0.158468
-0.157851
-0.14783
-0.148964
-0.150085
-0.151186
-0.152258
-0.153292
-0.154278
-0.155203
-0.156053
-0.156809
-0.157454
-0.157963
-0.15831
-0.158464
-0.158391
-0.15805
-0.157395
-0.147429
-0.148607
-0.149765
-0.150896
-0.151993
-0.153046
-0.154045
-0.154979
-0.155833
-0.156591
-0.157232
-0.157735
-0.158074
-0.158218
-0.158132
-0.157778
-0.157108
-0.146999
-0.148232
-0.149437
-0.150608
-0.151738
-0.152819
-0.153842
-0.154795
-0.155665
-0.156437
-0.157092
-0.157607
-0.157958
-0.158115
-0.158045
-0.15771
-0.157063
)
;

boundaryField
{
    inlet
    {
        type            zeroGradient;
    }
    outlet
    {
        type            fixedValue;
        value           nonuniform 0();
    }
    polygon
    {
        type            zeroGradient;
    }
    top
    {
        type            symmetryPlane;
    }
    bottom
    {
        type            symmetryPlane;
    }
    outside
    {
        type            slip;
    }
    procBoundary3to2
    {
        type            processor;
        value           nonuniform List<scalar> 7(-0.159624 -0.158505 -0.157585 -0.156871 -0.156375 -0.156073 -0.156054);
    }
    procBoundary3to4
    {
        type            processor;
        value           nonuniform List<scalar> 10(-0.149369 -0.149059 -0.148726 -0.148367 -0.147979 -0.147566 -0.147134 -0.14669 -0.146238 -0.145743);
    }
    procBoundary3to10
    {
        type            processor;
        value           nonuniform List<scalar> 4(-0.16552 -0.163941 -0.162383 -0.160927);
    }
    procBoundary3to11
    {
        type            processor;
        value           nonuniform List<scalar> 
18
(
-0.163612
-0.164537
-0.165371
-0.166087
-0.166651
-0.150625
-0.151617
-0.152632
-0.153669
-0.154722
-0.155789
-0.156862
-0.157936
-0.159002
-0.16005
-0.161067
-0.162037
-0.162037
)
;
    }
}


// ************************************************************************* //
