/*--------------------------------*- C++ -*----------------------------------*\
  =========                 |
  \\      /  F ield         | OpenFOAM: The Open Source CFD Toolbox
   \\    /   O peration     | Website:  https://openfoam.org
    \\  /    A nd           | Version:  10
     \\/     M anipulation  |
\*---------------------------------------------------------------------------*/
FoamFile
{
    format      ascii;
    class       volScalarField;
    location    "20";
    object      p;
}
// * * * * * * * * * * * * * * * * * * * * * * * * * * * * * * * * * * * * * //

dimensions      [0 2 -2 0 0 0 0];

internalField   nonuniform List<scalar> 
800
(
-0.234791
-0.22295
-0.223417
-0.216715
-0.225295
-0.222329
-0.259376
-0.28061
-0.324785
-0.912094
-0.243279
-0.2317
-0.232498
-0.226712
-0.236388
-0.236105
-0.271069
-0.318954
-0.401886
-0.382928
-0.251147
-0.239585
-0.240893
-0.236509
-0.247734
-0.254237
-0.292788
-0.352599
-0.446104
-0.47306
-0.258581
-0.24712
-0.248946
-0.246128
-0.258609
-0.271693
-0.314412
-0.387633
-0.439926
-0.44822
-0.265772
-0.254571
-0.256905
-0.255581
-0.269123
-0.28697
-0.333025
-0.418209
-0.432846
-0.48391
-0.272764
-0.261931
-0.26477
-0.264841
-0.279617
-0.301417
-0.352611
-0.438729
-0.441977
-0.486068
-0.279549
-0.269136
-0.272473
-0.273718
-0.289441
-0.3135
-0.371197
-0.446176
-0.463748
-0.485352
-0.286087
-0.276108
-0.279909
-0.28211
-0.298805
-0.324989
-0.391321
-0.448964
-0.490911
-0.473512
-0.29239
-0.282881
-0.287111
-0.289972
-0.307007
-0.332772
-0.403321
-0.451063
-0.513742
-0.459481
-0.298378
-0.289369
-0.293922
-0.297245
-0.314868
-0.343032
-0.420767
-0.479418
-0.539063
-0.432766
-0.14782
-0.12392
-0.114844
-0.086638
-0.0634206
-0.0137392
0.038057
0.146834
0.225427
0.439665
-0.157133
-0.134028
-0.126598
-0.100006
-0.0811522
-0.0354195
0.00391407
0.105236
0.153085
0.368561
-0.166209
-0.144523
-0.139072
-0.115702
-0.102763
-0.0643654
-0.0384163
0.0556895
0.0926281
0.315655
-0.174647
-0.154497
-0.150673
-0.13042
-0.12246
-0.0908125
-0.0759845
0.0081589
0.026383
0.253692
-0.182883
-0.16417
-0.161701
-0.144184
-0.140573
-0.115505
-0.112166
-0.0422332
-0.045768
0.176164
-0.191258
-0.173873
-0.172602
-0.15759
-0.15808
-0.139081
-0.148384
-0.0919847
-0.120651
0.0962602
-0.199824
-0.183708
-0.183446
-0.170793
-0.174912
-0.161269
-0.182722
-0.141167
-0.197298
-0.0214181
-0.208505
-0.193613
-0.194085
-0.183524
-0.190454
-0.180942
-0.212345
-0.183947
-0.271635
-0.12017
-0.217209
-0.203495
-0.204322
-0.195578
-0.204096
-0.198418
-0.235407
-0.225924
-0.333691
-0.352841
-0.225954
-0.213296
-0.214104
-0.206728
-0.216
-0.212437
-0.252792
-0.251241
-0.340224
-0.482335
-0.225953
-0.213295
-0.214103
-0.206727
-0.215999
-0.212435
-0.252791
-0.25124
-0.340223
-0.482334
-0.217208
-0.203494
-0.204321
-0.195577
-0.204094
-0.198417
-0.235406
-0.225923
-0.33369
-0.35284
-0.208503
-0.193612
-0.194083
-0.183522
-0.190453
-0.180941
-0.212344
-0.183946
-0.271634
-0.120169
-0.199822
-0.183707
-0.183445
-0.170792
-0.174911
-0.161268
-0.182721
-0.141166
-0.197297
-0.0214172
-0.191257
-0.173872
-0.172601
-0.157589
-0.158079
-0.13908
-0.148383
-0.0919838
-0.12065
0.096261
-0.182882
-0.164169
-0.1617
-0.144183
-0.140572
-0.115504
-0.112165
-0.0422323
-0.0457672
0.176165
-0.174646
-0.154496
-0.150672
-0.130419
-0.122459
-0.0908115
-0.0759836
0.00815972
0.0263838
0.253693
-0.166208
-0.144522
-0.139071
-0.115701
-0.102762
-0.0643645
-0.0384154
0.0556903
0.0926288
0.315656
-0.157132
-0.134027
-0.126597
-0.100005
-0.0811512
-0.0354186
0.00391488
0.105237
0.153086
0.368562
-0.147819
-0.123919
-0.114843
-0.086637
-0.0634197
-0.0137384
0.0380577
0.146835
0.225427
0.439666
-0.298377
-0.289368
-0.293921
-0.297244
-0.314867
-0.343031
-0.420766
-0.479417
-0.539062
-0.432765
-0.292389
-0.28288
-0.28711
-0.289971
-0.307006
-0.332771
-0.40332
-0.451063
-0.513742
-0.45948
-0.286086
-0.276107
-0.279908
-0.282109
-0.298804
-0.324988
-0.39132
-0.448963
-0.49091
-0.473511
-0.279548
-0.269135
-0.272472
-0.273717
-0.28944
-0.313499
-0.371196
-0.446175
-0.463748
-0.485351
-0.272763
-0.26193
-0.264769
-0.26484
-0.279616
-0.301416
-0.35261
-0.438728
-0.441976
-0.486068
-0.265771
-0.25457
-0.256903
-0.25558
-0.269122
-0.286969
-0.333024
-0.418208
-0.432845
-0.48391
-0.25858
-0.247119
-0.248945
-0.246127
-0.258607
-0.271691
-0.314411
-0.387632
-0.439926
-0.448219
-0.251146
-0.239584
-0.240891
-0.236508
-0.247733
-0.254236
-0.292787
-0.352598
-0.446103
-0.473059
-0.243278
-0.231699
-0.232497
-0.226711
-0.236387
-0.236104
-0.271068
-0.318953
-0.401885
-0.382927
-0.234789
-0.222949
-0.223416
-0.216713
-0.225294
-0.222328
-0.259374
-0.280609
-0.324784
-0.912093
-0.0952327
-0.070112
-0.0567818
-0.0321851
-0.00730284
0.0281398
0.0741944
0.137236
0.212768
0.30267
-0.0439128
-0.0239721
-0.0110915
0.0105242
0.0325266
0.0600784
0.0877839
0.12063
0.144376
0.172279
-0.00955849
0.00277346
0.0104535
0.0225007
0.0345769
0.0477193
0.0621304
0.0752
0.0878085
0.0960394
0.00844318
0.0169712
0.0221113
0.0303847
0.0377759
0.0460928
0.0532224
0.0601618
0.064759
0.0677385
0.0186803
0.0229461
0.0255752
0.0294841
0.033254
0.0370258
0.0407773
0.0438073
0.0463271
0.0476175
0.024543
0.0275558
0.0292102
0.0319424
0.0341642
0.0366029
0.0385403
0.0403074
0.0414187
0.0420545
0.0273283
0.0285085
0.0292815
0.0303968
0.0314703
0.0325094
0.0335081
0.0342861
0.0348983
0.0351999
0.0291237
0.0302466
0.030784
0.0317462
0.0324508
0.0332482
0.033847
0.0343895
0.0347248
0.0349166
0.0296189
0.029917
0.0301321
0.0304355
0.0307424
0.0310369
0.0313234
0.0315429
0.0317173
0.0318012
0.0305055
0.0309619
0.0311916
0.0316102
0.0319067
0.0322557
0.0325197
0.0327563
0.0329119
0.0329999
-0.023121
-0.0225897
-0.0222645
-0.0219092
-0.0215689
-0.0212615
-0.0209959
-0.0207881
-0.0206464
-0.020575
0.0310188
0.0320115
0.033012
0.0341703
0.0354778
0.0368055
0.0380609
0.0391064
0.0398438
0.0402204
-0.0367643
-0.0369586
-0.0366159
-0.0361799
-0.0354604
-0.0346279
-0.0337419
-0.0329613
-0.032389
-0.0320926
0.0206315
0.0204269
0.0215583
0.0227869
0.0247897
0.0268613
0.0289747
0.030684
0.0318335
0.0323861
-0.0857763
-0.0936344
-0.0955134
-0.0995337
-0.100872
-0.101771
-0.101366
-0.100388
-0.0992484
-0.0985303
-0.0764624
-0.0857722
-0.0868118
-0.091514
-0.0917129
-0.0925083
-0.0915304
-0.0906753
-0.0898861
-0.089468
-0.223784
-0.255481
-0.263471
-0.285056
-0.293969
-0.302959
-0.304
-0.301663
-0.297429
-0.294796
-0.344511
-0.370108
-0.382622
-0.404062
-0.419031
-0.431595
-0.435999
-0.436058
-0.432648
-0.43063
-0.439089
-0.448949
-0.459303
-0.471847
-0.485418
-0.494892
-0.500144
-0.499131
-0.49881
-0.49447
-0.367985
-0.367809
-0.374168
-0.380574
-0.389777
-0.392604
-0.393884
-0.389575
-0.397985
-0.386906
0.0305054
0.0309619
0.0311916
0.0316102
0.0319067
0.0322557
0.0325197
0.0327563
0.0329119
0.0329998
0.0296189
0.0299169
0.030132
0.0304354
0.0307424
0.0310369
0.0313234
0.0315429
0.0317173
0.0318012
0.0291236
0.0302465
0.030784
0.0317461
0.0324508
0.0332482
0.0338469
0.0343895
0.0347248
0.0349166
0.0273282
0.0285084
0.0292814
0.0303967
0.0314702
0.0325093
0.0335081
0.034286
0.0348983
0.0351999
0.0245428
0.0275556
0.02921
0.0319423
0.0341641
0.0366028
0.0385403
0.0403074
0.0414186
0.0420545
0.0186801
0.0229459
0.025575
0.0294839
0.0332538
0.0370256
0.0407772
0.0438072
0.0463271
0.0476175
0.00844289
0.0169709
0.0221111
0.0303845
0.0377757
0.0460926
0.0532222
0.0601617
0.0647589
0.0677385
-0.00955892
0.00277304
0.0104531
0.0225003
0.0345765
0.047719
0.0621302
0.0751998
0.0878083
0.0960394
-0.0439134
-0.0239727
-0.011092
0.0105237
0.0325261
0.060078
0.0877836
0.12063
0.144375
0.172279
-0.0952335
-0.0701129
-0.0567826
-0.0321859
-0.0073036
0.0281391
0.0741938
0.137235
0.212768
0.30267
-0.367986
-0.36781
-0.374169
-0.380575
-0.389777
-0.392604
-0.393884
-0.389575
-0.397985
-0.386906
-0.43909
-0.44895
-0.459303
-0.471848
-0.485418
-0.494892
-0.500145
-0.499131
-0.49881
-0.49447
-0.344512
-0.370108
-0.382622
-0.404062
-0.419031
-0.431595
-0.435999
-0.436058
-0.432648
-0.43063
-0.223784
-0.255481
-0.263472
-0.285056
-0.29397
-0.302959
-0.304
-0.301663
-0.297429
-0.294796
-0.0764624
-0.0857722
-0.0868118
-0.0915141
-0.0917129
-0.0925083
-0.0915304
-0.0906753
-0.0898861
-0.089468
-0.0857763
-0.0936344
-0.0955134
-0.0995337
-0.100872
-0.101771
-0.101366
-0.100388
-0.0992484
-0.0985303
0.0206315
0.0204269
0.0215583
0.0227869
0.0247897
0.0268613
0.0289747
0.030684
0.0318335
0.0323861
-0.0367643
-0.0369586
-0.0366159
-0.0361799
-0.0354605
-0.0346279
-0.0337419
-0.0329613
-0.032389
-0.0320926
0.0310188
0.0320115
0.0330119
0.0341703
0.0354778
0.0368055
0.0380609
0.0391064
0.0398438
0.0402204
-0.023121
-0.0225897
-0.0222645
-0.0219092
-0.0215689
-0.0212615
-0.0209959
-0.0207881
-0.0206464
-0.020575
)
;

boundaryField
{
    inlet
    {
        type            zeroGradient;
    }
    outlet
    {
        type            fixedValue;
        value           uniform 0;
    }
    polygon
    {
        type            zeroGradient;
    }
    top
    {
        type            symmetryPlane;
    }
    bottom
    {
        type            symmetryPlane;
    }
    outside
    {
        type            slip;
    }
}


// ************************************************************************* //
