/*--------------------------------*- C++ -*----------------------------------*\
  =========                 |
  \\      /  F ield         | OpenFOAM: The Open Source CFD Toolbox
   \\    /   O peration     | Website:  https://openfoam.org
    \\  /    A nd           | Version:  10
     \\/     M anipulation  |
\*---------------------------------------------------------------------------*/
FoamFile
{
    format      ascii;
    class       surfaceScalarField;
    location    "20";
    object      phi;
}
// * * * * * * * * * * * * * * * * * * * * * * * * * * * * * * * * * * * * * //

dimensions      [0 3 -1 0 0 0 0];

internalField   nonuniform List<scalar> 
1520
(
-0.00146081
0.0189887
-0.0182787
-0.00216182
0.0188947
-0.0181937
-0.00286259
0.0187707
-0.0180699
-0.00357665
0.0186912
-0.0179772
-0.00432034
0.0186307
-0.0178871
-0.00510183
0.0186784
-0.0178969
-0.005978
0.0186515
-0.0177754
-0.00681368
0.0192332
-0.0183975
-0.0066436
0.0173753
-0.0175454
0.0117447
-0.0183883
-0.00148081
0.019701
-0.00218656
0.0196005
-0.00289417
0.0194783
-0.00361506
0.0194121
-0.00436258
0.0193783
-0.00515487
0.0194706
-0.00598579
0.0194825
-0.0063935
0.0196409
-0.00515945
0.0161412
0.00658527
-0.00150014
0.0204158
-0.00220988
0.0203102
-0.00292413
0.0201925
-0.00365371
0.0201417
-0.00441007
0.0201346
-0.00519318
0.0202538
-0.00590027
0.0201896
-0.00593275
0.0196734
-0.00381808
0.0140266
0.00276719
-0.00151841
0.0211328
-0.00223153
0.0210233
-0.00295041
0.0209114
-0.00368507
0.0208763
-0.00444165
0.0208912
-0.00519373
0.0210058
-0.00573103
0.0207269
-0.00532209
0.0192644
-0.00259396
0.0112984
0.000173237
-0.00153589
0.0218517
-0.00225221
0.0217396
-0.00297564
0.0216348
-0.00371542
0.0216161
-0.00446654
0.0216423
-0.00515935
0.0216986
-0.00549155
0.021059
-0.00463104
0.0184039
-0.00164023
0.00830764
-0.001467
-0.00155215
0.0225723
-0.00227124
0.0224587
-0.00299707
0.0223607
-0.00373379
0.0223529
-0.00446045
0.022369
-0.00506101
0.0222992
-0.00517606
0.0211741
-0.00385517
0.0170831
-0.00100754
0.00546001
-0.00247454
-0.00156806
0.0232944
-0.00228955
0.0231802
-0.00301817
0.0230893
-0.00375415
0.0230888
-0.00445826
0.0230731
-0.00495092
0.0227919
-0.00481519
0.0210384
-0.003075
0.0153429
-0.000600409
0.00298542
-0.00307495
-0.00158205
0.024018
-0.00230563
0.0239038
-0.00303401
0.0238177
-0.00375479
0.0238096
-0.0044024
0.0237207
-0.00474862
0.0231381
-0.00436545
0.0206552
-0.0024176
0.013395
-0.000378008
0.000945823
-0.00345295
-0.00159703
0.0247426
-0.00232176
0.0246285
-0.00305003
0.0245459
-0.0037631
0.0245227
-0.00437632
0.0243339
-0.00460702
0.0233688
-0.00396389
0.0200121
-0.0019625
0.0113936
-0.000284354
-0.000732324
-0.00373731
-0.00160616
0.0254659
-0.00233688
0.0253593
-0.00306184
0.0252709
-0.00374675
0.0252076
-0.00425446
0.0248416
-0.00427609
0.0233904
-0.00337393
0.0191099
-0.00150623
0.00952593
-0.000232953
-0.00200561
-0.00397026
-0.000147151
0.022591
-0.0230428
0.000273193
0.0222564
-0.0226768
0.000663158
0.021994
-0.022384
0.000996146
0.0214693
-0.0218023
0.00124409
0.0209507
-0.0211986
0.00136289
0.0199377
-0.0200565
0.00127047
0.0187581
-0.0186656
0.000967682
0.0164816
-0.0161788
0.000454424
0.0141539
-0.0136407
0.00791323
-0.00745881
-0.00015942
0.0221333
0.000263545
0.0218335
0.000659952
0.0215976
0.000995669
0.0211336
0.00124773
0.0206986
0.00136639
0.0198191
0.00129415
0.0188303
0.000976309
0.0167994
0.000521519
0.0146087
0.00843475
-0.000171187
0.0216713
0.00025743
0.0214049
0.000660833
0.0211942
0.00100592
0.0207885
0.00127332
0.0204312
0.00140916
0.0196832
0.00135844
0.018881
0.00102336
0.0171345
0.000521056
0.015111
0.00895581
-0.000182001
0.0212045
0.000253177
0.0209697
0.000665125
0.0207823
0.0010218
0.0204318
0.00130756
0.0201455
0.00146112
0.0195297
0.00143904
0.0189031
0.0010977
0.0174759
0.000575618
0.0156331
0.00953143
-0.000192158
0.0207325
0.000249873
0.0205277
0.000671132
0.020361
0.00104035
0.0200626
0.00134625
0.0198396
0.001523
0.0193529
0.00154143
0.0188847
0.00122663
0.0177907
0.000683211
0.0161765
0.0102146
-0.000201036
0.0202548
0.000248702
0.0200779
0.000681104
0.0199286
0.00106507
0.0196787
0.00139706
0.0195076
0.00160592
0.0191441
0.00168359
0.018807
0.00138479
0.0180895
0.000865212
0.0166961
0.0110799
-0.000209793
0.0197711
0.000247764
0.0196204
0.000691338
0.019485
0.00109089
0.0192791
0.00144796
0.0191505
0.00169434
0.0188977
0.00182791
0.0186734
0.00161206
0.0183053
0.00108985
0.0172183
0.0121697
-0.000216179
0.0192805
0.000250743
0.0191534
0.00070885
0.0190269
0.00112648
0.0188615
0.0015181
0.0187589
0.00180834
0.0186075
0.00202743
0.0184543
0.00186753
0.0184652
0.00151231
0.0175736
0.013682
-0.000224961
0.0187836
0.000249127
0.0186794
0.000717702
0.0185583
0.00114932
0.0184299
0.00156204
0.0183462
0.00188765
0.0182818
0.00217585
0.0181661
0.00217131
0.0184697
0.00191073
0.0178341
0.0155927
-0.000227068
0.000258594
0.000747046
0.00119975
0.00165887
0.00204385
0.0024346
0.00250682
0.00279557
-0.000227068
-0.0187836
0.0182787
0.000258594
-0.0186794
0.0181937
0.000747046
-0.0185583
0.0180699
0.00119975
-0.0184299
0.0179772
0.00165887
-0.0183462
0.0178871
0.00204385
-0.0182818
0.0178969
0.0024346
-0.0181661
0.0177754
0.00250682
-0.0184697
0.0183975
0.00279557
-0.0178341
0.0175454
-0.0155927
0.0183883
-0.000224961
-0.0192805
0.000249127
-0.0191534
0.000717702
-0.0190269
0.00114932
-0.0188615
0.00156204
-0.0187589
0.00188765
-0.0186075
0.00217585
-0.0184543
0.00217131
-0.0184652
0.00191073
-0.0175736
-0.013682
-0.000216179
-0.0197711
0.000250743
-0.0196204
0.00070885
-0.019485
0.00112648
-0.0192791
0.0015181
-0.0191505
0.00180834
-0.0188977
0.00202743
-0.0186734
0.00186753
-0.0183053
0.00151231
-0.0172183
-0.0121697
-0.000209793
-0.0202548
0.000247764
-0.0200779
0.000691338
-0.0199286
0.00109089
-0.0196787
0.00144796
-0.0195076
0.00169434
-0.0191441
0.00182791
-0.018807
0.00161206
-0.0180895
0.00108985
-0.0166961
-0.0110799
-0.000201036
-0.0207325
0.000248702
-0.0205277
0.000681104
-0.020361
0.00106507
-0.0200626
0.00139706
-0.0198396
0.00160592
-0.0193529
0.00168359
-0.0188847
0.00138479
-0.0177907
0.000865212
-0.0161765
-0.0102146
-0.000192158
-0.0212045
0.000249873
-0.0209697
0.000671132
-0.0207823
0.00104035
-0.0204318
0.00134625
-0.0201455
0.001523
-0.0195297
0.00154143
-0.0189031
0.00122663
-0.0174759
0.000683211
-0.0156331
-0.00953143
-0.000182001
-0.0216713
0.000253177
-0.0214049
0.000665125
-0.0211942
0.0010218
-0.0207885
0.00130756
-0.0204312
0.00146112
-0.0196832
0.00143904
-0.018881
0.0010977
-0.0171345
0.000575618
-0.015111
-0.00895581
-0.000171187
-0.0221333
0.00025743
-0.0218335
0.000660833
-0.0215976
0.00100592
-0.0211336
0.00127332
-0.0206986
0.00140916
-0.0198191
0.00135844
-0.0188303
0.00102336
-0.0167994
0.000521056
-0.0146087
-0.00843475
-0.00015942
-0.022591
0.000263545
-0.0222564
0.000659952
-0.021994
0.000995669
-0.0214693
0.00124773
-0.0209507
0.00136639
-0.0199377
0.00129415
-0.0187581
0.000976309
-0.0164816
0.000521519
-0.0141539
-0.00791323
-0.000147151
-0.0230428
0.000273193
-0.0226768
0.000663158
-0.022384
0.000996146
-0.0218023
0.00124409
-0.0211986
0.00136289
-0.0200565
0.00127047
-0.0186656
0.000967682
-0.0161788
0.000454424
-0.0136407
-0.00745881
-0.00160616
-0.0247426
0.0254659
-0.00233688
-0.0246285
0.0253593
-0.00306184
-0.0245459
0.0252709
-0.00374675
-0.0245227
0.0252076
-0.00425446
-0.0243339
0.0248416
-0.00427609
-0.0233688
0.0233904
-0.00337393
-0.0200121
0.0191099
-0.00150623
-0.0113936
0.00952593
-0.000232953
0.000732324
-0.00200561
0.00373731
-0.00397026
-0.00159703
-0.024018
-0.00232176
-0.0239038
-0.00305003
-0.0238177
-0.0037631
-0.0238096
-0.00437632
-0.0237207
-0.00460702
-0.0231381
-0.00396389
-0.0206552
-0.0019625
-0.013395
-0.000284354
-0.000945823
0.00345295
-0.00158205
-0.0232944
-0.00230563
-0.0231802
-0.00303401
-0.0230893
-0.00375479
-0.0230888
-0.0044024
-0.0230731
-0.00474862
-0.0227919
-0.00436545
-0.0210384
-0.0024176
-0.0153429
-0.000378008
-0.00298542
0.00307495
-0.00156806
-0.0225723
-0.00228955
-0.0224587
-0.00301817
-0.0223607
-0.00375415
-0.0223529
-0.00445826
-0.022369
-0.00495092
-0.0222992
-0.00481519
-0.0211741
-0.003075
-0.0170831
-0.000600409
-0.00546001
0.00247454
-0.00155215
-0.0218517
-0.00227124
-0.0217396
-0.00299707
-0.0216348
-0.00373379
-0.0216161
-0.00446045
-0.0216423
-0.00506101
-0.0216986
-0.00517606
-0.021059
-0.00385517
-0.0184039
-0.00100754
-0.00830764
0.001467
-0.00153589
-0.0211328
-0.00225221
-0.0210233
-0.00297564
-0.0209114
-0.00371542
-0.0208763
-0.00446654
-0.0208912
-0.00515935
-0.0210058
-0.00549155
-0.0207269
-0.00463104
-0.0192644
-0.00164023
-0.0112984
-0.000173237
-0.00151841
-0.0204158
-0.00223153
-0.0203102
-0.00295041
-0.0201925
-0.00368507
-0.0201417
-0.00444165
-0.0201346
-0.00519373
-0.0202538
-0.00573103
-0.0201896
-0.00532209
-0.0196734
-0.00259396
-0.0140266
-0.00276719
-0.00150014
-0.019701
-0.00220988
-0.0196005
-0.00292413
-0.0194783
-0.00365371
-0.0194121
-0.00441007
-0.0193783
-0.00519318
-0.0194706
-0.00590027
-0.0194825
-0.00593275
-0.0196409
-0.00381808
-0.0161412
-0.00658527
-0.00148081
-0.0189887
-0.00218656
-0.0188947
-0.00289417
-0.0187707
-0.00361506
-0.0186912
-0.00436258
-0.0186307
-0.00515487
-0.0186784
-0.00598579
-0.0186515
-0.0063935
-0.0192332
-0.00515945
-0.0173753
-0.0117447
-0.00146081
-0.00216182
-0.00286259
-0.00357665
-0.00432034
-0.00510183
-0.005978
-0.00681368
-0.0066436
-0.00684159
-0.0217383
-0.0081313
-0.0213871
-0.00943929
-0.021076
-0.0106
-0.0206416
-0.0116422
-0.0201565
-0.0121483
-0.0195504
-0.0120596
-0.0187544
-0.0104673
-0.017771
-0.0075256
-0.0165824
-0.0149844
-2.26247e-12
-0.00356522
-0.0210388
-0.00417966
-0.0207726
-0.00472826
-0.0205274
-0.00517517
-0.0201947
-0.0054936
-0.0198381
-0.00561469
-0.0194293
-0.00536426
-0.0190048
-0.0045719
-0.0185634
-0.00297061
-0.0181837
-0.017955
-4.92844e-13
-0.00270987
-0.0205571
-0.00307925
-0.0204033
-0.00333837
-0.0202683
-0.00343605
-0.020097
-0.00336712
-0.019907
-0.00309541
-0.019701
-0.00261708
-0.0194831
-0.00190545
-0.019275
-0.00098017
-0.019109
-0.0189352
-7.52485e-12
-0.00110203
-0.0203055
-0.00130471
-0.0202006
-0.0014588
-0.0201142
-0.00155643
-0.0199994
-0.00157229
-0.0198911
-0.00149481
-0.0197785
-0.0013
-0.0196779
-0.000985617
-0.0195894
-0.000575998
-0.0195186
-0.0195112
-1.27013e-12
-0.00100302
-0.0201629
-0.00108259
-0.020121
-0.00111705
-0.0200797
-0.00108927
-0.0200272
-0.00100938
-0.019971
-0.000873832
-0.0199141
-0.000692953
-0.0198588
-0.000472982
-0.0198094
-0.00021766
-0.0197739
-0.0197288
-6.43161e-12
-0.000253417
-0.0200778
-0.000329329
-0.0200451
-0.000386702
-0.0200224
-0.000422682
-0.0199912
-0.000429045
-0.0199647
-0.00040516
-0.0199379
-0.000348934
-0.019915
-0.000262444
-0.0198959
-0.000155855
-0.0198805
-0.0198847
4.18476e-14
-0.000329772
-0.0200461
-0.000335609
-0.0200393
-0.000328455
-0.0200295
-0.00030248
-0.0200171
-0.00026511
-0.020002
-0.000216834
-0.0199862
-0.00016122
-0.0199707
-0.0001014
-0.0199557
-3.92473e-05
-0.0199427
-0.019924
-3.03601e-12
-2.19994e-05
-0.0200157
-5.47502e-05
-0.0200065
-8.18117e-05
-0.0200024
-0.000103746
-0.0199952
-0.000115362
-0.0199904
-0.000116472
-0.0199851
-0.000106268
-0.0199809
-8.48233e-05
-0.0199771
-5.31474e-05
-0.0199744
-0.0199771
-6.74358e-13
-0.000138567
-0.0200138
-0.00012944
-0.0200157
-0.000117016
-0.0200149
-9.82532e-05
-0.020014
-7.82096e-05
-0.0200105
-5.68903e-05
-0.0200064
-3.60007e-05
-0.0200018
-1.68442e-05
-0.0199963
-1.83414e-06
-0.0199894
-0.0199789
-2.89084e-13
2.77056e-05
1.20553e-05
-2.81441e-06
-1.67876e-05
-2.7242e-05
-3.36695e-05
-3.54199e-05
-3.17005e-05
-2.10668e-05
2.05975e-13
0.0068527
-0.0173069
0.00666649
-0.0172361
0.00642387
-0.0170666
0.006092
-0.0167528
0.00563234
-0.0162444
0.00499667
-0.0154734
0.00413049
-0.014395
0.00299009
-0.0130793
0.00158152
-0.0118032
-0.0109969
1.64753e-11
0.00816025
-0.0171295
0.00793662
-0.0170125
0.00763175
-0.0167618
0.00719974
-0.0163208
0.006596
-0.0156407
0.00577269
-0.0146501
0.00469069
-0.013313
0.00333496
-0.0117236
0.00173893
-0.0102072
-0.00925795
2.48248e-11
0.00915493
-0.0172886
0.00922698
-0.0170846
0.00917109
-0.0167059
0.00890982
-0.0160596
0.00837643
-0.0151073
0.00749636
-0.01377
0.00621046
-0.0120271
0.00449002
-0.0100031
0.00237081
-0.00808801
-0.00688715
-1.51408e-12
0.00989552
-0.0176384
0.0101329
-0.0173219
0.0101946
-0.0167676
0.00997514
-0.0158401
0.00938727
-0.0145194
0.00834183
-0.0127246
0.00680685
-0.0104921
0.00482493
-0.00802121
0.00250439
-0.00576747
-0.00438276
-6.09205e-11
0.0107464
-0.0190103
0.0119412
-0.0185167
0.0128515
-0.0176779
0.013305
-0.0162936
0.0131215
-0.0143359
0.0121051
-0.0117082
0.0101615
-0.00854852
0.00735014
-0.00520989
0.00386763
-0.00228496
-0.000515131
-1.68462e-10
0.00632597
-0.0206805
0.00789864
-0.0200894
0.00919679
-0.018976
0.0100741
-0.017171
0.0102649
-0.0145267
0.00955045
-0.0109937
0.00786545
-0.00686352
0.00544676
-0.00279119
0.00273371
0.000428085
0.00221858
-2.08411e-10
0.00443477
-0.0237481
0.00751437
-0.023169
0.0103019
-0.0217636
0.0126397
-0.0195088
0.0140135
-0.0159005
0.0140128
-0.010993
0.0123244
-0.00517513
0.0091327
0.000400485
0.00483247
0.00472831
0.00705105
1.07173e-10
-0.0143463
-0.0263981
-0.0114932
-0.0260221
-0.00842331
-0.0248334
-0.00523449
-0.0226976
-0.00222229
-0.0189127
0.000156981
-0.0133722
0.00138846
-0.00640662
0.00163061
0.000158334
0.00126295
0.00509598
0.008314
6.56087e-10
-0.02166
-0.0271281
-0.0206687
-0.0270134
-0.0190349
-0.0264673
-0.0165134
-0.025219
-0.0128856
-0.0225405
-0.00845909
-0.0177988
-0.00437905
-0.0104867
-0.00242967
-0.00179105
-0.00199629
0.00466259
0.00631771
9.04934e-11
-0.0263934
-0.0280475
-0.0292439
-0.0292554
-0.0269542
-0.0213626
-0.0127393
-0.00500444
-0.00234745
-3.87491e-10
2.77055e-05
0.0200138
1.20553e-05
0.0200157
-2.81441e-06
0.0200149
-1.67876e-05
0.020014
-2.7242e-05
0.0200105
-3.36695e-05
0.0200064
-3.54199e-05
0.0200018
-3.17005e-05
0.0199963
-2.10668e-05
0.0199894
0.0199789
-0.000138567
0.0200157
-0.00012944
0.0200065
-0.000117016
0.0200024
-9.82532e-05
0.0199952
-7.82096e-05
0.0199904
-5.68903e-05
0.0199851
-3.60007e-05
0.0199809
-1.68442e-05
0.0199771
-1.83414e-06
0.0199744
0.0199771
-2.19993e-05
0.0200461
-5.47502e-05
0.0200393
-8.18117e-05
0.0200295
-0.000103746
0.0200171
-0.000115362
0.020002
-0.000116472
0.0199862
-0.000106268
0.0199707
-8.48233e-05
0.0199557
-5.31474e-05
0.0199427
0.019924
-0.000329772
0.0200778
-0.000335609
0.0200451
-0.000328455
0.0200224
-0.00030248
0.0199912
-0.00026511
0.0199647
-0.000216834
0.0199379
-0.00016122
0.019915
-0.0001014
0.0198959
-3.92473e-05
0.0198805
0.0198847
-0.000253417
0.0201629
-0.000329329
0.020121
-0.000386702
0.0200797
-0.000422682
0.0200272
-0.000429045
0.019971
-0.00040516
0.0199141
-0.000348934
0.0198588
-0.000262444
0.0198094
-0.000155855
0.0197739
0.0197288
-0.00100302
0.0203055
-0.00108259
0.0202006
-0.00111705
0.0201142
-0.00108927
0.0199994
-0.00100938
0.0198911
-0.000873832
0.0197785
-0.000692953
0.0196779
-0.000472982
0.0195894
-0.00021766
0.0195186
0.0195112
-0.00110203
0.0205571
-0.00130471
0.0204033
-0.0014588
0.0202683
-0.00155643
0.020097
-0.00157229
0.019907
-0.00149481
0.019701
-0.0013
0.0194831
-0.000985617
0.019275
-0.000575998
0.019109
0.0189352
-0.00270987
0.0210388
-0.00307925
0.0207726
-0.00333837
0.0205274
-0.00343605
0.0201947
-0.00336712
0.0198381
-0.00309541
0.0194293
-0.00261708
0.0190048
-0.00190545
0.0185634
-0.00098017
0.0181837
0.017955
-0.00356522
0.0217383
-0.00417966
0.0213871
-0.00472826
0.021076
-0.00517517
0.0206416
-0.0054936
0.0201565
-0.00561469
0.0195504
-0.00536426
0.0187544
-0.0045719
0.017771
-0.00297061
0.0165824
0.0149844
-0.00684159
-0.0081313
-0.00943929
-0.0106
-0.0116422
-0.0121483
-0.0120596
-0.0104673
-0.0075256
-0.0263934
0.0271281
-0.0280475
0.0270134
-0.0292439
0.0264673
-0.0292554
0.025219
-0.0269542
0.0225405
-0.0213626
0.0177988
-0.0127393
0.0104867
-0.00500444
0.00179105
-0.00234745
-0.00466259
-0.00631771
-0.02166
0.0263981
-0.0206687
0.0260221
-0.0190349
0.0248334
-0.0165134
0.0226976
-0.0128856
0.0189127
-0.00845909
0.0133722
-0.00437905
0.00640662
-0.00242967
-0.000158335
-0.00199629
-0.00509598
-0.008314
-0.0143463
0.0237481
-0.0114932
0.023169
-0.00842331
0.0217636
-0.00523449
0.0195088
-0.00222229
0.0159005
0.00015698
0.010993
0.00138846
0.00517513
0.00163061
-0.000400485
0.00126295
-0.00472831
-0.00705105
0.00443477
0.0206805
0.00751437
0.0200894
0.0103019
0.018976
0.0126397
0.017171
0.0140135
0.0145267
0.0140128
0.0109937
0.0123244
0.00686352
0.0091327
0.00279119
0.00483247
-0.000428085
-0.00221858
0.00632597
0.0190103
0.00789864
0.0185167
0.00919679
0.0176779
0.0100741
0.0162936
0.0102649
0.0143359
0.00955045
0.0117082
0.00786545
0.00854852
0.00544676
0.00520989
0.00273371
0.00228496
0.000515131
0.0107464
0.0176384
0.0119412
0.0173219
0.0128515
0.0167676
0.013305
0.0158401
0.0131215
0.0145194
0.0121051
0.0127246
0.0101615
0.0104921
0.00735014
0.00802121
0.00386763
0.00576747
0.00438276
0.00989552
0.0172886
0.0101329
0.0170846
0.0101946
0.0167059
0.00997514
0.0160596
0.00938727
0.0151073
0.00834183
0.01377
0.00680685
0.0120271
0.00482493
0.0100031
0.00250439
0.00808801
0.00688715
0.00915493
0.0171295
0.00922698
0.0170125
0.00917109
0.0167618
0.00890982
0.0163208
0.00837643
0.0156407
0.00749636
0.0146501
0.00621046
0.013313
0.00449002
0.0117236
0.00237081
0.0102072
0.00925795
0.00816025
0.0173069
0.00793662
0.0172361
0.00763175
0.0170666
0.00719974
0.0167528
0.006596
0.0162444
0.00577269
0.0154734
0.00469069
0.014395
0.00333496
0.0130793
0.00173893
0.0118032
0.0109969
0.0068527
0.00666649
0.00642387
0.006092
0.00563234
0.00499667
0.00413049
0.00299009
0.00158152
)
;

boundaryField
{
    inlet
    {
        type            calculated;
        value           uniform -0.02;
    }
    outlet
    {
        type            calculated;
        value           nonuniform List<scalar> 
20
(
0.0174594
0.0174223
0.0173093
0.0170847
0.0167041
0.016109
0.0152612
0.0142197
0.0132118
0.0125784
0.0174594
0.0174223
0.0173093
0.0170847
0.0167041
0.016109
0.0152612
0.0142197
0.0132118
0.0125784
)
;
    }
    polygon
    {
        type            calculated;
        value           uniform 0;
    }
    top
    {
        type            symmetryPlane;
        value           uniform 0;
    }
    bottom
    {
        type            symmetryPlane;
        value           uniform 0;
    }
    outside
    {
        type            calculated;
        value           nonuniform List<scalar> 
80
(
0.000750847
0.000768454
0.000785308
0.000801414
0.000817014
0.00083155
0.000845957
0.000858487
0.000872447
0.000882842
0.000598993
0.000617089
0.000633204
0.000648828
0.000664139
0.000678748
0.000693521
0.000706752
0.000721814
0.000732015
0.000732015
0.000721814
0.000706752
0.000693521
0.000678748
0.000664139
0.000648828
0.000633204
0.000617089
0.000598993
0.000882842
0.000872447
0.000858487
0.000845957
0.00083155
0.000817014
0.000801414
0.000785308
0.000768454
0.000750847
0.00553707
0.00286568
0.00222815
0.000850471
0.000860459
0.00016824
0.000298141
-8.47847e-06
0.000136714
-4.15032e-05
-0.00700524
-0.00833761
-0.00899584
-0.00954577
-0.00937442
-0.00465577
-0.00136725
0.0169963
0.02239
0.0247312
-4.15032e-05
0.000136714
-8.47847e-06
0.000298141
0.00016824
0.000860459
0.000850471
0.00222815
0.00286568
0.00553707
0.0247312
0.02239
0.0169963
-0.00136725
-0.00465577
-0.00937442
-0.00954577
-0.00899584
-0.00833761
-0.00700524
)
;
    }
}


// ************************************************************************* //
