/*--------------------------------*- C++ -*----------------------------------*\
  =========                 |
  \\      /  F ield         | OpenFOAM: The Open Source CFD Toolbox
   \\    /   O peration     | Website:  https://openfoam.org
    \\  /    A nd           | Version:  10
     \\/     M anipulation  |
\*---------------------------------------------------------------------------*/
FoamFile
{
    format      ascii;
    class       volVectorField;
    location    "20";
    object      U;
}
// * * * * * * * * * * * * * * * * * * * * * * * * * * * * * * * * * * * * * //

dimensions      [0 1 -1 0 0 0 0];

internalField   nonuniform List<vector> 
800
(
(1.22196 0.151533 -3.89174e-17)
(1.21625 0.186597 8.03725e-18)
(1.20837 0.199077 1.3026e-18)
(1.20268 0.225233 -1.67793e-17)
(1.19802 0.255501 2.85324e-17)
(1.19841 0.275278 5.18582e-18)
(1.1929 0.346519 1.96557e-17)
(1.2344 0.360634 -1.85087e-17)
(1.12732 0.42797 8.8435e-18)
(1.1031 0.275657 5.28743e-17)
(1.22867 0.15502 -5.73884e-17)
(1.22276 0.189797 3.66395e-18)
(1.21519 0.202887 -3.76338e-17)
(1.20991 0.229873 -1.31126e-17)
(1.20649 0.260003 2.36562e-17)
(1.20717 0.283791 -4.97694e-18)
(1.20413 0.34731 -3.12511e-17)
(1.23254 0.360009 -1.3704e-18)
(1.06592 0.402577 5.89316e-17)
(0.484301 0.211559 -3.24872e-17)
(1.23484 0.158376 -4.94406e-17)
(1.22862 0.192902 4.21733e-18)
(1.2215 0.206485 -5.77593e-18)
(1.21719 0.234186 4.33801e-18)
(1.21555 0.264001 1.89704e-17)
(1.21964 0.289864 -3.93109e-18)
(1.21589 0.342664 8.80089e-18)
(1.20656 0.34172 5.2865e-18)
(0.939929 0.343007 3.9608e-17)
(0.288615 0.0962152 -3.08403e-17)
(1.24067 0.161577 -3.44956e-17)
(1.23426 0.195856 3.83964e-18)
(1.22761 0.209701 1.48306e-19)
(1.22422 0.237719 3.67163e-17)
(1.22334 0.266336 1.24023e-17)
(1.22837 0.292092 -1.67675e-18)
(1.21635 0.332779 8.01104e-18)
(1.16023 0.320344 1.14778e-17)
(0.757541 0.288774 2.95679e-17)
(0.0601238 0.00376626 -1.38323e-17)
(1.24626 0.164665 -3.8983e-17)
(1.23979 0.198698 5.08659e-18)
(1.23359 0.212713 -1.37857e-19)
(1.23127 0.2411 1.84516e-17)
(1.23151 0.26847 6.13018e-18)
(1.23553 0.292197 -7.54751e-18)
(1.20697 0.318066 1.38252e-17)
(1.09179 0.295313 1.0375e-17)
(0.561392 0.226595 1.67873e-17)
(-0.0428764 -0.0251344 -3.89313e-18)
(1.25171 0.167533 -4.85485e-18)
(1.24533 0.201304 3.34156e-18)
(1.23964 0.215275 5.56811e-18)
(1.23802 0.243359 4.39388e-17)
(1.23746 0.267985 5.83021e-18)
(1.23453 0.287105 1.05137e-17)
(1.18239 0.298948 3.86216e-18)
(0.99876 0.267517 1.25848e-17)
(0.378441 0.166502 9.92218e-18)
(-0.122863 0.0156568 -4.01325e-18)
(1.2569 0.170372 -6.10332e-18)
(1.25057 0.203854 4.49821e-18)
(1.24525 0.217747 1.01698e-18)
(1.24418 0.245794 3.26219e-17)
(1.24338 0.268423 -2.38348e-19)
(1.23334 0.282098 -2.50757e-17)
(1.15445 0.279051 2.09232e-17)
(0.888028 0.233958 9.91398e-18)
(0.223829 0.113598 -4.28735e-18)
(-0.157611 0.0729486 -1.51543e-18)
(1.26199 0.172833 1.56155e-18)
(1.25591 0.206015 8.70015e-20)
(1.25116 0.219646 1.57693e-17)
(1.25017 0.246551 3.65409e-17)
(1.24546 0.264177 -2.71973e-18)
(1.21799 0.26808 -9.66412e-18)
(1.10236 0.253446 -9.85789e-18)
(0.757009 0.198514 1.21057e-17)
(0.0996929 0.0965919 -4.74662e-17)
(-0.177248 0.122623 -8.24558e-18)
(1.26668 0.175579 -1.30159e-17)
(1.2606 0.208399 1.21074e-17)
(1.25585 0.221714 -1.32299e-17)
(1.2541 0.248176 4.77417e-18)
(1.24645 0.263588 -6.68193e-18)
(1.20711 0.261246 -3.30098e-17)
(1.06107 0.235676 5.57387e-17)
(0.645591 0.162986 -9.8344e-18)
(0.0026583 0.121464 -1.67648e-16)
(-0.189649 0.155674 -7.80238e-18)
(1.27147 0.177395 -3.65203e-17)
(1.26587 0.209891 -1.51017e-17)
(1.26181 0.222877 -8.21166e-18)
(1.25962 0.24725 4.35334e-18)
(1.24419 0.254462 -7.58117e-18)
(1.17585 0.23588 -2.43392e-17)
(0.97239 0.195174 2.06162e-18)
(0.502797 0.122997 -2.12026e-17)
(-0.0792099 0.154923 -1.95902e-16)
(-0.185139 0.169839 -1.12373e-17)
(1.15315 0.121803 -4.14654e-17)
(1.13523 0.163857 8.36206e-19)
(1.12001 0.178764 -2.84794e-18)
(1.09132 0.214227 -2.56697e-17)
(1.06111 0.243906 -5.8683e-19)
(1.00535 0.282935 -5.23675e-18)
(0.936797 0.331377 2.64227e-18)
(0.81294 0.372871 7.8539e-18)
(0.681799 0.440762 2.02848e-17)
(0.3639 0.306357 -2.66472e-18)
(1.16063 0.125063 -3.2699e-17)
(1.14378 0.167188 -1.69734e-18)
(1.12981 0.182484 -2.7776e-19)
(1.1031 0.218579 -1.91005e-17)
(1.07655 0.250375 -9.33766e-19)
(1.02566 0.29162 1.40834e-18)
(0.966624 0.347451 -7.48319e-19)
(0.855198 0.392645 5.82915e-18)
(0.738857 0.481603 1.49577e-17)
(0.425322 0.340039 1.25225e-18)
(1.16777 0.128268 -3.13707e-17)
(1.15244 0.170209 2.58193e-18)
(1.13989 0.185681 -6.01263e-18)
(1.11636 0.221894 -2.21137e-17)
(1.09443 0.255186 -2.18203e-18)
(1.05106 0.297448 -3.68208e-18)
(1.00135 0.360152 6.11385e-18)
(0.901577 0.409694 5.45454e-18)
(0.782666 0.518488 1.36216e-17)
(0.455076 0.369657 -1.75005e-19)
(1.17442 0.131365 -1.69241e-17)
(1.16065 0.172888 -8.74211e-18)
(1.14927 0.18832 9.98063e-18)
(1.12883 0.224143 -4.69381e-18)
(1.11071 0.258426 -1.80462e-18)
(1.07473 0.300543 7.38545e-18)
(1.03194 0.369567 -1.2138e-17)
(0.948165 0.421274 3.52038e-18)
(0.831981 0.553634 3.42822e-18)
(0.501812 0.396909 1.59384e-18)
(1.18094 0.134399 4.57813e-18)
(1.16863 0.175331 1.8228e-17)
(1.15825 0.190586 7.94762e-18)
(1.14059 0.225698 -3.18607e-18)
(1.12595 0.260431 -1.63172e-18)
(1.09702 0.301718 6.04425e-18)
(1.06252 0.37544 1.0972e-17)
(0.996536 0.428508 2.43629e-18)
(0.88718 0.576897 1.4499e-17)
(0.544558 0.415994 2.00816e-18)
(1.18758 0.137292 5.32058e-18)
(1.17666 0.177419 -3.10414e-18)
(1.16719 0.192288 8.48937e-18)
(1.15226 0.226126 -2.56248e-18)
(1.14082 0.260792 -9.52028e-19)
(1.11932 0.299311 4.5938e-18)
(1.09314 0.376647 -7.90063e-18)
(1.04774 0.426252 3.50688e-18)
(0.946673 0.60453 -7.20434e-19)
(0.628 0.439762 2.95769e-18)
(1.19436 0.140217 1.43497e-18)
(1.18473 0.179451 -3.25704e-18)
(1.17603 0.193911 3.06111e-18)
(1.16361 0.226427 -2.00294e-18)
(1.15519 0.260593 -1.53057e-18)
(1.13977 0.296341 5.23169e-18)
(1.12316 0.375305 -7.22987e-18)
(1.0951 0.423057 -2.72629e-18)
(1.0086 0.603176 -4.00738e-18)
(0.663701 0.435485 -3.79793e-18)
(1.20118 0.142831 8.08009e-18)
(1.19289 0.18088 -7.8489e-19)
(1.18478 0.194556 1.19731e-17)
(1.17491 0.224779 -2.61434e-18)
(1.16841 0.258113 -6.74189e-19)
(1.16015 0.28744 2.3589e-18)
(1.14794 0.367263 -4.20487e-18)
(1.14499 0.402365 7.51628e-18)
(1.0832 0.623445 4.40641e-18)
(0.842919 0.465705 1.61385e-17)
(1.20806 0.145809 -1.01936e-17)
(1.20082 0.182889 -5.68529e-18)
(1.193 0.196191 -1.2297e-17)
(1.18499 0.225182 1.18999e-18)
(1.18004 0.25755 -9.90548e-19)
(1.17577 0.284329 3.83692e-18)
(1.16983 0.362261 -5.7747e-18)
(1.18447 0.391578 -1.92868e-17)
(1.1271 0.575846 -9.84758e-18)
(0.858296 0.407479 -3.75795e-17)
(1.21484 0.147814 -2.86348e-17)
(1.20895 0.183252 6.8367e-18)
(1.20124 0.195103 -1.58416e-17)
(1.19548 0.220247 -9.47824e-18)
(1.19046 0.251215 3.91842e-19)
(1.19377 0.266553 5.69857e-19)
(1.18445 0.342123 3.59683e-18)
(1.22612 0.34946 -1.55467e-17)
(1.20878 0.580272 1.54182e-17)
(1.22396 0.443028 -2.60108e-17)
(1.21484 -0.147814 -2.50781e-17)
(1.20895 -0.183252 -2.08973e-17)
(1.20124 -0.195103 2.56071e-18)
(1.19548 -0.220247 -1.35306e-17)
(1.19046 -0.251215 -9.15723e-18)
(1.19377 -0.266553 4.4931e-18)
(1.18445 -0.342123 -1.44896e-17)
(1.22612 -0.34946 1.19872e-18)
(1.20878 -0.580272 1.86658e-17)
(1.22396 -0.443028 -2.08597e-18)
(1.20806 -0.145809 -7.13886e-18)
(1.20082 -0.182889 -1.00472e-17)
(1.193 -0.196191 -3.36298e-18)
(1.18499 -0.225182 -2.23963e-17)
(1.18004 -0.25755 -6.7811e-18)
(1.17577 -0.284329 -1.53566e-18)
(1.16983 -0.362261 -1.12956e-17)
(1.18447 -0.391578 -9.61983e-18)
(1.1271 -0.575846 1.85586e-17)
(0.858296 -0.407479 -5.82135e-18)
(1.20118 -0.142831 -1.73503e-17)
(1.19289 -0.18088 -1.77188e-17)
(1.18478 -0.194556 -3.32513e-19)
(1.17491 -0.224779 -2.47618e-17)
(1.16841 -0.258113 2.18805e-17)
(1.16015 -0.28744 3.40529e-19)
(1.14794 -0.367263 -1.67629e-17)
(1.14499 -0.402365 -5.50485e-18)
(1.0832 -0.623445 2.54681e-17)
(0.842919 -0.465705 -6.85946e-18)
(1.19436 -0.140217 1.09627e-17)
(1.18473 -0.179451 -1.78941e-17)
(1.17603 -0.193911 -8.79113e-19)
(1.16361 -0.226427 -5.50572e-18)
(1.15519 -0.260593 1.66717e-17)
(1.13977 -0.296341 -1.78801e-18)
(1.12316 -0.375305 1.01787e-17)
(1.0951 -0.423057 -8.12501e-18)
(1.0086 -0.603176 -1.00397e-17)
(0.663701 -0.435485 -1.10545e-17)
(1.18758 -0.137292 -2.72755e-20)
(1.17666 -0.177419 -2.3481e-17)
(1.16719 -0.192288 -1.74233e-19)
(1.15226 -0.226126 6.86445e-18)
(1.14082 -0.260792 2.47444e-17)
(1.11932 -0.299311 -2.03421e-18)
(1.09314 -0.376647 -9.55476e-19)
(1.04774 -0.426252 8.65698e-18)
(0.946673 -0.60453 8.52862e-18)
(0.628 -0.439762 -2.05243e-17)
(1.18094 -0.134399 5.94836e-18)
(1.16863 -0.175331 -2.74014e-17)
(1.15825 -0.190586 3.86444e-19)
(1.14059 -0.225698 3.95855e-18)
(1.12595 -0.260431 5.67998e-18)
(1.09702 -0.301718 1.40879e-17)
(1.06252 -0.37544 5.05192e-18)
(0.996536 -0.428508 2.94845e-18)
(0.88718 -0.576897 1.45556e-18)
(0.544558 -0.415994 -1.02587e-17)
(1.17442 -0.131365 6.04931e-18)
(1.16065 -0.172888 -1.25694e-17)
(1.14927 -0.18832 9.32531e-19)
(1.12883 -0.224143 5.86411e-18)
(1.11071 -0.258426 -8.54502e-19)
(1.07473 -0.300543 -5.51965e-18)
(1.03194 -0.369567 -1.28611e-17)
(0.948165 -0.421274 6.25275e-18)
(0.831981 -0.553634 6.00116e-18)
(0.501812 -0.396909 1.88445e-17)
(1.16777 -0.128268 7.89158e-18)
(1.15244 -0.170209 -2.37728e-17)
(1.13989 -0.185681 7.13992e-19)
(1.11636 -0.221894 5.45513e-18)
(1.09443 -0.255186 1.94316e-18)
(1.05106 -0.297448 2.48456e-18)
(1.00135 -0.360152 3.6251e-18)
(0.901577 -0.409694 9.62557e-18)
(0.782666 -0.518488 6.36385e-18)
(0.455076 -0.369657 -3.83232e-17)
(1.16063 -0.125063 9.43787e-18)
(1.14378 -0.167188 -2.45333e-17)
(1.12981 -0.182484 1.87231e-18)
(1.1031 -0.218579 6.76995e-18)
(1.07655 -0.250375 1.14654e-18)
(1.02566 -0.29162 -7.70297e-19)
(0.966624 -0.347451 -3.81252e-18)
(0.855198 -0.392645 1.23528e-17)
(0.738857 -0.481603 8.31219e-18)
(0.425322 -0.340039 -5.4885e-17)
(1.15315 -0.121803 -6.26464e-18)
(1.13523 -0.163857 -4.59657e-17)
(1.12001 -0.178764 1.85492e-17)
(1.09132 -0.214227 -4.26527e-18)
(1.06111 -0.243906 1.66854e-18)
(1.00535 -0.282935 3.56947e-19)
(0.936797 -0.331377 -1.37971e-18)
(0.81294 -0.372871 9.76741e-19)
(0.681799 -0.440762 -1.5211e-17)
(0.3639 -0.306357 -6.81196e-18)
(1.27147 -0.177395 -8.41524e-18)
(1.26587 -0.209891 2.61298e-17)
(1.26181 -0.222877 4.24902e-18)
(1.25962 -0.24725 -1.56769e-17)
(1.24419 -0.254462 -1.0363e-17)
(1.17585 -0.23588 -5.74077e-19)
(0.97239 -0.195174 -1.14636e-17)
(0.502797 -0.122997 -3.74506e-17)
(-0.0792099 -0.154923 5.5306e-19)
(-0.185139 -0.169839 -1.12278e-16)
(1.26668 -0.175579 -1.12691e-17)
(1.2606 -0.208399 5.03105e-18)
(1.25585 -0.221714 3.73468e-18)
(1.2541 -0.248176 -1.35599e-17)
(1.24645 -0.263588 1.59655e-17)
(1.20711 -0.261246 -5.20896e-18)
(1.06107 -0.235676 4.05261e-17)
(0.645591 -0.162986 -4.56292e-17)
(0.0026583 -0.121464 1.85325e-17)
(-0.189649 -0.155674 2.57264e-17)
(1.26199 -0.172833 -1.30583e-17)
(1.25591 -0.206015 1.75476e-17)
(1.25116 -0.219646 6.09949e-18)
(1.25017 -0.246551 -2.05888e-17)
(1.24546 -0.264177 5.84065e-18)
(1.21799 -0.26808 -1.03082e-17)
(1.10236 -0.253446 -1.89096e-17)
(0.757009 -0.198514 3.09815e-17)
(0.0996929 -0.0965919 4.27661e-17)
(-0.177248 -0.122623 7.58482e-18)
(1.2569 -0.170372 -1.74672e-17)
(1.25057 -0.203854 1.57263e-17)
(1.24525 -0.217747 9.1477e-18)
(1.24418 -0.245794 -2.13643e-17)
(1.24338 -0.268423 1.05722e-17)
(1.23334 -0.282098 -7.83043e-18)
(1.15445 -0.279051 -1.08351e-18)
(0.888028 -0.233958 1.06293e-17)
(0.223829 -0.113598 8.60451e-17)
(-0.157611 -0.0729486 -7.77804e-17)
(1.25171 -0.167533 1.0552e-17)
(1.24533 -0.201304 5.24076e-17)
(1.23964 -0.215275 -1.80483e-17)
(1.23802 -0.243359 4.26567e-18)
(1.23746 -0.267985 7.55553e-18)
(1.23453 -0.287105 -9.06202e-18)
(1.18239 -0.298948 -1.4717e-17)
(0.99876 -0.267517 -5.58494e-17)
(0.378441 -0.166502 7.86127e-18)
(-0.122863 -0.0156568 -1.35949e-17)
(1.24626 -0.164665 -3.64746e-18)
(1.23979 -0.198698 2.03054e-17)
(1.23359 -0.212713 -5.99094e-18)
(1.23127 -0.2411 -1.17706e-17)
(1.23151 -0.26847 1.36651e-17)
(1.23553 -0.292197 -6.07228e-18)
(1.20697 -0.318066 -2.25901e-18)
(1.09179 -0.295313 -4.21981e-17)
(0.561392 -0.226595 -2.51563e-18)
(-0.0428764 0.0251344 9.02305e-17)
(1.24067 -0.161577 1.45532e-18)
(1.23426 -0.195856 4.34002e-17)
(1.22761 -0.209701 -1.2422e-17)
(1.22422 -0.237719 -9.00955e-18)
(1.22334 -0.266336 1.56638e-17)
(1.22837 -0.292092 -7.47684e-18)
(1.21635 -0.332779 -7.32617e-19)
(1.16023 -0.320344 -4.57843e-18)
(0.757541 -0.288774 -2.39074e-17)
(0.0601238 -0.00376626 3.12395e-17)
(1.23484 -0.158376 -5.50142e-18)
(1.22862 -0.192902 1.44025e-17)
(1.2215 -0.206485 -9.83795e-18)
(1.21719 -0.234186 -1.57549e-17)
(1.21555 -0.264001 1.84314e-17)
(1.21964 -0.289864 -4.81329e-18)
(1.21589 -0.342664 -2.19284e-18)
(1.20656 -0.34172 -2.012e-17)
(0.939929 -0.343007 -2.94921e-17)
(0.288615 -0.0962152 1.33191e-17)
(1.22867 -0.15502 -4.02991e-18)
(1.22276 -0.189797 2.90425e-18)
(1.21519 -0.202887 -1.26958e-17)
(1.20991 -0.229873 -1.91655e-17)
(1.20649 -0.260003 -1.28349e-17)
(1.20717 -0.283791 -6.57752e-18)
(1.20413 -0.34731 1.77812e-18)
(1.23254 -0.360009 -5.6922e-18)
(1.06592 -0.402577 3.12849e-17)
(0.484301 -0.211559 -5.85985e-18)
(1.22196 -0.151533 -6.12986e-18)
(1.21625 -0.186597 1.06262e-17)
(1.20837 -0.199077 -1.27996e-17)
(1.20268 -0.225233 -2.15259e-17)
(1.19802 -0.255501 -1.69158e-18)
(1.19841 -0.275278 -1.03997e-17)
(1.1929 -0.346519 -1.04003e-19)
(1.2344 -0.360634 -2.13128e-17)
(1.12732 -0.42797 8.23196e-18)
(1.1031 -0.275657 -6.6373e-19)
(1.11012 -0.102426 3.5767e-17)
(1.08947 -0.143037 2.61717e-17)
(1.07147 -0.155488 1.16395e-17)
(1.04404 -0.185679 1.47169e-17)
(1.01328 -0.201896 3.32418e-18)
(0.968944 -0.22153 -3.27499e-18)
(0.914219 -0.221975 -1.32569e-17)
(0.831028 -0.215116 3.90777e-17)
(0.747454 -0.16634 -9.53975e-18)
(0.57542 -0.10145 -8.30447e-17)
(1.06828 -0.0532199 -2.07525e-17)
(1.05418 -0.0743915 1.55908e-18)
(1.04132 -0.0792579 -6.89598e-18)
(1.02438 -0.0914186 -1.52493e-18)
(1.00648 -0.0977856 7.87605e-18)
(0.986376 -0.100912 -1.19462e-18)
(0.963955 -0.104294 4.01215e-18)
(0.94183 -0.0889969 -5.82569e-18)
(0.916697 -0.0788368 3.00391e-18)
(0.916913 -0.0271555 1.82829e-17)
(1.03588 -0.0412845 4.52368e-18)
(1.02483 -0.0558543 3.63177e-19)
(1.01422 -0.0571899 2.09146e-18)
(0.999162 -0.0634498 6.7342e-18)
(0.982384 -0.0618448 7.34385e-18)
(0.962666 -0.0607233 -1.15444e-17)
(0.942636 -0.0512822 1.674e-17)
(0.920749 -0.0441661 4.36564e-18)
(0.905132 -0.0245725 1.31268e-18)
(0.877032 -0.0106724 2.36305e-17)
(1.02191 -0.0158626 -5.80067e-19)
(1.01676 -0.0234566 -1.02627e-18)
(1.01323 -0.024587 -1.83975e-19)
(1.00921 -0.027969 6.16271e-18)
(1.00628 -0.0289603 7.11065e-18)
(1.00423 -0.0278515 -8.37037e-18)
(1.00227 -0.026741 8.68445e-18)
(1.00232 -0.0201971 1.44162e-17)
(1.00158 -0.0158074 7.59729e-19)
(1.01147 -0.00495884 1.11603e-17)
(1.00975 -0.015927 3.63738e-18)
(1.00503 -0.0200437 -4.3781e-18)
(1.00016 -0.0196838 -1.71274e-19)
(0.993229 -0.0206862 -7.14036e-19)
(0.985469 -0.0189905 -9.46361e-19)
(0.976596 -0.0176949 2.12948e-18)
(0.968222 -0.0139284 -1.2248e-17)
(0.959363 -0.0113404 -2.49381e-18)
(0.95231 -0.00574254 -1.14985e-18)
(0.941276 -0.00215123 -1.53016e-17)
(1.00707 -0.00316508 -4.66001e-19)
(1.00629 -0.00582958 7.29202e-19)
(1.00668 -0.00633157 1.37465e-19)
(1.00768 -0.00756963 1.339e-18)
(1.00956 -0.00791182 1.88611e-18)
(1.01228 -0.00757855 8.17953e-18)
(1.01505 -0.00722593 -5.42328e-18)
(1.01868 -0.00538059 1.44333e-18)
(1.02222 -0.00420493 1.72821e-19)
(1.02866 -0.00143138 -6.80737e-18)
(1.00149 -0.00550796 7.87363e-20)
(0.999497 -0.00633475 2.14255e-20)
(0.996941 -0.00597046 2.81655e-19)
(0.993168 -0.00590314 6.85353e-18)
(0.988695 -0.00510209 7.10089e-18)
(0.983497 -0.00453286 5.56388e-19)
(0.97839 -0.00331341 7.62619e-18)
(0.972917 -0.00256664 7.88185e-18)
(0.967737 -0.00109646 7.19862e-19)
(0.961695 -0.000334073 7.55775e-18)
(1.00296 0.000139429 -1.08032e-19)
(1.00351 -0.000898591 -1.35579e-19)
(1.00492 -0.00114137 -4.78723e-20)
(1.00705 -0.00178475 -1.14202e-18)
(1.00987 -0.00202666 -8.94772e-19)
(1.01325 -0.00213123 6.9687e-18)
(1.01673 -0.00212967 -8.47455e-18)
(1.02058 -0.00170938 -4.91407e-19)
(1.02444 -0.00138942 -6.31936e-19)
(1.02858 -0.000533293 -9.09337e-18)
(0.999274 -0.00251512 -1.79118e-19)
(0.998207 -0.00247691 -1.59118e-19)
(0.996477 -0.00225961 -4.51433e-20)
(0.993881 -0.00197611 6.37802e-20)
(0.99066 -0.0015902 5.24172e-20)
(0.9869 -0.00125617 -1.01345e-18)
(0.983029 -0.000801184 1.62771e-18)
(0.978883 -0.000513295 7.12762e-18)
(0.974745 -9.36234e-05 3.1876e-19)
(0.970901 2.62248e-05 1.1591e-18)
(1.00166 0.000734364 3.09493e-20)
(1.00265 0.000301715 1.05674e-19)
(1.00422 0.000121928 2.99983e-20)
(1.00653 -0.000217984 -6.29733e-20)
(1.00932 -0.000403621 8.89214e-20)
(1.01255 -0.000574618 5.16712e-20)
(1.01591 -0.000658274 -1.60163e-19)
(1.01944 -0.000621302 -8.78253e-19)
(1.02286 -0.000535066 -1.04755e-19)
(1.02564 -0.000227095 -4.33221e-20)
(0.872994 0.0607403 -2.02788e-20)
(0.871139 0.058713 1.24186e-20)
(0.865485 0.0570945 1.74865e-19)
(0.854257 0.0546643 5.52486e-18)
(0.835227 0.0512997 2.88072e-19)
(0.805474 0.0466633 -5.44162e-18)
(0.763082 0.0402512 -3.31316e-19)
(0.711008 0.0315927 -1.75296e-19)
(0.660613 0.0204133 -5.27299e-18)
(0.628942 0.0070927 -1.41542e-19)
(0.849218 0.0722264 3.00432e-20)
(0.844155 0.0700543 -1.41849e-19)
(0.832869 0.0678622 1.15645e-20)
(0.812753 0.0648768 3.93773e-19)
(0.78102 0.0604289 -6.82312e-20)
(0.733806 0.0543564 -1.09402e-19)
(0.668587 0.04613 -3.19293e-21)
(0.589397 0.0355167 -2.38512e-19)
(0.512512 0.0225244 -1.90099e-19)
(0.463767 0.00773373 3.66991e-19)
(0.872753 0.078326 2.41173e-19)
(0.865965 0.0805784 2.34851e-19)
(0.85217 0.0801172 3.09654e-19)
(0.828141 0.0792506 9.94203e-18)
(0.791752 0.0758226 8.18214e-19)
(0.7397 0.0699104 -1.01359e-17)
(0.670895 0.0605704 -9.24545e-19)
(0.590706 0.0475147 -1.15224e-18)
(0.515492 0.0306245 -9.60985e-18)
(0.468992 0.0106252 -7.84297e-19)
(0.846264 0.0831023 1.15242e-19)
(0.832724 0.0884923 5.07744e-18)
(0.808661 0.0881726 -1.79345e-18)
(0.768109 0.088817 -1.11224e-18)
(0.709438 0.0849782 -2.17758e-18)
(0.628071 0.0783181 -6.84374e-18)
(0.52309 0.0669805 -2.13321e-18)
(0.401569 0.051507 -8.62325e-18)
(0.286026 0.0324411 -8.64419e-18)
(0.21297 0.0110812 -1.60429e-18)
(0.927347 0.0823816 1.29916e-19)
(0.909221 0.102793 -2.61084e-18)
(0.877843 0.106233 -2.62325e-17)
(0.825569 0.116215 -2.78444e-18)
(0.751932 0.115874 -2.65131e-17)
(0.653355 0.111931 -2.95581e-18)
(0.534385 0.0989371 -2.72129e-17)
(0.407852 0.0780127 -1.99891e-18)
(0.296962 0.0500646 -8.7453e-19)
(0.230772 0.0173284 -2.51928e-17)
(0.96372 0.0411558 -1.25026e-18)
(0.932274 0.0673536 -2.25913e-17)
(0.879779 0.0713802 -5.70327e-18)
(0.793662 0.0873624 2.61724e-19)
(0.671892 0.0888139 1.99753e-17)
(0.508429 0.0890635 1.53236e-18)
(0.312628 0.0775829 2.27396e-17)
(0.106958 0.0591573 2.52941e-17)
(-0.0725881 0.0357206 3.12012e-18)
(-0.181239 0.0118146 2.37683e-17)
(1.11269 0.0125717 -1.00141e-18)
(1.08588 0.0622757 1.69897e-19)
(1.02702 0.0708171 -6.86217e-17)
(0.932837 0.106005 2.30076e-18)
(0.789691 0.115585 -7.94724e-17)
(0.598951 0.126677 -1.49672e-17)
(0.380151 0.118089 -8.68304e-17)
(0.176295 0.0967918 -1.33069e-17)
(0.0313882 0.0627999 -1.59875e-18)
(-0.0370297 0.0215381 -7.4386e-17)
(1.2605 -0.145694 -3.72471e-18)
(1.22826 -0.107159 -1.30411e-17)
(1.14689 -0.0904712 1.26895e-17)
(1.01527 -0.0576307 1.09008e-16)
(0.798058 -0.0327652 3.13931e-18)
(0.498493 -0.00638895 -1.06777e-16)
(0.136195 0.00923506 -3.26036e-18)
(-0.216561 0.0150678 -4.17235e-18)
(-0.504942 0.0136944 -1.18702e-16)
(-0.668643 0.00839278 -1.08783e-17)
(1.38715 -0.193239 -1.37736e-17)
(1.38137 -0.185397 -1.07757e-16)
(1.34357 -0.173281 -8.94276e-18)
(1.26098 -0.158355 -1.51138e-18)
(1.09908 -0.130058 2.21472e-18)
(0.84367 -0.0942176 1.31136e-16)
(0.508024 -0.0534464 4.44121e-18)
(0.201306 -0.0219338 1.43421e-16)
(-0.00154911 -0.0207983 1.39316e-16)
(-0.158818 -0.013334 8.11655e-18)
(1.31928 -0.215027 1.2762e-17)
(1.31391 -0.242299 9.08948e-17)
(1.29705 -0.247205 -8.45872e-17)
(1.25504 -0.260331 7.40063e-17)
(1.14855 -0.250594 -1.24448e-16)
(0.92889 -0.216749 -1.13983e-16)
(0.532506 -0.15595 -9.85185e-17)
(-0.026321 -0.0634673 -1.27465e-17)
(-0.471887 -0.0253966 -1.14983e-16)
(-0.479772 -0.0141976 -1.09124e-16)
(1.00166 -0.000734364 -5.10865e-18)
(1.00265 -0.000301715 -2.04312e-19)
(1.00422 -0.000121928 8.5549e-19)
(1.00653 0.000217984 -4.64795e-20)
(1.00932 0.000403621 8.58734e-19)
(1.01255 0.000574618 -5.22602e-18)
(1.01591 0.000658274 -1.68178e-19)
(1.01944 0.000621302 9.82647e-19)
(1.02286 0.000535066 2.2878e-19)
(1.02564 0.000227095 7.80194e-19)
(0.999274 0.00251512 -7.62067e-18)
(0.998207 0.00247691 3.50752e-19)
(0.996477 0.00225961 -6.44856e-18)
(0.993881 0.00197611 5.93473e-19)
(0.99066 0.0015902 -6.93823e-18)
(0.9869 0.00125617 -7.87151e-18)
(0.983029 0.000801184 7.41411e-19)
(0.978883 0.000513295 -6.66877e-18)
(0.974745 9.36234e-05 -7.2823e-19)
(0.970901 -2.62248e-05 -6.81368e-18)
(1.00296 -0.000139429 -1.59499e-18)
(1.00351 0.000898591 -6.90004e-18)
(1.00492 0.00114137 -1.65323e-18)
(1.00705 0.00178475 -7.12998e-18)
(1.00987 0.00202666 -1.52469e-18)
(1.01325 0.00213123 -1.75735e-18)
(1.01673 0.00212967 -7.93002e-18)
(1.02058 0.00170938 -1.29208e-18)
(1.02444 0.00138942 1.01182e-18)
(1.02858 0.000533293 -1.43927e-18)
(1.00149 0.00550796 -2.73761e-19)
(0.999497 0.00633475 -4.1216e-19)
(0.996941 0.00597046 -2.06131e-19)
(0.993168 0.00590314 -7.15895e-20)
(0.988695 0.00510209 -1.09484e-19)
(0.983497 0.00453286 -2.60072e-19)
(0.97839 0.00331341 -1.72651e-19)
(0.972917 0.00256664 -7.60463e-19)
(0.967737 0.00109646 -8.22056e-18)
(0.961695 0.000334073 -4.37575e-19)
(1.00707 0.00316508 -2.97138e-19)
(1.00629 0.00582958 -5.34779e-18)
(1.00668 0.00633157 -3.85069e-19)
(1.00768 0.00756963 -6.09157e-18)
(1.00956 0.00791182 1.95002e-20)
(1.01228 0.00757855 -7.68159e-21)
(1.01505 0.00722593 -7.0193e-18)
(1.01868 0.00538059 2.19909e-19)
(1.02222 0.00420493 4.57044e-19)
(1.02866 0.00143138 4.89667e-19)
(1.00975 0.015927 -3.63514e-19)
(1.00503 0.0200437 -5.76497e-18)
(1.00016 0.0196838 -1.06992e-18)
(0.993229 0.0206862 -7.53049e-18)
(0.985469 0.0189905 -6.12802e-19)
(0.976596 0.0176949 -1.96661e-18)
(0.968222 0.0139284 -1.08788e-17)
(0.959363 0.0113404 -3.21081e-18)
(0.95231 0.00574254 -1.14562e-17)
(0.941276 0.00215123 -3.94852e-18)
(1.02191 0.0158626 1.01162e-18)
(1.01676 0.0234566 -7.23335e-19)
(1.01323 0.024587 3.95444e-18)
(1.00921 0.027969 -9.72068e-19)
(1.00628 0.0289603 1.34712e-18)
(1.00423 0.0278515 9.37222e-18)
(1.00227 0.026741 -6.32269e-19)
(1.00232 0.0201971 1.51332e-17)
(1.00158 0.0158074 4.75512e-19)
(1.01147 0.00495884 1.77559e-17)
(1.03588 0.0412845 -2.20102e-19)
(1.02483 0.0558543 1.76605e-19)
(1.01422 0.0571899 1.8604e-18)
(0.999162 0.0634498 -5.86748e-20)
(0.982384 0.0618448 -6.81763e-18)
(0.962666 0.0607233 1.04665e-17)
(0.942636 0.0512822 -5.74873e-19)
(0.920749 0.0441661 -3.27181e-18)
(0.905132 0.0245725 -5.40096e-18)
(0.877032 0.0106724 -3.70823e-18)
(1.06828 0.0532199 -1.83043e-17)
(1.05418 0.0743915 -7.46289e-19)
(1.04132 0.0792579 -4.9142e-18)
(1.02438 0.0914186 -2.93204e-18)
(1.00648 0.0977856 -9.03654e-19)
(0.986376 0.100912 1.60226e-17)
(0.963955 0.104294 3.00117e-18)
(0.94183 0.0889969 3.18965e-17)
(0.916697 0.0788368 3.21581e-17)
(0.916913 0.0271555 4.73528e-17)
(1.11012 0.102426 1.60425e-17)
(1.08947 0.143037 -8.0614e-19)
(1.07147 0.155488 2.17164e-18)
(1.04404 0.185679 1.31914e-17)
(1.01328 0.201896 4.84992e-18)
(0.968944 0.22153 5.83184e-18)
(0.914219 0.221975 2.03421e-18)
(0.831028 0.215116 1.51297e-17)
(0.747454 0.16634 6.2826e-17)
(0.57542 0.10145 -5.24872e-19)
(1.31928 0.215027 -7.10993e-18)
(1.31391 0.242299 -3.25294e-18)
(1.29705 0.247205 -4.27231e-20)
(1.25504 0.260331 3.79158e-18)
(1.14855 0.250594 1.12426e-17)
(0.92889 0.216749 -4.81268e-18)
(0.532506 0.15595 -3.81771e-19)
(-0.026321 0.0634673 -2.91173e-18)
(-0.471887 0.0253966 5.85737e-18)
(-0.479772 0.0141976 -4.67812e-18)
(1.38715 0.193239 -5.4844e-19)
(1.38137 0.185397 -4.69285e-18)
(1.34357 0.173281 -2.66566e-18)
(1.26098 0.158355 -2.06406e-17)
(1.09908 0.130058 -1.38146e-16)
(0.84367 0.0942176 2.14594e-18)
(0.508024 0.0534464 2.55057e-18)
(0.201306 0.0219338 9.23172e-18)
(-0.00154912 0.0207983 1.38303e-16)
(-0.158818 0.013334 9.57486e-18)
(1.2605 0.145694 -5.37975e-18)
(1.22826 0.107159 7.42644e-18)
(1.14689 0.0904712 -5.98708e-18)
(1.01527 0.0576307 1.03214e-17)
(0.798058 0.0327652 9.72891e-17)
(0.498493 0.00638896 -2.60147e-18)
(0.136195 -0.00923506 2.21044e-18)
(-0.216561 -0.0150678 8.92902e-18)
(-0.504942 -0.0136943 1.1271e-16)
(-0.668643 -0.00839277 5.57651e-18)
(1.11269 -0.0125717 6.07587e-17)
(1.08588 -0.0622757 -6.21429e-17)
(1.02702 -0.0708171 6.40296e-17)
(0.932837 -0.106005 -6.5841e-17)
(0.789691 -0.115585 -6.14581e-19)
(0.598951 -0.126677 8.13133e-17)
(0.380151 -0.118089 -7.26042e-17)
(0.176295 -0.0967918 7.163e-17)
(0.0313883 -0.0627999 6.37762e-18)
(-0.0370297 -0.0215381 7.24646e-17)
(0.96372 -0.0411558 4.15496e-18)
(0.932274 -0.0673536 -3.29768e-18)
(0.879779 -0.0713802 3.47022e-18)
(0.793662 -0.0873624 -3.37436e-18)
(0.671892 -0.0888139 -2.5669e-17)
(0.508429 -0.0890636 -1.45739e-19)
(0.312628 -0.0775829 -1.13519e-18)
(0.106958 -0.0591573 1.25543e-18)
(-0.0725881 -0.0357206 2.38763e-17)
(-0.181239 -0.0118146 1.9371e-18)
(0.927347 -0.0823816 2.6874e-17)
(0.909221 -0.102793 -2.35391e-17)
(0.877843 -0.106233 2.44127e-17)
(0.825569 -0.116215 -2.4811e-17)
(0.751932 -0.115874 2.2536e-17)
(0.653355 -0.111931 3.02452e-17)
(0.534385 -0.0989371 -2.35217e-17)
(0.407852 -0.0780127 2.44248e-17)
(0.296962 -0.0500646 -2.31386e-17)
(0.230772 -0.0173284 2.39641e-17)
(0.846264 -0.0831023 -3.21458e-18)
(0.832724 -0.0884923 2.7848e-18)
(0.808661 -0.0881726 -3.23666e-18)
(0.768109 -0.088817 3.59603e-18)
(0.709438 -0.0849782 1.19009e-18)
(0.628071 -0.0783181 -4.89864e-18)
(0.52309 -0.0669805 5.70106e-18)
(0.401569 -0.051507 -6.68639e-18)
(0.286026 -0.0324411 -1.74137e-18)
(0.21297 -0.0110812 -8.13257e-18)
(0.872753 -0.078326 -9.40776e-19)
(0.865965 -0.0805784 1.84687e-19)
(0.85217 -0.0801172 -1.08009e-18)
(0.828141 -0.0792506 4.30038e-19)
(0.791752 -0.0758226 9.38183e-18)
(0.7397 -0.0699104 -1.51912e-19)
(0.670895 -0.0605704 -2.2526e-21)
(0.590706 -0.0475147 -5.68793e-19)
(0.515492 -0.0306245 8.75495e-18)
(0.468992 -0.0106252 -1.88485e-19)
(0.849218 -0.0722264 8.88752e-18)
(0.844155 -0.0700543 7.63327e-19)
(0.832869 -0.0678622 8.54119e-18)
(0.812753 -0.0648768 9.65719e-19)
(0.78102 -0.0604289 1.02191e-17)
(0.733806 -0.0543564 1.03651e-17)
(0.668587 -0.04613 1.15751e-18)
(0.589397 -0.0355167 1.04258e-17)
(0.512512 -0.0225244 1.61917e-18)
(0.463767 -0.00773373 1.05631e-17)
(0.872994 -0.0607403 8.3766e-19)
(0.871139 -0.058713 1.68354e-19)
(0.865485 -0.0570945 7.80675e-19)
(0.854257 -0.0546643 4.15935e-19)
(0.835227 -0.0512997 6.39755e-18)
(0.805474 -0.0466633 1.23557e-18)
(0.763082 -0.0402512 1.62187e-19)
(0.711008 -0.0315927 9.00314e-19)
(0.660613 -0.0204133 5.5477e-18)
(0.628942 -0.0070927 9.06154e-19)
)
;

boundaryField
{
    inlet
    {
        type            uniformFixedValue;
        uniformValue    
        {
            type            constant;
            value           (1 0 0);
        }
        value           uniform (1 0 0);
    }
    outlet
    {
        type            pressureInletOutletVelocity;
        value           nonuniform List<vector> 
20
(
(0.872994 0.0607403 -2.02788e-20)
(0.871139 0.058713 1.24186e-20)
(0.865485 0.0570945 1.74865e-19)
(0.854257 0.0546643 5.52486e-18)
(0.835227 0.0512997 2.88072e-19)
(0.805474 0.0466633 -5.44162e-18)
(0.763082 0.0402512 -3.31316e-19)
(0.711008 0.0315927 -1.75296e-19)
(0.660613 0.0204133 -5.27299e-18)
(0.628942 0.0070927 -1.41542e-19)
(0.872994 -0.0607403 8.3766e-19)
(0.871139 -0.058713 1.68354e-19)
(0.865485 -0.0570945 7.80675e-19)
(0.854257 -0.0546643 4.15935e-19)
(0.835227 -0.0512997 6.39755e-18)
(0.805474 -0.0466633 1.23557e-18)
(0.763082 -0.0402512 1.62187e-19)
(0.711008 -0.0315927 9.00314e-19)
(0.660613 -0.0204133 5.5477e-18)
(0.628942 -0.0070927 9.06154e-19)
)
;
    }
    polygon
    {
        type            fixedValue;
        value           uniform (0 0 0);
    }
    top
    {
        type            symmetryPlane;
    }
    bottom
    {
        type            symmetryPlane;
    }
    outside
    {
        type            zeroGradient;
    }
}


// ************************************************************************* //
