/*--------------------------------*- C++ -*----------------------------------*\
  =========                 |
  \\      /  F ield         | OpenFOAM: The Open Source CFD Toolbox
   \\    /   O peration     | Website:  https://openfoam.org
    \\  /    A nd           | Version:  7
     \\/     M anipulation  |
\*---------------------------------------------------------------------------*/
FoamFile
{
    version     2.0;
    format      ascii;
    class       volVectorField;
    location    "40";
    object      U;
}
// * * * * * * * * * * * * * * * * * * * * * * * * * * * * * * * * * * * * * //

dimensions      [0 1 -1 0 0 0 0];

internalField   nonuniform List<vector> 
115
(
(0.239574 0.401634 2.02633e-18)
(0.22319 0.393314 6.16695e-18)
(0.204209 0.375155 8.24446e-18)
(0.183341 0.355867 -2.03179e-17)
(0.161742 0.332282 -1.58046e-17)
(0.140447 0.30683 -3.13484e-17)
(0.120058 0.280138 -2.31988e-17)
(0.101143 0.253188 -4.02642e-17)
(0.0838917 0.226587 -1.01892e-17)
(0.0684611 0.200696 3.67386e-17)
(0.0548506 0.175621 -6.84155e-18)
(0.043039 0.151388 -5.40333e-17)
(0.0329872 0.127933 -8.18598e-17)
(0.0246447 0.10518 -6.57377e-17)
(0.292612 0.413846 -6.92366e-18)
(0.290249 0.419723 -1.5472e-17)
(0.281978 0.410897 -2.42756e-17)
(0.271938 0.403206 -2.65844e-17)
(0.257563 0.387832 -2.58464e-17)
(0.241935 0.369058 2.68815e-17)
(0.224678 0.345931 -2.67934e-17)
(0.207459 0.320156 3.31477e-17)
(0.190645 0.292756 -4.16929e-17)
(0.174987 0.264815 3.67497e-17)
(0.160713 0.237075 -3.88964e-17)
(0.148042 0.209977 -7.54428e-17)
(0.137003 0.183697 -9.66359e-18)
(0.127589 0.158276 7.68341e-17)
(0.11975 0.133666 1.3774e-17)
(0.113423 0.1098 7.48196e-17)
(0.325159 0.414033 -4.52412e-18)
(0.328938 0.420969 -6.8128e-18)
(0.323907 0.416163 -1.57956e-17)
(0.31956 0.409869 -9.78641e-18)
(0.309955 0.396753 -2.11281e-17)
(0.299355 0.379028 1.60235e-18)
(0.286489 0.356582 1.36998e-18)
(0.273292 0.33082 -3.63359e-18)
(0.260006 0.302983 -5.77453e-18)
(0.247534 0.274266 -2.60961e-17)
(0.236161 0.245555 -7.98861e-17)
(0.226185 0.217387 -3.59224e-17)
(0.217668 0.190018 -6.93853e-17)
(0.210621 0.163527 1.92494e-17)
(0.204983 0.137889 2.68897e-17)
(0.200673 0.113051 1.47649e-17)
(0.356974 0.41162 -4.06865e-18)
(0.366141 0.419938 -1.05417e-17)
(0.364447 0.417766 -1.01044e-17)
(0.365339 0.413218 -1.87942e-17)
(0.360547 0.402079 -5.77262e-18)
(0.354944 0.385731 4.69194e-18)
(0.346563 0.364239 5.37344e-19)
(0.337436 0.338829 -1.53934e-18)
(0.327699 0.31085 -6.51064e-18)
(0.318381 0.281592 -2.25391e-17)
(0.309837 0.252086 -4.35776e-17)
(0.30246 0.222984 -6.9369e-17)
(0.296359 0.19464 -1.58144e-17)
(0.291572 0.167187 2.82458e-17)
(0.288035 0.14064 8.19816e-17)
(0.285651 0.114964 1.64164e-17)
(0.387401 0.407056 -4.48112e-18)
(0.401182 0.416542 -4.89571e-18)
(0.402706 0.416121 -1.68573e-17)
(0.408502 0.413187 -4.72733e-18)
(0.408507 0.403884 -2.53892e-17)
(0.407939 0.389084 8.05252e-18)
(0.404216 0.368827 3.75739e-18)
(0.399328 0.344119 -1.73493e-18)
(0.393273 0.316335 -7.54137e-18)
(0.387164 0.286814 -3.32026e-17)
(0.381424 0.256728 -7.90781e-17)
(0.376557 0.226852 -1.76503e-17)
(0.372737 0.197659 -7.85402e-17)
(0.370049 0.16936 1.93521e-17)
(0.368441 0.142021 1.1169e-17)
(0.367809 0.115639 4.76014e-18)
(0.415921 0.400812 -3.63309e-18)
(0.433461 0.410825 -4.30091e-18)
(0.437979 0.411575 -1.22518e-17)
(0.448245 0.409856 -3.39355e-18)
(0.452972 0.402189 -1.51525e-17)
(0.457471 0.38898 1.12427e-17)
(0.458646 0.370192 1.2348e-17)
(0.458282 0.346537 1.83567e-18)
(0.456194 0.319327 3.48603e-18)
(0.453491 0.289886 -2.9033e-17)
(0.450649 0.259498 -6.03369e-17)
(0.448278 0.229064 -1.10464e-17)
(0.446638 0.199189 -5.87041e-17)
(0.445885 0.170182 2.70005e-17)
(0.446004 0.142183 2.17965e-17)
(0.446902 0.115228 8.26144e-18)
(0.442168 0.393279 -2.16892e-18)
(0.462521 0.403107 -3.3649e-18)
(0.469683 0.404458 -5.50673e-18)
(0.483838 0.40342 -1.71794e-18)
(0.493073 0.397051 -2.69095e-18)
(0.502583 0.385321 1.375e-17)
(0.508886 0.368129 3.13403e-17)
(0.513421 0.345833 4.33874e-18)
(0.515741 0.319596 3.05315e-17)
(0.516838 0.290644 -2.49649e-17)
(0.517181 0.260317 -1.96199e-17)
(0.517459 0.229622 -3.22737e-18)
(0.518026 0.199299 -6.07259e-18)
(0.519133 0.169774 4.08282e-17)
(0.520827 0.141275 7.82477e-17)
(0.523058 0.113896 2.2598e-17)
(0.525701 0.0876631 9.29011e-17)
(0.465935 0.384853 -4.02027e-18)
(0.488077 0.393796 -5.06753e-18)
(0.49742 0.39519 -1.48081e-17)
(0.5147 0.394193 -5.74914e-18)
)
;

boundaryField
{
    inlet
    {
        type            uniformFixedValue;
        uniformValue    constant (1 0 0);
        value           nonuniform 0();
    }
    outlet
    {
        type            pressureInletOutletVelocity;
        value           nonuniform List<vector> 7((0.292612 0.413846 -6.92366e-18) (0.325159 0.414033 -4.52412e-18) (0.356974 0.41162 -4.06865e-18) (0.387401 0.407056 -4.48112e-18) (0.415921 0.400812 -3.63309e-18) (0.442168 0.393279 -2.16892e-18) (0.465935 0.384853 -4.02027e-18));
    }
    polygon
    {
        type            fixedValue;
        value           nonuniform 0();
    }
    top
    {
        type            symmetryPlane;
    }
    bottom
    {
        type            symmetryPlane;
    }
    outside
    {
        type            zeroGradient;
    }
    procBoundary15to7
    {
        type            processor;
        value           nonuniform List<vector> 
18
(
(0.528022 0.388631 -2.05842e-17)
(0.542289 0.378077 8.85061e-18)
(0.553825 0.362432 6.24548e-18)
(0.563617 0.341691 -9.22941e-19)
(0.570893 0.316792 -4.08895e-18)
(0.576385 0.288773 -3.591e-17)
(0.580455 0.258949 -6.91241e-17)
(0.5838 0.228385 -1.23793e-17)
(0.586845 0.197941 -6.14301e-17)
(0.589943 0.16816 3.29628e-17)
(0.59323 0.139378 1.83395e-17)
(0.596732 0.11176 9.78764e-18)
(0.600374 0.0853735 2.05152e-17)
(0.487136 0.375934 -2.39695e-18)
(0.510019 0.383365 -2.66128e-18)
(0.521017 0.38426 -9.98063e-18)
(0.528022 0.388631 -2.05842e-17)
(0.540502 0.38262 -3.51449e-18)
)
;
    }
    procBoundary15to14
    {
        type            processor;
        value           nonuniform List<vector> 8((0.017956 0.0830767 -8.69252e-17) (0.108533 0.0866305 -3.60971e-18) (0.19759 0.0889715 1.81142e-17) (0.284295 0.0901273 8.09283e-17) (0.36801 0.0901936 1.10198e-17) (0.448434 0.0893169 2.1836e-17) (0.448434 0.0893169 2.1836e-17) (0.528621 0.062592 3.46591e-17));
    }
    procBoundary15to23
    {
        type            processor;
        value           nonuniform List<vector> 
17
(
(0.197575 0.388197 -9.1068e-18)
(0.174023 0.380097 3.63458e-20)
(0.150705 0.358581 -1.49427e-17)
(0.124141 0.339459 1.52154e-17)
(0.0982737 0.315553 -4.40005e-18)
(0.0727674 0.290798 2.45575e-17)
(0.0487278 0.265079 -3.22917e-18)
(0.0264787 0.239338 3.56779e-17)
(0.0061911 0.214054 -4.27812e-19)
(-0.0120227 0.189506 1.0776e-17)
(-0.0281868 0.165781 3.72037e-18)
(-0.0423535 0.142874 6.26697e-17)
(-0.0545516 0.120714 -2.04111e-18)
(-0.0648257 0.0992257 7.30063e-17)
(0.260134 0.410782 -1.49266e-18)
(0.250865 0.416083 3.61904e-19)
(0.250865 0.416083 3.61904e-19)
)
;
    }
}


// ************************************************************************* //
