/*--------------------------------*- C++ -*----------------------------------*\
  =========                 |
  \\      /  F ield         | OpenFOAM: The Open Source CFD Toolbox
   \\    /   O peration     | Website:  https://openfoam.org
    \\  /    A nd           | Version:  7
     \\/     M anipulation  |
\*---------------------------------------------------------------------------*/
FoamFile
{
    version     2.0;
    format      ascii;
    class       volVectorField;
    location    "60";
    object      U;
}
// * * * * * * * * * * * * * * * * * * * * * * * * * * * * * * * * * * * * * //

dimensions      [0 1 -1 0 0 0 0];

internalField   nonuniform List<vector> 
125
(
(0.763521 -0.161725 -8.59603e-17)
(0.813254 -0.220447 -3.22147e-17)
(0.550423 -0.59845 -1.15443e-17)
(0.763994 -0.147493 -2.58453e-17)
(0.776023 -0.196281 -6.99734e-17)
(0.531205 -0.542156 -1.47887e-17)
(0.766064 -0.13297 -7.96627e-18)
(0.742892 -0.174776 -1.17743e-16)
(0.509522 -0.47875 -9.09587e-17)
(0.768991 -0.11712 -2.85934e-18)
(0.714426 -0.152397 -6.68984e-17)
(0.490678 -0.41662 -1.2025e-16)
(0.772435 -0.10034 -1.29853e-17)
(0.690631 -0.129393 -7.73529e-17)
(0.474436 -0.354765 -6.54207e-17)
(0.776192 -0.082867 -3.08248e-17)
(0.671326 -0.10604 -1.22016e-16)
(0.460764 -0.29284 -7.78238e-17)
(0.780081 -0.0648409 -6.14352e-17)
(0.656301 -0.0823578 -2.24065e-16)
(1.27402 -0.420953 -1.45901e-18)
(1.06022 -0.378368 2.22931e-18)
(0.521191 -0.145146 1.62704e-18)
(1.29793 -0.433098 4.39945e-18)
(1.23912 -0.431927 -1.17521e-18)
(1.00376 -0.375099 3.30983e-18)
(0.438221 -0.152103 -3.35767e-18)
(1.28938 -0.450388 4.79449e-18)
(1.23911 -0.457366 -2.30172e-18)
(1.01839 -0.405775 5.28223e-19)
(0.450569 -0.165501 2.18547e-20)
(1.27317 -0.464579 3.06423e-18)
(1.22131 -0.474758 -3.00142e-18)
(1.00797 -0.424577 -5.61082e-19)
(0.445459 -0.177845 -2.31967e-18)
(1.25824 -0.478702 5.47608e-18)
(1.21123 -0.494244 -3.96658e-18)
(1.01064 -0.447278 -7.45986e-19)
(0.453759 -0.193287 -3.66868e-18)
(1.2401 -0.49096 1.25772e-17)
(1.19644 -0.511542 -1.33525e-18)
(1.01092 -0.470015 -4.11662e-19)
(0.469222 -0.21404 -2.89222e-18)
(1.22149 -0.502218 2.11838e-17)
(1.18244 -0.528409 2.01393e-18)
(1.01383 -0.493945 -3.36117e-19)
(0.492871 -0.242018 -4.74605e-18)
(1.20085 -0.464639 -7.90548e-19)
(1.20351 -0.511834 2.49521e-17)
(1.16873 -0.543713 7.28962e-18)
(1.01816 -0.518344 -7.61815e-20)
(0.526586 -0.279153 -6.51722e-18)
(1.18349 -0.470942 -7.37244e-18)
(1.18584 -0.520154 2.11696e-17)
(1.15611 -0.557309 7.24564e-18)
(1.0251 -0.542095 -2.71516e-20)
(0.575702 -0.326407 -2.06475e-17)
(1.15538 -0.476369 -1.01444e-17)
(1.15586 -0.527424 1.74825e-17)
(1.12956 -0.56934 1.88498e-17)
(1.0185 -0.565147 1.13579e-18)
(0.633696 -0.385044 -1.8074e-17)
(1.03936 -0.192139 1.73238e-18)
(0.720701 -0.111715 8.12804e-19)
(0.309401 -0.0284778 -5.71083e-18)
(0.00613045 -0.0196293 -5.97876e-18)
(-0.0692351 -0.0306194 -4.40074e-18)
(1.11261 -0.221003 1.49034e-18)
(0.823927 -0.140124 2.09313e-18)
(0.402182 -0.0399984 -1.70479e-18)
(0.0478551 -0.00819638 -4.30103e-18)
(-0.0648573 -0.018704 1.76917e-19)
(1.16292 -0.244209 1.34881e-18)
(0.910546 -0.169233 1.60104e-18)
(0.498429 -0.0606209 -9.08367e-19)
(0.0942141 0.00189965 9.69115e-19)
(-0.0612226 -0.00821639 -5.74935e-20)
(0.997452 -0.200782 9.56858e-19)
(0.608137 -0.089991 -1.30775e-18)
(0.159639 0.00559782 5.147e-18)
(-0.0566712 0.00225775 -2.66335e-19)
(1.07689 -0.234653 1.8018e-18)
(0.725991 -0.127454 1.24947e-18)
(0.245491 -0.00265789 9.11834e-19)
(-0.0471453 0.0125373 9.57634e-20)
(1.14809 -0.270029 1.96125e-18)
(0.845849 -0.171343 1.25187e-18)
(0.35327 -0.0272893 -1.02327e-18)
(-0.0253062 0.0210134 -2.34858e-19)
(1.20804 -0.305831 8.7367e-19)
(0.96055 -0.219718 1.65438e-18)
(0.482869 -0.0704509 -2.34358e-18)
(0.0154478 0.023558 -6.75373e-19)
(1.25383 -0.340367 1.02701e-18)
(1.06397 -0.270727 2.5083e-18)
(0.630605 -0.129591 -3.1746e-18)
(0.0838966 0.0151874 -8.56954e-19)
(1.2845 -0.371874 6.42011e-19)
(1.15315 -0.323058 -4.32553e-18)
(0.791458 -0.201432 -3.84777e-18)
(0.189659 -0.0114559 -3.16709e-19)
(1.30425 -0.398622 1.91393e-18)
(1.22574 -0.375049 9.36867e-19)
(0.953984 -0.280531 3.3174e-18)
(0.408468 -0.0583329 2.31351e-20)
(0.965449 -0.0935799 -9.00693e-17)
(0.922469 -0.220269 -5.12446e-17)
(0.948303 -0.190205 3.67243e-17)
(0.978281 -0.490003 3.83482e-17)
(0.965615 -0.0938126 -2.95335e-19)
(0.885008 -0.213312 -4.76796e-17)
(0.923482 -0.198202 1.3959e-16)
(0.959521 -0.548757 4.06511e-17)
(0.966191 -0.0913956 -1.18335e-17)
(0.840709 -0.20229 -4.67444e-17)
(0.907149 -0.209531 1.20533e-16)
(0.930644 -0.612952 2.21188e-17)
(0.961631 -0.0851852 -1.0001e-16)
(0.797536 -0.188642 -5.05978e-17)
(0.895308 -0.223047 2.8434e-17)
(0.87414 -0.674767 7.56479e-18)
(0.94723 -0.0752787 -2.61483e-19)
(0.768 -0.173899 -5.41107e-17)
(0.869265 -0.233396 9.82703e-17)
(0.746566 -0.707178 1.04256e-17)
)
;

boundaryField
{
    inlet
    {
        type            uniformFixedValue;
        uniformValue    constant (1 0 0);
        value           nonuniform 0();
    }
    outlet
    {
        type            pressureInletOutletVelocity;
        value           nonuniform 0();
    }
    polygon
    {
        type            fixedValue;
        value           uniform (0 0 0);
    }
    top
    {
        type            symmetryPlane;
    }
    bottom
    {
        type            symmetryPlane;
    }
    outside
    {
        type            zeroGradient;
    }
    procBoundary25to16
    {
        type            processor;
        value           nonuniform List<vector> 9((0.930094 -0.0659296 -4.05667e-18) (0.930094 -0.0659296 -4.05667e-18) (0.920414 -0.057466 -2.96512e-17) (0.9118 -0.0496786 -6.95437e-17) (0.931485 -0.0922956 5.13996e-17) (0.910553 -0.0855468 1.92035e-17) (0.891289 -0.078394 2.22449e-17) (0.877745 -0.0709403 5.81355e-17) (0.872591 -0.0625227 2.57174e-17));
    }
    procBoundary25to17
    {
        type            processor;
        value           nonuniform List<vector> 
28
(
(1.31604 -0.417276 1.12428e-18)
(1.31604 -0.417276 1.12428e-18)
(1.31604 -0.417276 1.12428e-18)
(1.29577 -0.404119 -5.32218e-18)
(1.28384 -0.41593 -1.22499e-18)
(1.2691 -0.427912 -9.54011e-18)
(1.25355 -0.438758 -8.74258e-18)
(1.23609 -0.448589 -3.4756e-18)
(1.21802 -0.457276 -7.57798e-18)
(1.21802 -0.457276 -7.57798e-18)
(1.19168 -0.42064 2.09821e-17)
(1.17578 -0.425379 2.16642e-17)
(1.15063 -0.429436 1.44056e-17)
(1.22065 -0.248243 -2.12361e-18)
(1.25919 -0.269421 -3.38369e-18)
(1.27949 -0.284036 -4.55666e-18)
(1.21229 -0.269233 1.31936e-18)
(1.21229 -0.269233 1.31936e-18)
(1.2508 -0.293354 8.70433e-19)
(1.28113 -0.31636 2.26084e-19)
(1.30136 -0.337514 -7.1176e-19)
(1.31145 -0.356046 -1.85502e-18)
(1.31254 -0.371125 -9.81315e-19)
(1.3104 -0.381999 -3.79611e-18)
(0.969179 -0.0920773 -1.23022e-17)
(0.950861 -0.222253 -4.29982e-17)
(0.977634 -0.185328 9.04772e-17)
(0.995908 -0.438244 4.5472e-17)
)
;
    }
    procBoundary25to18
    {
        type            processor;
        value           nonuniform List<vector> 5((0.959839 -0.17824 9.27731e-19) (0.610708 -0.100719 -5.70228e-19) (0.22273 -0.0336361 -6.22489e-18) (-0.0248537 -0.0279566 -2.56075e-18) (-0.0752028 -0.0528708 -3.53974e-18));
    }
    procBoundary25to24
    {
        type            processor;
        value           nonuniform List<vector> 4((0.904285 -0.0420556 9.67898e-18) (0.897917 -0.0346881 -3.35723e-17) (0.892744 -0.0276358 -7.28374e-17) (0.888792 -0.0208759 -1.46571e-16));
    }
    procBoundary25to33
    {
        type            processor;
        value           nonuniform List<vector> 4((0.449649 -0.230338 -1.06935e-16) (0.783863 -0.0467138 -1.1949e-16) (0.449649 -0.230338 -1.06935e-16) (0.645336 -0.058975 -2.49666e-16));
    }
}


// ************************************************************************* //
