/*--------------------------------*- C++ -*----------------------------------*\
  =========                 |
  \\      /  F ield         | OpenFOAM: The Open Source CFD Toolbox
   \\    /   O peration     | Website:  https://openfoam.org
    \\  /    A nd           | Version:  7
     \\/     M anipulation  |
\*---------------------------------------------------------------------------*/
FoamFile
{
    version     2.0;
    format      ascii;
    class       volScalarField;
    location    "110";
    object      p;
}
// * * * * * * * * * * * * * * * * * * * * * * * * * * * * * * * * * * * * * //

dimensions      [0 2 -2 0 0 0 0];

internalField   nonuniform List<scalar> 
175
(
-0.0308064
-0.0307341
-0.0306766
-0.030638
-0.030623
-0.0306343
-0.0306758
-0.0307493
-0.0308573
-0.0310011
-0.0311816
-0.0313994
-0.0316542
-0.0319457
-0.0322734
-0.0326361
-0.0330345
-0.0334654
-0.0305679
-0.0305012
-0.0304549
-0.0304327
-0.0304394
-0.030477
-0.0305488
-0.0306562
-0.0308007
-0.0309832
-0.0312035
-0.0314614
-0.0317559
-0.0320856
-0.0324493
-0.0328449
-0.0332726
-0.0337283
-0.0303257
-0.0302645
-0.0302294
-0.030224
-0.0302527
-0.0303171
-0.03042
-0.0305619
-0.030744
-0.030966
-0.0312273
-0.0315264
-0.0318617
-0.0322308
-0.0326315
-0.0330609
-0.0335188
-0.0340001
-0.0300849
-0.0300291
-0.0300051
-0.0300164
-0.0300672
-0.0301582
-0.030292
-0.0304684
-0.0306879
-0.0309493
-0.0312513
-0.0315915
-0.0319673
-0.0323755
-0.0328131
-0.033276
-0.0337637
-0.0342702
-0.0298453
-0.0297948
-0.0297819
-0.0298099
-0.0298825
-0.0300001
-0.0301647
-0.0303755
-0.0306322
-0.030933
-0.0312755
-0.0316567
-0.0320729
-0.03252
-0.0329942
-0.0334905
-0.0340077
-0.0345392
-0.0296063
-0.029561
-0.0295593
-0.0296038
-0.0296983
-0.0298425
-0.0300379
-0.0302831
-0.030577
-0.030917
-0.0313001
-0.0317222
-0.0321788
-0.0326648
-0.0331756
-0.0337051
-0.0342518
-0.0348083
-0.0293678
-0.0293277
-0.029337
-0.0293981
-0.0295143
-0.0296851
-0.0299114
-0.0301908
-0.0305219
-0.0309013
-0.0313249
-0.031788
-0.032285
-0.03281
-0.0333572
-0.03392
-0.034496
-0.0350775
-0.0291289
-0.0290941
-0.0291144
-0.0291918
-0.0293298
-0.0295272
-0.0297842
-0.030098
-0.0304665
-0.0308853
-0.0313496
-0.0318538
-0.0323914
-0.0329554
-0.0335393
-0.0341352
-0.0347407
-0.0353473
-0.0288893
-0.0288593
-0.02889
-0.0289844
-0.0291443
-0.0293683
-0.0296563
-0.0300047
-0.0304106
-0.0308691
-0.0313743
-0.0319198
-0.0324982
-0.0331015
-0.0337223
-0.0343517
-0.0349866
-0.035619
-0.0286566
-0.0286313
-0.0286713
-0.0287844
-0.0289663
-0.0292171
-0.0295357
-0.0299182
-0.0303611
-0.0308586
-0.0314039
-0.0319899
-0.0326082
)
;

boundaryField
{
    inlet
    {
        type            zeroGradient;
    }
    outlet
    {
        type            fixedValue;
        value           nonuniform 0();
    }
    polygon
    {
        type            zeroGradient;
    }
    top
    {
        type            symmetryPlane;
    }
    bottom
    {
        type            symmetryPlane;
    }
    outside
    {
        type            slip;
    }
    procBoundary29to21
    {
        type            processor;
        value           nonuniform List<scalar> 
19
(
-0.0284635
-0.0284453
-0.0284978
-0.0286238
-0.0288248
-0.0290988
-0.029444
-0.0298559
-0.0303305
-0.0308609
-0.0314401
-0.0320599
-0.0327112
-0.0332498
-0.0339063
-0.034568
-0.0352313
-0.0358891
-0.0332498
)
;
    }
    procBoundary29to28
    {
        type            processor;
        value           nonuniform List<scalar> 9(-0.033929 -0.0342126 -0.0345048 -0.0347944 -0.0350828 -0.0353713 -0.0356598 -0.0359476 -0.0362359);
    }
    procBoundary29to30
    {
        type            processor;
        value           nonuniform List<scalar> 10(-0.0308884 -0.0306499 -0.0304076 -0.0301674 -0.0299283 -0.0296898 -0.0294518 -0.0292136 -0.028975 -0.0287428);
    }
    procBoundary29to37
    {
        type            processor;
        value           nonuniform List<scalar> 
18
(
-0.03103
-0.0309525
-0.0308843
-0.0308301
-0.0307949
-0.0307817
-0.030795
-0.0308374
-0.0309117
-0.0310201
-0.0311644
-0.0313457
-0.0315648
-0.031822
-0.0321176
-0.0324513
-0.0328242
-0.0332341
)
;
    }
}


// ************************************************************************* //
