/*--------------------------------*- C++ -*----------------------------------*\
  =========                 |
  \\      /  F ield         | OpenFOAM: The Open Source CFD Toolbox
   \\    /   O peration     | Website:  https://openfoam.org
    \\  /    A nd           | Version:  7
     \\/     M anipulation  |
\*---------------------------------------------------------------------------*/
FoamFile
{
    version     2.0;
    format      ascii;
    class       volScalarField;
    location    "40";
    object      p;
}
// * * * * * * * * * * * * * * * * * * * * * * * * * * * * * * * * * * * * * //

dimensions      [0 2 -2 0 0 0 0];

internalField   nonuniform List<scalar> 
125
(
-0.344731
0.0431909
-0.0198573
0.00715956
-0.0373837
-0.0477156
-0.0821745
-0.108731
-0.139815
-0.169856
-0.199265
-0.227328
-0.253538
-0.277548
-0.299079
-0.317919
-0.33392
-0.346985
0.0386013
-0.0226365
0.00187539
-0.0413567
-0.0523933
-0.0861948
-0.112801
-0.143613
-0.17352
-0.202758
-0.230657
-0.256705
-0.280555
-0.301928
-0.320614
-0.336464
-0.349379
0.0313393
-0.0264424
-0.00700875
-0.0479478
-0.0603488
-0.0929698
-0.11974
-0.149999
-0.179669
-0.208581
-0.236171
-0.261927
-0.285498
-0.30661
-0.325056
-0.340685
-0.353395
0.0221162
-0.0302286
-0.0184406
-0.0569408
-0.071207
-0.102665
-0.129501
-0.159219
-0.188446
-0.216895
-0.244013
-0.269314
-0.292455
-0.313172
-0.33126
-0.346565
-0.358982
0.0139518
-0.0326314
-0.0291784
-0.06472
-0.0814653
-0.112101
-0.139085
-0.16841
-0.197231
-0.225248
-0.2519
-0.276744
-0.299452
-0.319769
-0.337493
-0.352472
-0.364597
0.00691322
-0.0339833
-0.0385547
-0.0712392
-0.0906804
-0.120605
-0.147898
-0.17695
-0.205439
-0.233065
-0.259286
-0.283697
-0.30599
-0.32592
-0.343294
-0.357957
-0.369797
0.00105289
-0.0346354
-0.046236
-0.0763652
-0.0986468
-0.127736
-0.155552
-0.184389
-0.212627
-0.239913
-0.26575
-0.289767
-0.311678
-0.331251
-0.348297
-0.362666
-0.374241
-0.00359956
-0.0348658
-0.0520706
-0.0802662
-0.104896
)
;

boundaryField
{
    inlet
    {
        type            zeroGradient;
    }
    outlet
    {
        type            fixedValue;
        value           uniform 0;
    }
    polygon
    {
        type            zeroGradient;
    }
    top
    {
        type            symmetryPlane;
    }
    bottom
    {
        type            symmetryPlane;
    }
    outside
    {
        type            slip;
    }
    procBoundary23to15
    {
        type            processor;
        value           nonuniform List<scalar> 
18
(
-0.133427
-0.161711
-0.190361
-0.218425
-0.245426
-0.27094
-0.294616
-0.316188
-0.335443
-0.352197
-0.366303
-0.377644
-0.00705715
-0.0348684
-0.0560666
-0.0830247
-0.133427
-0.10925
)
;
    }
    procBoundary23to22
    {
        type            processor;
        value           nonuniform List<scalar> 8(-0.354959 -0.357067 -0.359311 -0.363135 -0.368452 -0.373803 -0.378742 -0.382947);
    }
    procBoundary23to31
    {
        type            processor;
        value           nonuniform List<scalar> 
18
(
-0.342656
0.04791
-0.0168002
0.0123732
-0.0334773
-0.0432746
-0.0783146
-0.104905
-0.136205
-0.166391
-0.195955
-0.224171
-0.250535
-0.2747
-0.296383
-0.315373
-0.331521
-0.331521
)
;
    }
}


// ************************************************************************* //
