/*--------------------------------*- C++ -*----------------------------------*\
  =========                 |
  \\      /  F ield         | OpenFOAM: The Open Source CFD Toolbox
   \\    /   O peration     | Website:  https://openfoam.org
    \\  /    A nd           | Version:  7
     \\/     M anipulation  |
\*---------------------------------------------------------------------------*/
FoamFile
{
    version     2.0;
    format      ascii;
    class       volScalarField;
    location    "76";
    object      p;
}
// * * * * * * * * * * * * * * * * * * * * * * * * * * * * * * * * * * * * * //

dimensions      [0 2 -2 0 0 0 0];

internalField   nonuniform List<scalar> 
115
(
-0.0513392
-0.052249
-0.0530632
-0.053758
-0.0374405
-0.0384804
-0.0395453
-0.040633
-0.0417406
-0.0428649
-0.0440021
-0.0451474
-0.0462951
-0.0474386
-0.0485697
-0.0496785
-0.0507533
-0.0517802
-0.0527427
-0.0536211
-0.0543928
-0.0378224
-0.0388454
-0.0398948
-0.0409687
-0.0420651
-0.0431813
-0.0443139
-0.0454592
-0.0466122
-0.047767
-0.0489166
-0.0500522
-0.0511632
-0.052237
-0.0532583
-0.054209
-0.0550676
-0.0381566
-0.0391709
-0.0402124
-0.0412796
-0.0423709
-0.0434842
-0.0446167
-0.0457654
-0.0469263
-0.0480945
-0.0492639
-0.0504272
-0.0515753
-0.052697
-0.053779
-0.0548051
-0.0557557
-0.0384484
-0.0394609
-0.0405012
-0.0415679
-0.0426599
-0.0437753
-0.044912
-0.0460676
-0.0472388
-0.0484217
-0.0496113
-0.0508015
-0.0519849
-0.0531521
-0.0542917
-0.05539
-0.0564299
-0.0387032
-0.0397191
-0.0407631
-0.0418342
-0.0429314
-0.0440533
-0.0451981
-0.0463639
-0.0475479
-0.048747
-0.0499572
-0.0511734
-0.0523895
-0.0535979
-0.0547892
-0.0559519
-0.0570719
-0.0389258
-0.0399482
-0.040999
-0.0420777
-0.0431831
-0.0443142
-0.0454697
-0.0466478
-0.0478464
-0.0490627
-0.0502937
-0.051535
-0.0527816
-0.0540272
-0.0552641
-0.0564826
-0.0576711
-0.0391201
-0.0401502
-0.0412094
-0.0422968
-0.0434117
-0.0445532
-0.0457202
-0.0469113
-0.0481246
)
;

boundaryField
{
    inlet
    {
        type            zeroGradient;
    }
    outlet
    {
        type            fixedValue;
        value           nonuniform 0();
    }
    polygon
    {
        type            zeroGradient;
    }
    top
    {
        type            symmetryPlane;
    }
    bottom
    {
        type            symmetryPlane;
    }
    outside
    {
        type            slip;
    }
    procBoundary51to43
    {
        type            processor;
        value           nonuniform List<scalar> 
18
(
-0.049358
-0.0506086
-0.0518732
-0.0531473
-0.0544258
-0.0557021
-0.0569682
-0.0582142
-0.0392892
-0.0403271
-0.0413943
-0.0424904
-0.0436145
-0.0447661
-0.045944
-0.0471471
-0.049358
-0.0483739
)
;
    }
    procBoundary51to50
    {
        type            processor;
        value           nonuniform List<scalar> 5(-0.0558088 -0.0566075 -0.0573912 -0.058132 -0.0588154);
    }
    procBoundary51to52
    {
        type            processor;
        value           nonuniform List<scalar> 7(-0.0364276 -0.0368275 -0.0371708 -0.0374646 -0.0377163 -0.0379327 -0.0381194);
    }
    procBoundary51to58
    {
        type            processor;
        value           nonuniform List<scalar> 2(-0.0543057 -0.0550309);
    }
    procBoundary51to59
    {
        type            processor;
        value           nonuniform List<scalar> 
18
(
-0.0509265
-0.0517924
-0.052553
-0.0531838
-0.0370072
-0.0380731
-0.0391617
-0.0402703
-0.0413955
-0.0425335
-0.0436798
-0.0448292
-0.0459753
-0.0471106
-0.0482263
-0.0493117
-0.0503543
-0.0503543
)
;
    }
}


// ************************************************************************* //
