/*--------------------------------*- C++ -*----------------------------------*\
  =========                 |
  \\      /  F ield         | OpenFOAM: The Open Source CFD Toolbox
   \\    /   O peration     | Website:  https://openfoam.org
    \\  /    A nd           | Version:  7
     \\/     M anipulation  |
\*---------------------------------------------------------------------------*/
FoamFile
{
    version     2.0;
    format      ascii;
    class       volVectorField;
    location    "110";
    object      U;
}
// * * * * * * * * * * * * * * * * * * * * * * * * * * * * * * * * * * * * * //

dimensions      [0 1 -1 0 0 0 0];

internalField   nonuniform List<vector> 
4000
(
(1.25701 0.222107 4.1564e-18)
(1.25266 0.240245 1.45216e-18)
(1.24534 0.247956 -1.02353e-20)
(1.23965 0.262051 -1.60968e-18)
(1.23316 0.273486 7.36655e-19)
(1.22776 0.287586 1.71076e-18)
(1.22192 0.301447 6.90734e-18)
(1.21663 0.317203 5.61133e-18)
(1.2111 0.33434 8.25374e-18)
(1.20613 0.352762 1.26801e-17)
(1.20047 0.374906 7.56955e-18)
(1.19612 0.397722 5.88547e-18)
(1.18973 0.429157 -1.96679e-18)
(1.18843 0.459863 5.24414e-18)
(1.18194 0.505412 9.25638e-18)
(1.18767 0.536455 1.50623e-17)
(1.14823 0.55111 5.5722e-18)
(1.06561 0.472772 3.2749e-18)
(0.717406 0.246717 1.79282e-18)
(0.397535 0.00318114 3.54596e-18)
(1.26428 0.22712 3.31691e-18)
(1.25974 0.24505 8.95259e-19)
(1.25273 0.25309 -2.66714e-19)
(1.2473 0.267315 1.68566e-19)
(1.24119 0.279061 9.55394e-19)
(1.23611 0.293508 2.44195e-18)
(1.23069 0.307893 5.91922e-18)
(1.22592 0.324296 5.19434e-18)
(1.22119 0.342209 7.75182e-18)
(1.2172 0.361976 9.43466e-18)
(1.21325 0.385477 5.6935e-18)
(1.21114 0.410954 2.62848e-18)
(1.20965 0.444155 1.56072e-18)
(1.21269 0.477284 8.32339e-18)
(1.20444 0.513383 7.05197e-18)
(1.16846 0.516644 1.0387e-17)
(1.03314 0.476091 4.80452e-18)
(0.755739 0.340808 -6.12675e-18)
(0.33589 0.226977 -4.00282e-17)
(-0.0932919 0.098156 -3.05433e-18)
(1.27102 0.231885 2.41196e-18)
(1.26623 0.249686 8.84042e-19)
(1.25951 0.257932 4.12105e-19)
(1.25426 0.272288 3.77146e-19)
(1.24858 0.284346 1.12852e-18)
(1.244 0.29919 2.6306e-18)
(1.23942 0.314127 5.63831e-18)
(1.23576 0.331155 5.24164e-18)
(1.23242 0.349698 7.98179e-18)
(1.23003 0.370376 8.07426e-18)
(1.22831 0.394543 4.21001e-18)
(1.22912 0.421034 4.26867e-18)
(1.22998 0.452031 1.69286e-18)
(1.22537 0.475572 2.40022e-18)
(1.18446 0.481227 -5.0411e-18)
(1.06893 0.431717 5.53845e-18)
(0.81927 0.322612 -1.73459e-17)
(0.460719 0.15898 -4.35129e-17)
(0.0619072 0.0133991 -2.41203e-17)
(-0.00566828 -0.0273734 -1.41196e-17)
(1.27744 0.236417 2.39584e-18)
(1.27253 0.254124 1.94475e-19)
(1.26613 0.262481 -1.11468e-18)
(1.26109 0.276915 2.19259e-19)
(1.25585 0.289136 1.35037e-18)
(1.25167 0.304131 3.3893e-18)
(1.24761 0.319228 4.28926e-18)
(1.24441 0.33649 4.60071e-18)
(1.2417 0.355423 5.18376e-18)
(1.24068 0.376863 3.53045e-18)
(1.24155 0.401441 5.6927e-19)
(1.24416 0.426922 -2.42577e-18)
(1.23976 0.450196 -1.28015e-18)
(1.209 0.45469 4.72715e-18)
(1.10855 0.425023 -3.19964e-18)
(0.899019 0.336203 -1.83788e-19)
(0.565548 0.212535 -2.41136e-17)
(0.191459 0.0795277 -2.64742e-17)
(-0.0384779 0.0816037 -5.49363e-17)
(-0.0934402 0.0640601 -1.33446e-17)
(1.28363 0.240693 5.03136e-19)
(1.27874 0.258292 7.0112e-19)
(1.27269 0.26669 2.77788e-18)
(1.26797 0.281192 1.17027e-18)
(1.26326 0.293583 1.81185e-18)
(1.25973 0.308868 1.55923e-18)
(1.25668 0.324448 3.95036e-18)
(1.25501 0.342368 4.29711e-18)
(1.25456 0.36176 6.70379e-18)
(1.25602 0.383007 6.71121e-18)
(1.25796 0.405507 2.39015e-18)
(1.25564 0.425237 9.0433e-18)
(1.23177 0.434301 1.20698e-17)
(1.15534 0.413794 -6.21335e-18)
(0.980568 0.350735 -8.51368e-18)
(0.68968 0.237583 -7.59007e-18)
(0.32737 0.118627 -1.83291e-17)
(0.045783 0.0550182 -9.37997e-18)
(-0.0979271 0.0550682 -1.21486e-17)
(-0.0314736 0.0229943 -3.68514e-17)
(1.28962 0.244723 3.82316e-18)
(1.28481 0.262204 3.3547e-19)
(1.27913 0.270605 -1.22692e-18)
(1.27476 0.285128 -1.10626e-18)
(1.27053 0.297537 2.1478e-19)
(1.2675 0.312784 5.67001e-18)
(1.26488 0.328123 3.67849e-18)
(1.2635 0.345487 5.11752e-18)
(1.26319 0.364007 1.94063e-18)
(1.26422 0.3841 2.81112e-18)
(1.26322 0.403664 1.73212e-18)
(1.24929 0.41536 -9.12801e-18)
(1.19487 0.406705 -8.58775e-18)
(1.06134 0.361045 3.03612e-18)
(0.813906 0.274859 8.00922e-18)
(0.475859 0.160679 2.99217e-17)
(0.153423 0.0890833 1.81074e-17)
(-0.0508767 0.0708186 -4.67569e-18)
(-0.0980643 0.090863 5.47929e-18)
(-0.0529653 0.0495243 -4.83513e-18)
(1.29536 0.24849 3.72372e-18)
(1.2907 0.265796 2.46492e-19)
(1.28539 0.274124 -2.74202e-19)
(1.28142 0.288625 -1.98009e-18)
(1.27774 0.30106 4.96556e-19)
(1.27541 0.316487 1.90574e-18)
(1.27396 0.332195 2.74981e-18)
(1.27451 0.350104 1.06501e-20)
(1.27674 0.36888 8.70202e-18)
(1.27886 0.387325 7.72325e-18)
(1.27179 0.40006 -6.98927e-18)
(1.23547 0.397305 2.02865e-18)
(1.13545 0.367529 1.23314e-17)
(0.937406 0.301195 -3.76295e-18)
(0.633033 0.20544 -1.43303e-17)
(0.295326 0.112508 2.10013e-17)
(0.0393312 0.082412 -2.97267e-18)
(-0.0816452 0.0893307 -2.87298e-17)
(-0.105866 0.092625 2.9043e-17)
(-0.0349054 0.0380619 3.14113e-18)
(1.30087 0.252034 1.43871e-18)
(1.29639 0.269169 -1.91578e-19)
(1.29143 0.277446 -2.44755e-18)
(1.28789 0.291923 1.49094e-18)
(1.28469 0.304271 9.78292e-19)
(1.28291 0.319449 7.96435e-19)
(1.28193 0.334397 1.58344e-18)
(1.28222 0.350619 4.54211e-18)
(1.28197 0.366133 7.56618e-18)
(1.27646 0.379021 -1.21809e-18)
(1.25219 0.382995 -7.76586e-18)
(1.18438 0.367925 -6.59959e-18)
(1.03733 0.322662 -3.77523e-18)
(0.786088 0.243751 -8.11142e-18)
(0.456941 0.152469 -1.13671e-18)
(0.158381 0.0935999 2.2893e-17)
(-0.026196 0.0952096 -5.16126e-19)
(-0.108955 0.103082 -8.52339e-18)
(-0.101632 0.102005 -3.2039e-19)
(-0.0439588 0.0442288 -3.76315e-18)
(1.30613 0.255305 5.15655e-18)
(1.30189 0.272168 -2.8582e-19)
(1.29731 0.280239 4.19684e-18)
(1.29423 0.294561 -5.30765e-18)
(1.29155 0.306771 -6.0305e-19)
(1.29044 0.321867 2.98489e-18)
(1.29037 0.336896 4.51013e-18)
(1.2918 0.353433 -3.71285e-18)
(1.29213 0.368964 2.94594e-18)
(1.28315 0.379447 6.62852e-18)
(1.24431 0.374513 -5.03066e-18)
(1.14292 0.341776 1.68303e-17)
(0.944539 0.276144 2.44197e-17)
(0.647135 0.189375 1.48984e-17)
(0.318142 0.1164 6.56814e-18)
(0.0692267 0.0888116 4.50049e-17)
(-0.0690359 0.0968895 2.48415e-17)
(-0.116964 0.100952 -2.75409e-17)
(-0.103782 0.0954712 -8.23547e-18)
(-0.0411073 0.0396888 -9.37491e-19)
(1.31115 0.258382 6.15499e-18)
(1.30717 0.275041 1.33094e-18)
(1.30288 0.283091 -1.96982e-18)
(1.30028 0.297417 -1.24706e-18)
(1.29803 0.309494 5.4945e-18)
(1.2975 0.324192 -3.74404e-19)
(1.29756 0.338026 5.62009e-18)
(1.2973 0.351566 4.27352e-19)
(1.29031 0.360378 1.40998e-17)
(1.26215 0.358293 4.48515e-18)
(1.18654 0.335423 2.74652e-18)
(1.03328 0.286404 1.45555e-17)
(0.785146 0.216455 -4.93378e-18)
(0.472084 0.144027 1.18757e-17)
(0.181138 0.0975774 2.12069e-18)
(-0.00786434 0.0849021 9.58779e-18)
(-0.0993254 0.0889953 -1.59718e-18)
(-0.121789 0.0879936 -5.88706e-18)
(-0.0955001 0.0836563 -1.39502e-17)
(-0.0375582 0.0366101 -3.21854e-18)
(1.18039 0.169289 1.86178e-17)
(1.17034 0.193393 7.48286e-18)
(1.15969 0.201987 -1.41721e-18)
(1.14592 0.220487 -1.57101e-17)
(1.13323 0.233866 -8.37743e-18)
(1.11713 0.250808 3.65545e-17)
(1.10103 0.266788 1.14302e-17)
(1.08138 0.284389 3.8547e-17)
(1.05961 0.302279 9.08741e-19)
(1.03328 0.320967 7.53027e-18)
(1.00259 0.340052 2.38197e-17)
(0.965046 0.358974 -2.502e-17)
(0.920774 0.377703 -5.29097e-17)
(0.866136 0.394668 -4.81427e-18)
(0.805483 0.409509 4.86122e-17)
(0.72894 0.418206 1.21425e-16)
(0.653262 0.426841 1.60004e-16)
(0.547625 0.412985 9.98568e-17)
(0.431206 0.398032 1.25014e-17)
(0.192138 0.19603 2.13079e-17)
(1.18809 0.174791 1.65026e-17)
(1.17862 0.198665 6.38737e-18)
(1.16828 0.20732 3.73578e-19)
(1.15535 0.225759 -1.39177e-17)
(1.14337 0.239244 -6.91454e-18)
(1.12842 0.256439 1.53061e-17)
(1.11353 0.272677 1.23357e-17)
(1.09552 0.290925 1.26819e-17)
(1.07577 0.309667 1.95985e-17)
(1.05196 0.329649 2.91634e-17)
(1.0244 0.350633 -3.265e-18)
(0.990476 0.371922 -1.73816e-17)
(0.950678 0.394044 -2.18454e-18)
(0.901396 0.414338 -4.89492e-19)
(0.846868 0.435719 -3.57888e-18)
(0.778322 0.448262 9.21238e-17)
(0.708422 0.469448 1.12145e-16)
(0.618476 0.45778 1.40878e-17)
(0.49533 0.450914 8.25738e-17)
(0.245578 0.220054 2.07869e-17)
(1.1957 0.180285 1.02643e-17)
(1.18694 0.203807 4.7868e-18)
(1.17687 0.212458 -5.06274e-18)
(1.16494 0.230722 -8.28164e-18)
(1.15362 0.244236 -4.41052e-18)
(1.13993 0.261538 1.11099e-17)
(1.12622 0.277914 3.60503e-18)
(1.10983 0.296593 1.57462e-17)
(1.0919 0.315993 1.95421e-17)
(1.07028 0.337015 1.93794e-17)
(1.04523 0.359701 1.65198e-19)
(1.01407 0.38321 -1.8813e-17)
(0.977257 0.408912 -2.13944e-17)
(0.93035 0.433097 -1.27592e-17)
(0.877752 0.460942 -4.13431e-18)
(0.809997 0.479139 5.52135e-17)
(0.738809 0.508447 5.97775e-17)
(0.645331 0.500908 4.26155e-17)
(0.504328 0.485161 5.58235e-17)
(0.229306 0.224327 4.30762e-18)
(1.20326 0.185728 1.53314e-17)
(1.19521 0.208791 3.81242e-18)
(1.18541 0.217387 8.47662e-18)
(1.17441 0.235359 -1.66987e-17)
(1.16372 0.248823 -7.13131e-18)
(1.1512 0.266077 1.27281e-17)
(1.13863 0.282459 1.76518e-17)
(1.12381 0.301338 1.14961e-18)
(1.10769 0.321155 1.03035e-17)
(1.08837 0.342834 3.21391e-17)
(1.06612 0.366795 3.14374e-18)
(1.03845 0.391795 7.00607e-18)
(1.00578 0.420537 1.8958e-17)
(0.964064 0.44728 2.02115e-17)
(0.916266 0.481853 9.27217e-19)
(0.856892 0.504053 8.10518e-17)
(0.787205 0.546956 8.39659e-17)
(0.70681 0.542432 -1.2001e-17)
(0.544828 0.520927 3.09184e-17)
(0.246012 0.235298 8.48207e-18)
(1.21088 0.191145 1.27589e-17)
(1.20349 0.213665 5.49519e-18)
(1.19401 0.222191 -4.75344e-18)
(1.18388 0.239788 -1.29527e-17)
(1.17385 0.253146 4.00885e-18)
(1.16248 0.270234 -6.84801e-19)
(1.15109 0.286521 1.16813e-17)
(1.13789 0.305408 -2.14632e-18)
(1.12369 0.325418 2.12124e-17)
(1.10685 0.347415 2.6153e-17)
(1.08758 0.372283 4.89846e-18)
(1.06364 0.398283 6.59302e-18)
(1.03507 0.429508 -9.41309e-18)
(0.998501 0.45836 1.46382e-17)
(0.954883 0.497448 4.06519e-18)
(0.901152 0.523117 6.10215e-17)
(0.833256 0.566562 5.85793e-17)
(0.745069 0.565315 4.52811e-18)
(0.575531 0.528723 1.70148e-17)
(0.236439 0.230403 3.11918e-18)
(1.21857 0.196455 9.65524e-18)
(1.21182 0.218313 -2.35224e-18)
(1.20271 0.226693 2.79215e-18)
(1.19345 0.243775 -1.00379e-17)
(1.18411 0.256888 2.67697e-18)
(1.17393 0.273602 1.4043e-20)
(1.16373 0.289578 1.21776e-17)
(1.15221 0.30814 1.15384e-17)
(1.13997 0.327981 1.71876e-17)
(1.12581 0.34978 2.06843e-17)
(1.10959 0.374976 5.14246e-18)
(1.08995 0.401182 4.96016e-18)
(1.06541 0.434246 -7.23284e-19)
(1.0357 0.46442 1.02716e-17)
(0.995514 0.509289 4.49206e-18)
(0.953558 0.540891 4.65365e-17)
(0.885048 0.604467 4.16199e-17)
(0.824406 0.614546 9.76476e-18)
(0.62229 0.588817 1.35399e-17)
(0.279315 0.255458 1.53141e-18)
(1.22629 0.201769 7.93659e-18)
(1.22013 0.222936 -9.01219e-19)
(1.21139 0.231199 1.96376e-18)
(1.20295 0.247758 -6.88624e-18)
(1.19426 0.260632 2.01508e-18)
(1.18521 0.276951 5.20317e-19)
(1.17613 0.292618 1.56864e-18)
(1.16621 0.310815 9.31489e-18)
(1.15585 0.330371 1.4342e-17)
(1.1442 0.351862 1.7638e-17)
(1.1309 0.377137 7.09059e-18)
(1.1151 0.40351 4.5816e-18)
(1.09502 0.437584 -1.16381e-17)
(1.071 0.468964 6.77118e-18)
(1.03717 0.514377 5.98751e-18)
(1.00024 0.545583 3.55724e-17)
(0.941236 0.591036 3.0736e-17)
(0.849847 0.593372 1.3343e-17)
(0.660135 0.53269 8.06171e-18)
(0.237798 0.225047 5.5097e-18)
(1.23398 0.206835 4.93614e-18)
(1.22844 0.227136 -1.99825e-18)
(1.2201 0.235096 5.47303e-19)
(1.21249 0.250869 -7.27792e-18)
(1.20449 0.263227 1.00585e-18)
(1.19658 0.27878 1.91515e-19)
(1.18862 0.293729 -8.67244e-19)
(1.18036 0.310969 8.2441e-18)
(1.1718 0.329621 1.1415e-17)
(1.1626 0.349929 1.18923e-17)
(1.15207 0.37432 3.18545e-18)
(1.14061 0.399189 1.28005e-18)
(1.12501 0.433159 -9.81417e-18)
(1.10846 0.463971 1.35468e-18)
(1.0797 0.514563 1.22378e-18)
(1.05482 0.554601 2.73283e-17)
(1.00032 0.640457 2.44176e-17)
(0.965688 0.680415 1.30837e-17)
(0.761755 0.699214 7.92009e-18)
(0.380717 0.314356 -4.7041e-18)
(1.24168 0.212077 6.55414e-18)
(1.2366 0.231678 2.41182e-18)
(1.22857 0.239585 1.29499e-18)
(1.22165 0.254852 1.53288e-19)
(1.21419 0.26698 1.00092e-18)
(1.20723 0.282126 6.94421e-19)
(1.20015 0.296768 5.05466e-18)
(1.19315 0.313612 5.91714e-18)
(1.18583 0.331956 9.15911e-18)
(1.17832 0.351866 1.63941e-17)
(1.16991 0.375917 1.09789e-17)
(1.16133 0.400493 8.86472e-18)
(1.14959 0.434235 -5.84792e-18)
(1.13867 0.465237 8.30144e-18)
(1.11809 0.51253 9.0078e-18)
(1.10026 0.543322 2.00212e-17)
(1.05287 0.578236 1.56171e-17)
(0.970849 0.563561 1.32054e-17)
(0.743936 0.464222 9.62497e-18)
(0.252947 0.175404 -4.98681e-19)
(1.24924 0.216687 5.31394e-18)
(1.24482 0.235144 1.90562e-18)
(1.23725 0.242379 -7.64061e-19)
(1.23115 0.256342 -1.66434e-18)
(1.22438 0.26744 5.21033e-19)
(1.21852 0.281157 3.35922e-19)
(1.21244 0.294414 5.49591e-18)
(1.20681 0.309429 8.42137e-18)
(1.20093 0.325908 7.27005e-18)
(1.19583 0.343138 1.56479e-17)
(1.18977 0.364493 1.07943e-17)
(1.18588 0.384839 9.00466e-18)
(1.17773 0.414901 -2.44031e-18)
(1.17445 0.440944 2.33623e-18)
(1.15512 0.490716 4.57365e-18)
(1.14712 0.538529 1.63797e-17)
(1.11042 0.641795 1.54596e-17)
(1.12277 0.729512 1.55507e-17)
(0.993067 0.819664 -1.45934e-18)
(0.668381 0.394545 1.15003e-18)
(1.24924 -0.216687 5.6517e-18)
(1.24482 -0.235144 6.20554e-18)
(1.23725 -0.242379 2.55007e-18)
(1.23115 -0.256342 2.89278e-18)
(1.22438 -0.26744 -2.61843e-18)
(1.21852 -0.281157 -4.78465e-18)
(1.21244 -0.294414 3.76802e-19)
(1.20681 -0.309429 -1.91699e-18)
(1.20093 -0.325908 -6.64821e-18)
(1.19583 -0.343138 -1.11657e-17)
(1.18977 -0.364493 -7.21734e-19)
(1.18588 -0.384839 3.85352e-18)
(1.17773 -0.414902 -8.42496e-18)
(1.17445 -0.440944 -5.89782e-18)
(1.15512 -0.490716 -5.4841e-18)
(1.14712 -0.538529 -2.42429e-17)
(1.11042 -0.641795 -1.05785e-17)
(1.12277 -0.729512 -9.13434e-18)
(0.993067 -0.819664 1.01984e-18)
(0.668381 -0.394545 -2.42946e-20)
(1.24168 -0.212077 5.35378e-18)
(1.2366 -0.231678 6.9726e-18)
(1.22857 -0.239585 3.16925e-18)
(1.22165 -0.254852 4.24122e-18)
(1.21419 -0.26698 -3.58047e-18)
(1.20723 -0.282126 -5.18408e-18)
(1.20015 -0.296768 3.38633e-19)
(1.19315 -0.313612 -1.63589e-18)
(1.18583 -0.331956 -9.2028e-18)
(1.17832 -0.351867 -1.31051e-17)
(1.16991 -0.375917 3.45764e-18)
(1.16133 -0.400493 3.6502e-18)
(1.14959 -0.434235 -1.57454e-17)
(1.13867 -0.465237 -8.22295e-18)
(1.11809 -0.51253 -7.02726e-18)
(1.10026 -0.543322 -2.6716e-17)
(1.05287 -0.578236 -5.52109e-18)
(0.970849 -0.563561 -1.19289e-17)
(0.743936 -0.464222 -9.71399e-18)
(0.252947 -0.175404 7.5553e-18)
(1.23398 -0.206835 6.4629e-18)
(1.22844 -0.227136 8.84362e-18)
(1.2201 -0.235096 3.29801e-18)
(1.21249 -0.250869 5.53232e-18)
(1.20449 -0.263227 -1.15599e-17)
(1.19658 -0.27878 -6.68386e-18)
(1.18862 -0.293729 1.24624e-18)
(1.18036 -0.310969 -1.76086e-18)
(1.1718 -0.329621 -1.17102e-17)
(1.1626 -0.349929 -1.68644e-17)
(1.15207 -0.37432 5.60081e-18)
(1.14061 -0.399189 5.37198e-18)
(1.12501 -0.433159 -2.05144e-17)
(1.10846 -0.463971 -7.17855e-18)
(1.0797 -0.514563 -8.10235e-18)
(1.05482 -0.554601 -2.76947e-17)
(1.00032 -0.640457 2.00037e-18)
(0.965688 -0.680415 -1.64802e-17)
(0.761755 -0.699215 -9.59243e-18)
(0.380717 -0.314356 5.35408e-18)
(1.22629 -0.201769 2.72563e-18)
(1.22013 -0.222936 1.09763e-17)
(1.21139 -0.231199 3.20485e-18)
(1.20295 -0.247758 5.41942e-19)
(1.19426 -0.260632 -1.28252e-17)
(1.18521 -0.276951 -7.6315e-18)
(1.17613 -0.292618 -7.7089e-18)
(1.16621 -0.310815 -1.38751e-18)
(1.15585 -0.330371 -3.29816e-18)
(1.1442 -0.351862 -2.21765e-17)
(1.1309 -0.377137 1.04025e-17)
(1.1151 -0.40351 5.17309e-18)
(1.09502 -0.437584 -1.50297e-17)
(1.071 -0.468964 8.16097e-18)
(1.03717 -0.514377 -8.62567e-18)
(1.00024 -0.545583 -3.97778e-17)
(0.941236 -0.591036 3.38313e-18)
(0.849847 -0.593372 -1.93396e-17)
(0.660135 -0.53269 -1.31763e-17)
(0.237798 -0.225047 -1.16129e-18)
(1.21857 -0.196455 4.15956e-18)
(1.21182 -0.218313 1.37892e-17)
(1.20271 -0.226693 3.77718e-18)
(1.19345 -0.243775 -4.66535e-18)
(1.18411 -0.256888 -1.71218e-17)
(1.17393 -0.273602 -8.45585e-18)
(1.16373 -0.289578 -5.60662e-18)
(1.15221 -0.30814 -1.3164e-17)
(1.13997 -0.327981 -8.53839e-18)
(1.12581 -0.34978 -1.52747e-17)
(1.10959 -0.374976 1.7505e-18)
(1.08995 -0.401182 6.66528e-18)
(1.06541 -0.434246 -2.73864e-17)
(1.0357 -0.46442 7.37803e-18)
(0.995514 -0.509289 -1.47383e-17)
(0.953558 -0.540891 -5.0714e-17)
(0.885048 -0.604467 1.15761e-17)
(0.824406 -0.614546 -2.66555e-17)
(0.62229 -0.588817 -1.94777e-17)
(0.279315 -0.255458 -1.01998e-18)
(1.21088 -0.191145 3.14164e-18)
(1.20349 -0.213665 1.72899e-17)
(1.19401 -0.222191 5.07869e-18)
(1.18388 -0.239788 -2.55735e-18)
(1.17385 -0.253146 -9.24091e-18)
(1.16248 -0.270234 -2.22004e-17)
(1.15109 -0.286521 -7.13802e-18)
(1.13789 -0.305408 -1.17136e-17)
(1.12369 -0.325418 -6.74255e-18)
(1.10685 -0.347415 -8.0817e-18)
(1.08758 -0.372283 -9.46419e-18)
(1.06364 -0.398283 2.98545e-17)
(1.03507 -0.429508 -3.68202e-17)
(0.998501 -0.45836 1.77122e-17)
(0.954883 -0.497448 -2.01614e-17)
(0.901152 -0.523117 -3.59707e-17)
(0.833256 -0.566562 2.68401e-17)
(0.745069 -0.565315 -3.6992e-17)
(0.575531 -0.528723 -3.10151e-17)
(0.236439 -0.230403 2.99095e-18)
(1.20326 -0.185728 2.66165e-18)
(1.19521 -0.208791 1.19447e-17)
(1.18541 -0.217387 5.869e-18)
(1.17441 -0.235359 -3.73641e-18)
(1.16372 -0.248823 -2.41186e-18)
(1.1512 -0.266077 -8.55144e-18)
(1.13863 -0.282459 8.41475e-18)
(1.12381 -0.301338 -1.49e-17)
(1.10769 -0.321155 -9.0801e-18)
(1.08837 -0.342834 5.48762e-18)
(1.06612 -0.366795 -7.79917e-18)
(1.03845 -0.391795 3.48034e-17)
(1.00578 -0.420537 -2.98593e-17)
(0.964064 -0.44728 -2.36536e-18)
(0.916266 -0.481853 5.57618e-18)
(0.856892 -0.504053 -1.15213e-17)
(0.787205 -0.546956 4.05745e-17)
(0.70681 -0.542432 1.52158e-17)
(0.544828 -0.520927 -4.44762e-17)
(0.246012 -0.235298 1.29973e-17)
(1.1957 -0.180285 2.37562e-18)
(1.18694 -0.203807 1.85375e-17)
(1.17687 -0.212458 7.25129e-18)
(1.16494 -0.230722 -4.28301e-18)
(1.15362 -0.244236 -6.05466e-18)
(1.13993 -0.261538 -1.903e-17)
(1.12622 -0.277914 -1.13866e-17)
(1.10983 -0.296593 -5.03978e-19)
(1.0919 -0.315993 -1.02049e-17)
(1.07028 -0.337015 -2.04102e-17)
(1.04523 -0.359701 -1.35303e-17)
(1.01407 -0.38321 2.19005e-17)
(0.977257 -0.408912 -2.38627e-17)
(0.93035 -0.433097 1.14648e-17)
(0.877752 -0.460942 -4.83179e-17)
(0.809997 -0.479139 -2.52872e-17)
(0.738809 -0.508447 5.34543e-17)
(0.645331 -0.500908 1.11804e-17)
(0.504328 -0.485161 1.32496e-17)
(0.229306 -0.224327 4.68944e-17)
(1.18809 -0.174791 1.71293e-18)
(1.17862 -0.198665 2.14359e-17)
(1.16828 -0.20732 8.88867e-18)
(1.15535 -0.225759 -4.81877e-18)
(1.14337 -0.239244 -7.27673e-18)
(1.12842 -0.256439 -1.88926e-17)
(1.11353 -0.272677 -5.17829e-18)
(1.09552 -0.290925 -4.60444e-18)
(1.07577 -0.309667 -1.44476e-17)
(1.05196 -0.329649 -1.67931e-17)
(1.0244 -0.350633 -1.67468e-17)
(0.990476 -0.371922 3.92255e-17)
(0.950678 -0.394044 -4.46094e-17)
(0.901396 -0.414338 1.65355e-17)
(0.846868 -0.43572 -5.07353e-17)
(0.778322 -0.448262 -2.2664e-17)
(0.708422 -0.469448 7.13485e-17)
(0.618476 -0.45778 8.83474e-18)
(0.49533 -0.450914 1.31697e-17)
(0.245578 -0.220054 9.02245e-17)
(1.18039 -0.169289 1.1301e-17)
(1.17034 -0.193393 3.99647e-17)
(1.15969 -0.201987 -2.52797e-18)
(1.14592 -0.220487 9.52738e-18)
(1.13323 -0.233866 -8.39726e-18)
(1.11713 -0.250808 -2.5456e-17)
(1.10103 -0.266788 -8.58974e-18)
(1.08138 -0.284389 -2.39365e-17)
(1.05961 -0.302279 -4.25521e-17)
(1.03328 -0.320967 3.80935e-18)
(1.00259 -0.340052 1.1567e-17)
(0.965046 -0.358974 5.24829e-17)
(0.920774 -0.377703 -2.47644e-17)
(0.866136 -0.394668 -1.66277e-17)
(0.805483 -0.409509 -8.18043e-17)
(0.72894 -0.418206 -2.19986e-17)
(0.653262 -0.426841 1.05909e-16)
(0.547625 -0.412985 1.03075e-17)
(0.431206 -0.398032 1.11935e-18)
(0.192138 -0.19603 1.25007e-17)
(1.31115 -0.258382 -3.98362e-19)
(1.30717 -0.275041 4.94634e-18)
(1.30288 -0.283091 7.15039e-19)
(1.30028 -0.297417 -2.36078e-18)
(1.29803 -0.309494 -4.12694e-18)
(1.2975 -0.324192 -1.20908e-19)
(1.29756 -0.338026 -2.88411e-18)
(1.2973 -0.351566 -3.93836e-18)
(1.29031 -0.360378 -7.98241e-19)
(1.26215 -0.358293 -8.88019e-18)
(1.18654 -0.335423 -2.73667e-18)
(1.03328 -0.286404 7.92885e-18)
(0.785146 -0.216455 -2.70409e-17)
(0.472084 -0.144027 2.88044e-17)
(0.181138 -0.0975775 -3.48313e-17)
(-0.00786437 -0.0849022 -4.51104e-17)
(-0.0993254 -0.0889954 -4.14607e-18)
(-0.121789 -0.0879937 -4.03383e-17)
(-0.0955001 -0.0836565 -1.17425e-17)
(-0.0375583 -0.0366102 -7.91898e-19)
(1.30613 -0.255305 -1.02204e-18)
(1.30189 -0.272168 -7.07699e-19)
(1.29731 -0.280239 1.37905e-18)
(1.29423 -0.294561 -2.14244e-18)
(1.29155 -0.306771 1.33425e-18)
(1.29044 -0.321867 4.92396e-20)
(1.29037 -0.336896 5.36322e-18)
(1.2918 -0.353433 -4.94345e-18)
(1.29213 -0.368964 1.05673e-18)
(1.28315 -0.379447 2.18136e-18)
(1.24431 -0.374513 -7.91287e-18)
(1.14292 -0.341776 -2.42654e-18)
(0.944539 -0.276145 -1.71657e-17)
(0.647135 -0.189376 8.08505e-18)
(0.318141 -0.1164 1.65183e-17)
(0.0692267 -0.0888117 -1.32513e-17)
(-0.0690359 -0.0968896 1.43926e-18)
(-0.116964 -0.100952 -2.17033e-17)
(-0.103782 -0.0954712 -3.51267e-17)
(-0.0411073 -0.0396888 -2.02588e-18)
(1.30087 -0.252034 -3.43613e-19)
(1.29639 -0.269169 1.64783e-18)
(1.29143 -0.277446 1.88783e-18)
(1.28789 -0.291923 -3.00159e-18)
(1.28469 -0.304271 -1.29392e-18)
(1.28291 -0.319449 -1.39938e-18)
(1.28193 -0.334397 -2.88631e-18)
(1.28222 -0.350619 2.85201e-18)
(1.28197 -0.366134 -1.64285e-18)
(1.27646 -0.379021 -1.10906e-17)
(1.25219 -0.382995 -6.66895e-18)
(1.18438 -0.367925 -1.14618e-17)
(1.03733 -0.322662 -8.36674e-18)
(0.786088 -0.243751 5.73948e-18)
(0.456941 -0.15247 -1.2662e-17)
(0.158381 -0.0936 1.30258e-18)
(-0.0261961 -0.0952097 9.7178e-18)
(-0.108955 -0.103082 -1.03747e-17)
(-0.101632 -0.102005 -1.12999e-17)
(-0.0439588 -0.0442288 7.44661e-18)
(1.29536 -0.24849 -1.49477e-18)
(1.2907 -0.265796 5.93403e-19)
(1.28539 -0.274124 2.99676e-18)
(1.28142 -0.288625 -2.8608e-18)
(1.27774 -0.30106 -7.10833e-19)
(1.27541 -0.316487 -6.53192e-19)
(1.27396 -0.332195 -7.05162e-19)
(1.27451 -0.350104 3.72267e-19)
(1.27674 -0.36888 3.08764e-18)
(1.27886 -0.387325 -6.1873e-18)
(1.27179 -0.40006 -8.34565e-18)
(1.23547 -0.397305 -1.05912e-17)
(1.13545 -0.367529 -2.19373e-17)
(0.937406 -0.301196 8.87797e-18)
(0.633033 -0.20544 -1.42738e-17)
(0.295326 -0.112508 2.76555e-18)
(0.0393312 -0.082412 1.22191e-17)
(-0.0816452 -0.0893307 -7.05639e-18)
(-0.105866 -0.092625 -7.95012e-19)
(-0.0349054 -0.0380619 2.78473e-17)
(1.28962 -0.244723 3.77324e-18)
(1.28481 -0.262204 5.57602e-18)
(1.27913 -0.270605 -3.89329e-19)
(1.27476 -0.285128 5.59136e-19)
(1.27053 -0.297537 -1.64553e-18)
(1.2675 -0.312784 -1.16933e-18)
(1.26488 -0.328123 -2.48732e-18)
(1.2635 -0.345487 -4.66152e-18)
(1.26319 -0.364007 -2.46448e-18)
(1.26422 -0.3841 9.33081e-19)
(1.26322 -0.403664 -7.54555e-18)
(1.24929 -0.41536 -7.91218e-18)
(1.19487 -0.406705 -1.30453e-17)
(1.06134 -0.361046 -1.55667e-17)
(0.813906 -0.274859 -2.11058e-17)
(0.475859 -0.160679 5.75209e-18)
(0.153423 -0.0890833 2.11658e-17)
(-0.0508767 -0.0708186 -8.4318e-18)
(-0.0980643 -0.090863 -7.03629e-18)
(-0.0529653 -0.0495243 5.47502e-18)
(1.28363 -0.240693 1.55473e-18)
(1.27874 -0.258292 1.52991e-18)
(1.27269 -0.26669 1.40552e-18)
(1.26797 -0.281192 -5.64706e-19)
(1.26326 -0.293583 -1.49225e-18)
(1.25973 -0.308868 -7.62926e-19)
(1.25668 -0.324449 -1.18342e-18)
(1.25501 -0.342368 -3.10421e-18)
(1.25456 -0.36176 -1.94698e-18)
(1.25602 -0.383007 -1.46021e-19)
(1.25796 -0.405507 -7.71267e-18)
(1.25564 -0.425237 -8.26427e-18)
(1.23177 -0.434301 -2.51073e-18)
(1.15534 -0.413794 -5.36051e-18)
(0.980568 -0.350736 -5.05442e-18)
(0.68968 -0.237583 -2.47738e-19)
(0.32737 -0.118627 -3.79765e-17)
(0.045783 -0.0550182 -2.06693e-17)
(-0.0979271 -0.0550681 -4.26904e-17)
(-0.0314736 -0.0229943 -3.70133e-18)
(1.27744 -0.236417 3.11783e-18)
(1.27253 -0.254124 4.06795e-18)
(1.26613 -0.262481 1.30329e-18)
(1.26109 -0.276915 3.25101e-19)
(1.25585 -0.289136 -2.04562e-18)
(1.25167 -0.304131 -1.10112e-18)
(1.24761 -0.319228 -1.40256e-18)
(1.24441 -0.33649 -2.20124e-18)
(1.2417 -0.355423 -3.63388e-18)
(1.24068 -0.376863 -1.39141e-18)
(1.24155 -0.401441 -6.84917e-19)
(1.24416 -0.426922 -3.37389e-18)
(1.23976 -0.450196 -9.96036e-18)
(1.209 -0.45469 -1.08057e-17)
(1.10855 -0.425023 -1.62084e-17)
(0.899019 -0.336203 -1.84724e-17)
(0.565548 -0.212535 -6.70688e-18)
(0.191459 -0.0795277 -2.63337e-17)
(-0.038478 -0.0816037 -1.11457e-17)
(-0.0934402 -0.0640601 -5.10842e-19)
(1.27102 -0.231885 2.88518e-18)
(1.26623 -0.249686 2.35134e-18)
(1.25951 -0.257932 2.06242e-18)
(1.25426 -0.272288 7.08831e-19)
(1.24858 -0.284346 -2.29195e-18)
(1.244 -0.29919 -1.18548e-18)
(1.23942 -0.314127 -1.32236e-18)
(1.23576 -0.331155 -2.44084e-18)
(1.23242 -0.349698 -4.25563e-18)
(1.23003 -0.370376 -1.91821e-18)
(1.22831 -0.394543 5.74456e-19)
(1.22912 -0.421034 -2.39002e-18)
(1.22998 -0.452031 -5.55719e-18)
(1.22537 -0.475572 -7.2588e-18)
(1.18446 -0.481227 -1.22878e-17)
(1.06893 -0.431717 -1.85919e-17)
(0.81927 -0.322612 -1.45765e-17)
(0.460719 -0.15898 -3.99906e-17)
(0.0619071 -0.0133991 5.60458e-19)
(-0.00566828 0.0273734 1.03774e-17)
(1.26428 -0.227119 3.86125e-18)
(1.25974 -0.24505 3.10373e-18)
(1.25273 -0.25309 2.52507e-18)
(1.2473 -0.267315 1.65319e-18)
(1.24119 -0.279061 -2.207e-18)
(1.23611 -0.293508 -1.54159e-18)
(1.23069 -0.307893 -1.28499e-18)
(1.22592 -0.324296 -1.95564e-18)
(1.22119 -0.342209 -6.02189e-18)
(1.2172 -0.361976 -3.86542e-18)
(1.21325 -0.385477 9.07545e-19)
(1.21114 -0.410954 -3.96353e-18)
(1.20965 -0.444155 -6.9415e-18)
(1.21269 -0.477285 -7.92447e-18)
(1.20444 -0.513383 -1.076e-17)
(1.16846 -0.516644 -2.14609e-17)
(1.03314 -0.476091 -1.01327e-17)
(0.755739 -0.340808 3.9804e-18)
(0.33589 -0.226977 4.04761e-18)
(-0.0932919 -0.098156 1.50614e-17)
(1.25701 -0.222107 4.47314e-18)
(1.25266 -0.240245 3.61754e-18)
(1.24534 -0.247956 3.17515e-18)
(1.23965 -0.262051 2.74311e-18)
(1.23316 -0.273487 -2.60916e-18)
(1.22776 -0.287586 -2.04785e-18)
(1.22192 -0.301447 -1.43414e-18)
(1.21663 -0.317203 -9.0501e-19)
(1.2111 -0.33434 -6.60732e-18)
(1.20613 -0.352762 -6.58733e-18)
(1.20047 -0.374906 2.46502e-18)
(1.19612 -0.397722 -6.7682e-19)
(1.18973 -0.429157 -6.38032e-18)
(1.18843 -0.459863 -3.0693e-18)
(1.18194 -0.505412 -5.87275e-18)
(1.18767 -0.536455 -1.22312e-17)
(1.14823 -0.55111 -6.42559e-18)
(1.06561 -0.472772 -1.21674e-17)
(0.717406 -0.246717 -1.25089e-18)
(0.397535 -0.00318114 5.61725e-17)
(1.15538 -0.151643 -4.10057e-18)
(1.14426 -0.176005 1.328e-17)
(1.13251 -0.184308 4.76661e-18)
(1.11808 -0.202683 2.30288e-18)
(1.10366 -0.215448 -1.5948e-17)
(1.0868 -0.231195 -4.37148e-17)
(1.06903 -0.245816 -5.30281e-18)
(1.0485 -0.260507 -1.36682e-17)
(1.02559 -0.274624 -4.98795e-17)
(0.999029 -0.287651 -7.97273e-18)
(0.968535 -0.299118 -1.45661e-17)
(0.932847 -0.308119 -1.85885e-17)
(0.891487 -0.313013 1.87984e-17)
(0.842504 -0.312719 1.91964e-17)
(0.786475 -0.305511 3.18656e-17)
(0.72267 -0.290335 -9.17869e-18)
(0.653843 -0.264275 -3.40303e-17)
(0.576029 -0.227478 -3.82264e-18)
(0.509734 -0.169928 3.43061e-18)
(0.391062 -0.0841359 2.22149e-17)
(1.12153 -0.117272 -2.00162e-18)
(1.11227 -0.136087 -4.56622e-18)
(1.10175 -0.141611 5.2252e-18)
(1.08944 -0.154437 3.61625e-17)
(1.07614 -0.162725 -4.91158e-18)
(1.0617 -0.172552 -1.37839e-17)
(1.04587 -0.181221 -1.37899e-17)
(1.02884 -0.189519 -1.65394e-17)
(1.01036 -0.19719 -1.88475e-17)
(0.990604 -0.20404 -6.2017e-18)
(0.96944 -0.209532 -1.21205e-18)
(0.946955 -0.213161 3.67836e-19)
(0.923023 -0.21428 -9.4681e-18)
(0.897797 -0.211702 -1.89888e-19)
(0.870838 -0.204137 7.59254e-18)
(0.842266 -0.189819 -1.01353e-18)
(0.812657 -0.168516 1.97622e-18)
(0.783421 -0.134219 -5.19875e-18)
(0.758234 -0.0949551 3.79418e-18)
(0.74757 -0.0359696 2.74447e-18)
(1.09176 -0.095908 -4.65311e-18)
(1.08329 -0.112287 -3.71177e-18)
(1.07379 -0.116986 -1.10519e-17)
(1.06245 -0.127718 -1.97403e-17)
(1.05036 -0.133935 -2.17484e-17)
(1.03701 -0.140813 -6.75945e-17)
(1.02252 -0.146015 -3.2049e-17)
(1.00657 -0.150057 -4.4823e-17)
(0.989099 -0.152591 -9.40538e-17)
(0.969876 -0.153382 -3.10017e-17)
(0.948925 -0.152239 -2.14718e-17)
(0.926334 -0.148899 -1.02332e-17)
(0.902478 -0.143096 -1.68621e-17)
(0.877907 -0.134664 1.05737e-17)
(0.853593 -0.123293 6.0228e-17)
(0.830453 -0.108932 -1.81823e-17)
(0.809404 -0.0906581 -9.65309e-18)
(0.790651 -0.0693348 -1.80148e-17)
(0.776114 -0.0431106 1.32409e-17)
(0.762049 -0.0147255 1.06507e-16)
(1.06941 -0.0689515 -8.43461e-18)
(1.06272 -0.0812299 -6.03108e-18)
(1.05537 -0.0845475 -8.72596e-18)
(1.04657 -0.0923279 -9.67965e-18)
(1.03731 -0.0968055 -1.08434e-17)
(1.02752 -0.101869 -1.70074e-17)
(1.01737 -0.105779 -6.95506e-17)
(1.00703 -0.108906 -6.58977e-17)
(0.996577 -0.111039 -7.8175e-17)
(0.986157 -0.111987 -8.08927e-17)
(0.975805 -0.111519 -6.39582e-17)
(0.965531 -0.10938 -1.23471e-17)
(0.955262 -0.105296 -6.49177e-17)
(0.944942 -0.0989713 -1.37262e-17)
(0.934537 -0.0902341 -7.44977e-17)
(0.924319 -0.0788752 -7.04382e-17)
(0.914778 -0.0651833 -1.33583e-17)
(0.907061 -0.0488301 -7.55573e-17)
(0.901831 -0.0308917 -1.53434e-17)
(0.900738 -0.0107617 -8.04533e-17)
(1.05119 -0.0557674 -2.10563e-17)
(1.04568 -0.0652426 -1.17209e-17)
(1.03951 -0.0675292 -2.80456e-17)
(1.03201 -0.0730772 -3.57107e-17)
(1.02399 -0.0757403 -3.24205e-17)
(1.01522 -0.0784935 -6.12935e-17)
(1.00573 -0.0800369 4.12635e-18)
(0.995498 -0.080675 3.09344e-17)
(0.984538 -0.0803048 -3.68814e-17)
(0.972914 -0.0788805 1.09068e-17)
(0.960803 -0.0763825 4.45206e-17)
(0.948471 -0.0727954 2.42221e-17)
(0.936295 -0.0681092 5.05388e-17)
(0.924704 -0.0623276 4.06983e-17)
(0.914133 -0.0554118 1.34359e-16)
(0.904865 -0.0473999 6.56099e-17)
(0.89707 -0.0381987 2.7406e-17)
(0.890614 -0.0280766 5.53086e-17)
(0.885686 -0.0170121 3.84186e-17)
(0.882237 -0.00563637 1.36385e-16)
(1.03797 -0.0384213 -5.59134e-17)
(1.03391 -0.0457431 -1.80304e-17)
(1.02957 -0.0476909 -6.83687e-17)
(1.02437 -0.0522027 -8.55787e-17)
(1.01906 -0.0546298 -6.13728e-17)
(1.01359 -0.0572113 -3.75441e-18)
(1.00814 -0.0589704 -4.75573e-17)