/*--------------------------------*- C++ -*----------------------------------*\
  =========                 |
  \\      /  F ield         | OpenFOAM: The Open Source CFD Toolbox
   \\    /   O peration     | Website:  https://openfoam.org
    \\  /    A nd           | Version:  7
     \\/     M anipulation  |
\*---------------------------------------------------------------------------*/
FoamFile
{
    version     2.0;
    format      ascii;
    class       volScalarField;
    location    "76";
    object      p;
}
// * * * * * * * * * * * * * * * * * * * * * * * * * * * * * * * * * * * * * //

dimensions      [0 2 -2 0 0 0 0];

internalField   nonuniform List<scalar> 
4000
(
0.0209795
0.0309253
0.0344594
0.0406087
0.0439155
0.0477192
0.0498452
0.0518397
0.051956
0.051763
0.0482815
0.0450883
0.0345268
0.0262035
0.00106019
-0.0270354
-0.089943
-0.203602
-0.36801
-0.887185
0.011098
0.0206735
0.0239542
0.0294599
0.0322584
0.0352941
0.0366207
0.0374356
0.0361724
0.0339967
0.0283385
0.0214555
0.00668817
-0.0110246
-0.0445665
-0.0794004
-0.134686
-0.148776
-0.233476
-0.0123955
0.00184727
0.0112804
0.0143357
0.0194185
0.0216941
0.0240198
0.0243729
0.0238453
0.0208894
0.0162547
0.00765635
-0.00421967
-0.0246218
-0.0509751
-0.091119
-0.13217
-0.186669
-0.238615
-0.287168
-0.427134
-0.00700577
0.00219414
0.00495165
0.00958218
0.011258
0.0127694
0.0120389
0.0100756
0.00542328
-0.00169899
-0.0136323
-0.0303355
-0.0555711
-0.0870959
-0.127027
-0.160236
-0.196223
-0.192906
-0.250626
-0.135862
-0.0156043
-0.00675554
-0.00436717
-0.000247207
0.000796985
0.00148459
-0.000270206
-0.00357829
-0.00994087
-0.0195262
-0.034548
-0.0553638
-0.0843469
-0.11829
-0.154271
-0.178588
-0.201755
-0.227377
-0.23162
-0.252479
-0.023947
-0.0155124
-0.0135278
-0.00996567
-0.00959722
-0.00980665
-0.0126391
-0.0174815
-0.0260172
-0.0384191
-0.0564858
-0.0804545
-0.110971
-0.14332
-0.170647
-0.18414
-0.203018
-0.196284
-0.216399
-0.166653
-0.0319973
-0.024013
-0.0224389
-0.0194522
-0.0197418
-0.0208041
-0.0246351
-0.0307247
-0.0406756
-0.0547132
-0.074486
-0.100171
-0.130903
-0.160045
-0.1799
-0.189761
-0.201003
-0.205749
-0.202715
-0.194675
-0.0397278
-0.0322271
-0.031064
-0.0286864
-0.0296359
-0.0315611
-0.0365501
-0.0442477
-0.056291
-0.0728497
-0.0949926
-0.122191
-0.151557
-0.175119
-0.188245
-0.194521
-0.20105
-0.190523
-0.191996
-0.165373
-0.0471344
-0.0401619
-0.0393908
-0.0376484
-0.0391961
-0.041928
-0.0477557
-0.0562486
-0.06875
-0.0851891
-0.106394
-0.132034
-0.159481
-0.179816
-0.190891
-0.194865
-0.195895
-0.187788
-0.183473
-0.166684
-0.0541899
-0.0477936
-0.0473736
-0.046312
-0.0484263
-0.0520407
-0.05883
-0.0686594
-0.0830691
-0.102045
-0.126231
-0.15523
-0.184164
-0.20487
-0.211722
-0.204835
-0.193706
-0.17737
-0.170648
-0.14839
0.124112
0.141807
0.148338
0.163289
0.173358
0.188385
0.201727
0.218711
0.236693
0.258689
0.283723
0.314483
0.349498
0.393206
0.440767
0.501433
0.557605
0.643597
0.689354
0.831383
0.113869
0.131107
0.137068
0.151335
0.160385
0.17433
0.186156
0.201358
0.216889
0.235974
0.257066
0.283625
0.312819
0.350763
0.388052
0.443941
0.481802
0.568137
0.584019
0.720809
0.103694
0.120207
0.125717
0.138985
0.147116
0.159752
0.170111
0.183511
0.196821
0.213423
0.23138
0.254876
0.280139
0.315923
0.349635
0.405591
0.442245
0.528102
0.549222
0.669118
0.0935693
0.1093
0.114432
0.126766
0.134081
0.145522
0.154537
0.166279
0.177484
0.191647
0.206261
0.226222
0.246049
0.277588
0.302431
0.35569
0.378311
0.468641
0.475194
0.607071
0.0833538
0.0982965
0.103058
0.114492
0.121011
0.131262
0.138928
0.148961
0.157965
0.169509
0.180535
0.19668
0.210997
0.23782
0.255566
0.302899
0.321393
0.398541
0.414383
0.521771
0.0730124
0.0871523
0.0915551
0.102079
0.107832
0.116878
0.123225
0.131551
0.138387
0.147315
0.154846
0.167093
0.176153
0.197846
0.208538
0.250595
0.259234
0.341183
0.34356
0.496906
0.062599
0.0759178
0.0800036
0.0896136
0.0946612
0.102519
0.107645
0.114318
0.119114
0.125409
0.1296
0.13773
0.14152
0.156584
0.160404
0.190503
0.193191
0.239707
0.252442
0.326016
0.0521579
0.0646407
0.0684715
0.0771849
0.0816251
0.088339
0.0923826
0.0975052
0.100482
0.104639
0.105932
0.110753
0.109258
0.11961
0.115345
0.144667
0.136058
0.215867
0.195191
0.437817
0.0417511
0.0533896
0.0570491
0.0648791
0.0688087
0.0744296
0.0775676
0.0813085
0.0829479
0.0852832
0.0842257
0.0856178
0.0796927
0.0821687
0.0693032
0.078216
0.0562128
0.0436127
0.00649851
-0.0446807
0.0313455
0.0421314
0.0457114
0.0526945
0.0562615
0.0608745
0.0633411
0.0660289
0.0666701
0.0675527
0.0647433
0.0638995
0.0551116
0.0548515
0.039852
0.0568419
0.0562261
0.149796
0.156538
0.489522
0.0313455
0.0421314
0.0457114
0.0526945
0.0562615
0.0608746
0.0633411
0.0660289
0.0666701
0.0675527
0.0647433
0.0638995
0.0551116
0.0548515
0.039852
0.0568419
0.0562261
0.149796
0.156538
0.489522
0.0417511
0.0533896
0.0570491
0.0648791
0.0688087
0.0744296
0.0775676
0.0813085
0.0829479
0.0852832
0.0842257
0.0856178
0.0796927
0.0821687
0.0693032
0.078216
0.0562128
0.0436127
0.00649851
-0.0446807
0.052158
0.0646407
0.0684715
0.0771849
0.0816251
0.088339
0.0923826
0.0975052
0.100482
0.104639
0.105932
0.110753
0.109258
0.11961
0.115345
0.144667
0.136058
0.215867
0.195191
0.437817
0.062599
0.0759178
0.0800036
0.0896136
0.0946612
0.102519
0.107645
0.114318
0.119114
0.125409
0.1296
0.13773
0.14152
0.156584
0.160404
0.190503
0.193191
0.239707
0.252442
0.326016
0.0730124
0.0871523
0.0915551
0.102079
0.107832
0.116878
0.123225
0.131551
0.138387
0.147315
0.154846
0.167093
0.176153
0.197847
0.208538
0.250595
0.259234
0.341183
0.34356
0.496906
0.0833538
0.0982965
0.103058
0.114492
0.121011
0.131262
0.138928
0.148961
0.157965
0.169509
0.180535
0.19668
0.210997
0.23782
0.255566
0.302899
0.321393
0.398541
0.414383
0.521771
0.0935693
0.1093
0.114432
0.126766
0.134081
0.145522
0.154537
0.166279
0.177484
0.191647
0.206261
0.226222
0.246049
0.277588
0.302431
0.35569
0.378311
0.468641
0.475194
0.607071
0.103694
0.120207
0.125717
0.138985
0.147116
0.159752
0.170111
0.183511
0.196821
0.213423
0.23138
0.254876
0.280139
0.315923
0.349635
0.405591
0.442245
0.528102
0.549222
0.669118
0.113869
0.131107
0.137068
0.151335
0.160385
0.17433
0.186156
0.201358
0.216889
0.235974
0.257066
0.283625
0.312819
0.350763
0.388052
0.443941
0.481802
0.568137
0.584019
0.720809
0.124112
0.141807
0.148338
0.163289
0.173358
0.188385
0.201727
0.218711
0.236693
0.258689
0.283723
0.314483
0.349498
0.393206
0.440767
0.501433
0.557605
0.643597
0.689354
0.831383
-0.0541899
-0.0477936
-0.0473736
-0.046312
-0.0484263
-0.0520407
-0.05883
-0.0686594
-0.0830691
-0.102045
-0.126231
-0.15523
-0.184164
-0.20487
-0.211722
-0.204835
-0.193706
-0.17737
-0.170648
-0.14839
-0.0471344
-0.0401619
-0.0393908
-0.0376484
-0.0391961
-0.041928
-0.0477557
-0.0562486
-0.06875
-0.0851891
-0.106394
-0.132034
-0.159481
-0.179816
-0.190891
-0.194865
-0.195895
-0.187788
-0.183473
-0.166684
-0.0397278
-0.0322271
-0.031064
-0.0286864
-0.0296359
-0.0315611
-0.0365501
-0.0442477
-0.056291
-0.0728497
-0.0949926
-0.122191
-0.151557
-0.175119
-0.188245
-0.194521
-0.20105
-0.190523
-0.191996
-0.165373
-0.0319973
-0.024013
-0.0224389
-0.0194522
-0.0197418
-0.0208041
-0.0246351
-0.0307247
-0.0406756
-0.0547132
-0.074486
-0.100171
-0.130903
-0.160045
-0.1799
-0.189761
-0.201003
-0.205749
-0.202715
-0.194675
-0.023947
-0.0155124
-0.0135278
-0.00996567
-0.00959722
-0.00980665
-0.0126391
-0.0174815
-0.0260172
-0.0384191
-0.0564858
-0.0804545
-0.110971
-0.14332
-0.170647
-0.18414
-0.203018
-0.196284
-0.216399
-0.166653
-0.0156043
-0.00675554
-0.00436717
-0.000247205
0.000796987
0.0014846
-0.000270204
-0.00357829
-0.00994087
-0.0195262
-0.034548
-0.0553638
-0.0843469
-0.11829
-0.154271
-0.178588
-0.201755
-0.227377
-0.23162
-0.252479
-0.00700577
0.00219414
0.00495165
0.00958218
0.011258
0.0127694
0.0120389
0.0100756
0.00542329
-0.00169899
-0.0136323
-0.0303355
-0.0555711
-0.0870959
-0.127027
-0.160236
-0.196223
-0.192906
-0.250626
-0.135862
0.00184728
0.0112804
0.0143357
0.0194185
0.0216941
0.0240198
0.0243729
0.0238453
0.0208894
0.0162547
0.00765635
-0.00421967
-0.0246218
-0.050975
-0.091119
-0.13217
-0.186669
-0.238615
-0.287168
-0.427134
0.011098
0.0206735
0.0239542
0.0294599
0.0322584
0.0352941
0.0366207
0.0374356
0.0361724
0.0339967
0.0283386
0.0214555
0.00668817
-0.0110246
-0.0445665
-0.0794004
-0.134686
-0.148776
-0.233476
-0.0123955
0.0209795
0.0309253
0.0344594
0.0406087
0.0439155
0.0477192
0.0498452
0.0518397
0.051956
0.051763
0.0482815
0.0450883
0.0345268
0.0262035
0.00106019
-0.0270354
-0.089943
-0.203602
-0.36801
-0.887185
0.157029
0.175274
0.183877
0.198466
0.211128
0.225952
0.241367
0.258505
0.277455
0.298755
0.322855
0.350463
0.382246
0.418899
0.460452
0.507177
0.557147
0.611627
0.661782
0.710688
0.200205
0.21652
0.225145
0.238988
0.25207
0.267093
0.283405
0.301371
0.321071
0.342678
0.366261
0.391842
0.419289
0.448362
0.47861
0.509454
0.539319
0.569076
0.590876
0.612479
0.236539
0.250883
0.258432
0.270326
0.281457
0.293879
0.307019
0.321059
0.336047
0.352029
0.369008
0.386921
0.405649
0.424941
0.444442
0.463459
0.481518
0.497121
0.509373
0.516973
0.263861
0.275783
0.282293
0.292553
0.302254
0.313069
0.324462
0.336492
0.349094
0.362176
0.37562
0.389274
0.402932
0.416348
0.429199
0.441161
0.451711
0.460532
0.4668
0.47039
0.284773
0.294081
0.299075
0.306905
0.314185
0.322213
0.330567
0.339276
0.348289
0.357535
0.366925
0.376342
0.385644
0.394648
0.403147
0.410874
0.417596
0.422972
0.4268
0.428804
0.300574
0.308012
0.312058
0.318404
0.32432
0.330819
0.337522
0.344431
0.35147
0.358558
0.365601
0.372498
0.379134
0.385388
0.391127
0.396218
0.400513
0.403894
0.40622
0.407417
0.311896
0.317292
0.320215
0.324792
0.329043
0.33369
0.338464
0.343363
0.348333
0.353316
0.358248
0.363056
0.367661
0.371977
0.375914
0.379378
0.382284
0.384545
0.386099
0.38689
0.320563
0.324838
0.327148
0.330767
0.334109
0.337747
0.341454
0.345223
0.349006
0.352751
0.356407
0.359919
0.363233
0.366294
0.369045
0.371436
0.373416
0.374943
0.375982
0.376508
0.326567
0.329538
0.331156
0.333689
0.336037
0.338592
0.341197
0.343847
0.346507
0.349141
0.351713
0.354184
0.356514
0.358665
0.360596
0.362271
0.363656
0.364723
0.365448
0.365814
0.331219
0.333582
0.334852
0.336841
0.338667
0.340645
0.342646
0.344666
0.346677
0.348651
0.35056
0.352377
0.354075
0.355629
0.357012
0.358204
0.359183
0.359934
0.360442
0.360698
0.334376
0.335976
0.336846
0.338213
0.339476
0.340849
0.342243
0.343654
0.345063
0.34645
0.347795
0.349077
0.350279
0.351379
0.35236
0.353205
0.3539
0.354433
0.354794
0.354976
0.33686
0.338145
0.338833
0.33991
0.340895
0.341959
0.343031
0.344109
0.345178
0.346222
0.347227
0.34818
0.349066
0.349872
0.350588
0.351202
0.351705
0.352089
0.352349
0.352479
0.338512
0.339367
0.339829
0.340561
0.341233
0.341965
0.342706
0.343455
0.344201
0.344933
0.34564
0.346312
0.34694
0.347512
0.348022
0.348459
0.348818
0.349092
0.349278
0.349371
0.339839
0.340539
0.340911
0.341495
0.342027
0.342601
0.343177
0.343755
0.344327
0.344885
0.34542
0.345927
0.346396
0.346823
0.347201
0.347525
0.347789
0.347991
0.348128
0.348196
0.340699
0.34116
0.341405
0.3418
0.342159
0.342552
0.342949
0.34335
0.343749
0.344139
0.344517
0.344875
0.345208
0.345512
0.345782
0.346014
0.346204
0.346349
0.346447
0.346496
0.341413
0.3418
0.342004
0.342327
0.342618
0.342934
0.343251
0.343568
0.343881
0.344187
0.34448
0.344756
0.345013
0.345246
0.345452
0.345628
0.345772
0.345882
0.345956
0.345994
0.341853
0.34211
0.342242
0.342464
0.342661
0.342882
0.343103
0.343327
0.343549
0.343768
0.343979
0.344179
0.344365
0.344535
0.344686
0.344815
0.344921
0.345002
0.345057
0.345084
0.342218
0.342443
0.34256
0.34275
0.34292
0.343107
0.343294
0.343482
0.343668
0.343849
0.344024
0.344188
0.344341
0.34448
0.344603
0.344708
0.344794
0.344859
0.344903
0.344926
0.342407
0.342556
0.342629
0.342766
0.342882
0.34302
0.343156
0.343297
0.343437
0.343576
0.34371
0.343839
0.343958
0.344068
0.344165
0.344249
0.344317
0.34437
0.344405
0.344423
0.342596
0.342736
0.342818
0.342949
0.343072
0.343208
0.343346
0.343486
0.343626
0.343764
0.343897
0.344023
0.34414
0.344246
0.344341
0.344422
0.344488
0.344539
0.344573
0.34459
-0.000134871
-0.00019908
-0.000141925
7.39541e-05
0.000463693
0.00106951
0.001939
0.00311515
0.00463587
0.00652911
0.0088054
0.0114523
0.0144286
0.0176614
0.0210442
0.0244341
0.0276481
0.0304561
0.032582
0.0337416
-0.000853812
-0.00113698
-0.00126766
-0.00125856
-0.00115974
-0.000975884
-0.000703353
-0.000339354
0.000123199
0.00069802
0.00140384
0.00226202
0.00329252
0.00450688
0.00590066
0.00744309
0.00906292
0.0106281
0.0119241
0.012677
-0.0020052
-0.0024273
-0.00248379
-0.002187
-0.00153815
-0.000476761
0.00105508
0.00309947
0.00568489
0.00881819
0.012476
0.0165933
0.0210597
0.0257206
0.0303826
0.034822
0.0387968
0.0420637
0.0443981
0.045619
-0.00393568
-0.00485408
-0.00528013
-0.00539021
-0.00522489
-0.00474253
-0.00390934
-0.00270182
-0.00109861
0.00091405
0.0033352
0.00614207
0.00928158
0.0126647
0.0161634
0.0196111
0.022806
0.0255196
0.0275136
0.0285733
-0.00669206
-0.00810965
-0.0087085
-0.00886559
-0.00857583
-0.00774634
-0.00632484
-0.00427968
-0.00159816
0.00170313
0.00556573
0.00988675
0.0145231
0.0192981
0.0240095
0.0284403
0.0323699
0.0355825
0.0378732
0.0390819
-0.0106558
-0.012975
-0.0141315
-0.0149365
-0.0153424
-0.0152504
-0.0146239
-0.0134316
-0.0116478
-0.00926814
-0.00631906
-0.00286772
0.000975289
0.0050567
0.0091852
0.01314
0.0166872
0.019587
0.0216638
0.0227325
-0.0158935
-0.019202
-0.0208344
-0.0221596
-0.0229924
-0.023208
-0.0227705
-0.0216473
-0.0198229
-0.0173141
-0.0141806
-0.0105239
-0.00648069
-0.00221695
0.00207733
0.0061947
0.00991696
0.0130144
0.0152386
0.0164234
-0.0226881
-0.0273012
-0.0296526
-0.0319145
-0.0336864
-0.0348562
-0.035386
-0.0352186
-0.0343083
-0.0326453
-0.030261
-0.027239
-0.0237116
-0.0198545
-0.0158802
-0.0120254
-0.00854012
-0.00564358
-0.00357764
-0.00250484
-0.0311191
-0.0371392
-0.0401992
-0.0434324
-0.0461015
-0.0481281
-0.0494667
-0.0500376
-0.0497902
-0.0487179
-0.0468584
-0.0442978
-0.0411626
-0.0376128
-0.0338435
-0.0300635
-0.0265675
-0.0235785
-0.021372
-0.0201956
-0.0413038
-0.0488985
-0.0527838
-0.0572273
-0.061048
-0.064222
-0.0666805
-0.0682908
-0.0689711
-0.0686988
-0.0675019
-0.0654682
-0.0627397
-0.0595034
-0.0559749
-0.0524171
-0.0490375
-0.0461601
-0.0440347
-0.0429016
-0.053225
-0.0623947
-0.0670817
-0.0727542
-0.0777005
-0.0819647
-0.085455
-0.0879968
-0.0895028
-0.0899549
-0.0893878
-0.0878944
-0.0856119
-0.0827163
-0.0794194
-0.0759769
-0.0726571
-0.0697713
-0.067616
-0.0664562
-0.0668244
-0.0775371
-0.0830261
-0.0899676
-0.0960433
-0.10139
-0.105866
-0.109256
-0.111472
-0.112508
-0.11242
-0.111319
-0.109364
-0.106739
-0.103675
-0.100398
-0.0972032
-0.0943885
-0.0922671
-0.0911202
-0.0818916
-0.0939655
-0.100153
-0.108233
-0.115254
-0.121485
-0.126731
-0.130766
-0.133528
-0.135031
-0.135348
-0.134603
-0.132954
-0.130587
-0.127727
-0.124612
-0.121536
-0.118804
-0.116735
-0.115613
-0.0981299
-0.111322
-0.118084
-0.127117
-0.134855
-0.141727
-0.147478
-0.151904
-0.154977
-0.156741
-0.157299
-0.156789
-0.155371
-0.153238
-0.150586
-0.14767
-0.144757
-0.142153
-0.140171
-0.139095
-0.11509
-0.129064
-0.136209
-0.145903
-0.15405
-0.161266
-0.167241
-0.171827
-0.175032
-0.17693
-0.177642
-0.177308
-0.176088
-0.17416
-0.171721
-0.169006
-0.166274
-0.16382
-0.161947
-0.160929
-0.132256
-0.146652
-0.153972
-0.164011
-0.172252
-0.179517
-0.185452
-0.189982
-0.193147
-0.195052
-0.195825
-0.195606
-0.194547
-0.192816
-0.190593
-0.188096
-0.18557
-0.183291
-0.181549
-0.180601
-0.149046
-0.163501
-0.170779
-0.180842
-0.188894
-0.195961
-0.201661
-0.205984
-0.209007
-0.210848
-0.211633
-0.211496
-0.210578
-0.209022
-0.207007
-0.204725
-0.202406
-0.200309
-0.198703
-0.197829
-0.164899
-0.179097
-0.186141
-0.195959
-0.203595
-0.21028
-0.215608
-0.219626
-0.222441
-0.224169
-0.224933
-0.224852
-0.22405
-0.222663
-0.220843
-0.21877
-0.216656
-0.214739
-0.213271
-0.212471
-0.179304
-0.193002
-0.199657
-0.209033
-0.216103
-0.222303
-0.227184
-0.230858
-0.233438
-0.235035
-0.23576
-0.235718
-0.235016
-0.233775
-0.232131
-0.230249
-0.228324
-0.226576
-0.225237
-0.224507
-0.191845
-0.204895
-0.211058
-0.21988
-0.226303
-0.231979
-0.236385
-0.239711
-0.242051
-0.243515
-0.244194
-0.244179
-0.243561
-0.242447
-0.240959
-0.239246
-0.23749
-0.235893
-0.23467
-0.234004
-0.202213
-0.214569
-0.220185
-0.228427
-0.234181
-0.239351
-0.243293
-0.246294
-0.24841
-0.249747
-0.250378
-0.250382
-0.249832
-0.248824
-0.247466
-0.245899
-0.244288
-0.242822
-0.2417
-0.241088
-0.210214
-0.22193
-0.226984
-0.234694
-0.239795
-0.244517
-0.248026
-0.25074
-0.252653
-0.253877
-0.254462
-0.254477
-0.253981
-0.253059
-0.25181
-0.250364
-0.248874
-0.247519
-0.246484
-0.245919
-0.215759
-0.226979
-0.231481
-0.238774
-0.243254
-0.247624
-0.250732
-0.253211
-0.254941
-0.256068
-0.25661
-0.256628
-0.256174
-0.255319
-0.254156
-0.252809
-0.25142
-0.250159
-0.249194
-0.248669
-0.218824
-0.229781
-0.23375
-0.240803
-0.244688
-0.248835
-0.251553
-0.253878
-0.255424
-0.256482
-0.256973
-0.256995
-0.256567
-0.255766
-0.254674
-0.253405
-0.252099
-0.250913
-0.250007
-0.249515
-0.219381
-0.230437
-0.233885
-0.240955
-0.244241
-0.248346
-0.250638
-0.252927
-0.254246
-0.255281
-0.255712
-0.255732
-0.255325
-0.254563
-0.253526
-0.252323
-0.251086
-0.249965
-0.24911
-0.248646
-0.21737
-0.2291
-0.231991
-0.239452
-0.24207
-0.246359
-0.248163
-0.250486
-0.251612
-0.252597
-0.252988
-0.252994
-0.252602
-0.251872
-0.250883
-0.249737
-0.248563
-0.247501
-0.246693
-0.246255
-0.212928
-0.226129
-0.228324
-0.23656
-0.238445
-0.242984
-0.244432
-0.246683
-0.247701
-0.248601
-0.248959
-0.248947
-0.248564
-0.247864
-0.24692
-0.245831
-0.244719
-0.243716
-0.242954
-0.242543
-0.20754
-0.221955
-0.223702
-0.232338
-0.23392
-0.238335
-0.239674
-0.241721
-0.242681
-0.243472
-0.243795
-0.243764
-0.243389
-0.242719
-0.241824
-0.240797
-0.239752
-0.238813
-0.238102
-0.237718
-0.201876
-0.21673
-0.218546
-0.227012
-0.228641
-0.232711
-0.234033
-0.235828
-0.236728
-0.237405
-0.237686
-0.237634
-0.237271
-0.236637
-0.2358
-0.234844
-0.233876
-0.233009
-0.232354
-0.232002
-0.195891
-0.210846
-0.212872
-0.220983
-0.222718
-0.226398
-0.22769
-0.22923
-0.230046
-0.230611
-0.230841
-0.23077
-0.230422
-0.229835
-0.229066
-0.228195
-0.227316
-0.226533
-0.225943
-0.225626
-0.189564
-0.204534
-0.206742
-0.214497
-0.216303
-0.219622
-0.220845
-0.222148
-0.222855
-0.223311
-0.223485
-0.223399
-0.223074
-0.222543
-0.221857
-0.221085
-0.220309
-0.21962
-0.219103
-0.218826
-0.182976
-0.197966
-0.200308
-0.207764
-0.209596
-0.212603
-0.213722
-0.214809
-0.21539
-0.215741
-0.215858
-0.215761
-0.215467
-0.215003
-0.214412
-0.213752
-0.213093
-0.212509
-0.212072
-0.211837
-0.176307
-0.191306
-0.19375
-0.200959
-0.202797
-0.205537
-0.206539
-0.20743
-0.207881
-0.208133
-0.208197
-0.208094
-0.20784
-0.207453
-0.206969
-0.206431
-0.205897
-0.205425
-0.205073
-0.204885
-0.169802
-0.184738
-0.187282
-0.194262
-0.196111
-0.198619
-0.199509
-0.200224
-0.200552
-0.200712
-0.20073
-0.200628
-0.20042
-0.200118
-0.199747
-0.199338
-0.198934
-0.198578
-0.198313
-0.198171
-0.16372
-0.178442
-0.181093
-0.187831
-0.189713
-0.192017
-0.192815
-0.193378
-0.193599
-0.193679
-0.193659
-0.193567
-0.19341
-0.193197
-0.19294
-0.192661
-0.192387
-0.192146
-0.191966
-0.19187
-0.158306
-0.172599
-0.175367
-0.181817
-0.183759
-0.185883
-0.186614
-0.187056
-0.187186
-0.187202
-0.187157
-0.187079
-0.186976
-0.186851
-0.186707
-0.186553
-0.186401
-0.186269
-0.18617
-0.186117
-0.153749
-0.167361
-0.170243
-0.176344
-0.178365
-0.18033
-0.18102
-0.181377
-0.18144
-0.18141
-0.18135
-0.181292
-0.181244
-0.181201
-0.181161
-0.181121
-0.181083
-0.181049
-0.181022
-0.181008
-0.150185
-0.162859
-0.165834
-0.171514
-0.173619
-0.175441
-0.176123
-0.176421
-0.176444
-0.176387
-0.176323
-0.176289
-0.17629
-0.176323
-0.176374
-0.176434
-0.176493
-0.176543
-0.176579
-0.176598
-0.147668
-0.159179
-0.162204
-0.167398
-0.169569
-0.171265
-0.171961
-0.172229
-0.172239
-0.172173
-0.172115
-0.172106
-0.172152
-0.172248
-0.172375
-0.172516
-0.172654
-0.172772
-0.172858
-0.172904
-0.146192
-0.156369
-0.159381
-0.164038
-0.166237
-0.167823
-0.168542
-0.168809
-0.168828
-0.168769
-0.168726
-0.168741
-0.168825
-0.168969
-0.169154
-0.169356
-0.169553
-0.169722
-0.169846
-0.169911
-0.145681
-0.154428
-0.157349
-0.161441
-0.163609
-0.165101
-0.165844
-0.166133
-0.16618
-0.166146
-0.166125
-0.166164
-0.166277
-0.166455
-0.166678
-0.166921
-0.167157
-0.16736
-0.167508
-0.167586
-0.146012
-0.153309
-0.156061
-0.159579
-0.161654
-0.163064
-0.163821
-0.164147
-0.164238
-0.16424
-0.164246
-0.164308
-0.16444
-0.164637
-0.164881
-0.165144
-0.165399
-0.165619
-0.165779
-0.165864
-0.147017
-0.152922
-0.155434
-0.158394
-0.160326
-0.161647
-0.162411
-0.162783
-0.162927
-0.162977
-0.163019
-0.163105
-0.16325
-0.163455
-0.163703
-0.16397
-0.164229
-0.164451
-0.164613
-0.164699
-0.148512
-0.153143
-0.155362
-0.157805
-0.159552
-0.160774
-0.161535
-0.161951
-0.162155
-0.162257
-0.162337
-0.162442
-0.162595
-0.162797
-0.163036
-0.163292
-0.163539
-0.163751
-0.163906
-0.163988
-0.150302
-0.153819
-0.155719
-0.157706
-0.159242
-0.160362
-0.161111
-0.16157
-0.161839
-0.162003
-0.162132
-0.162268
-0.162433
-0.162629
-0.162853
-0.163089
-0.163316
-0.16351
-0.163652
-0.163727
-0.152196
-0.154783
-0.156366
-0.157966
-0.15929
-0.160311
-0.161045
-0.161541
-0.16187
-0.162092
-0.162262
-0.162417
-0.16258
-0.162766
-0.162968
-0.163175
-0.163371
-0.163539
-0.163662
-0.163727
-0.154013
-0.155859
-0.157154
-0.158442
-0.159585
-0.160524
-0.161253
-0.161792
-0.162194
-0.162496
-0.162738
-0.16295
-0.163151
-0.163333
-0.163516
-0.163697
-0.163865
-0.164007
-0.16411
-0.164165
-0.155587
-0.156872
-0.157923
-0.158982
-0.159992
-0.16088
-0.161619
-0.162205
-0.162668
-0.163025
-0.163297
-0.163509
-0.163679
-0.16385
-0.16401
-0.164157
-0.164289
-0.164398
-0.164477
-0.164518
-0.156763
-0.157642
-0.158508
-0.159422
-0.160367
-0.161262
-0.162066
-0.16275
-0.16333
-0.16382
-0.164225
-0.164559
-0.164835
-0.165042
-0.165196
-0.165326
-0.165433
-0.165518
-0.165578
-0.165609
-0.157381
-0.15798
-0.158722
-0.159573
-0.160529
-0.161494
-0.162413
-0.163215
-0.163885
-0.164421
-0.164821
-0.1651
-0.165287
-0.165428
-0.165557
-0.165649
-0.165716
-0.165764
-0.165796
-0.165811
-0.157261
-0.157679
-0.158375
-0.159244
-0.160303
-0.161442
-0.162599
-0.163671
-0.164623
-0.16545
-0.166148
-0.166704
-0.167134
-0.167454
-0.167597
-0.167695
-0.167749
-0.167777
-0.167791
-0.167796
-0.156203
-0.15652
-0.157227
-0.158175
-0.159408
-0.16079
-0.162249
-0.16361
-0.16476
-0.165642
-0.166266
-0.166652
-0.166869
-0.166946
-0.167052
-0.167087
-0.167083
-0.167061
-0.167037
-0.167022
-0.154005
-0.154228
-0.155
-0.156095
-0.157611
-0.159392
-0.161376
-0.163363
-0.165203
-0.166789
-0.168107
-0.169139
-0.169889
-0.170415
-0.170656
-0.170725
-0.17072
-0.170671
-0.17062
-0.170587
-0.15032
-0.150419
-0.151284
-0.152555
-0.154396
-0.156613
-0.159146
-0.161695
-0.163976
-0.165714
-0.166872
-0.16753
-0.167819
-0.16788
-0.167879
-0.167861
-0.167756
-0.167624
-0.167505
-0.167435
-0.144707
-0.144669
-0.145688
-0.147207
-0.14951
-0.152382
-0.155824
-0.159569
-0.163328
-0.166707
-0.169486
-0.171623
-0.173116
-0.174055
-0.174572
-0.174576
-0.174452
-0.174207
-0.173986
-0.173839
-0.136679
-0.136387
-0.137534
-0.139245
-0.141964
-0.145408
-0.149584
-0.154127
-0.158611
-0.162361
-0.164939
-0.16635
-0.166974
-0.16714
-0.167027
-0.16705
-0.166824
-0.166501
-0.16618
-0.16596
-0.12584
-0.125114
-0.126337
-0.128195
-0.131459
-0.135852
-0.141495
-0.148129
-0.155409
-0.162621
-0.168927
-0.173766
-0.177147
-0.1791
-0.180095
-0.180006
-0.179443
-0.178451
-0.177557
-0.176835
-0.11165
-0.110205
-0.111309
-0.112976
-0.116283
-0.120832
-0.126798
-0.133914
-0.141775
-0.149357
-0.155323
-0.158934
-0.160572
-0.161492
-0.162023
-0.162566
-0.162734
-0.162207
-0.161493
-0.16067
-0.0934434
-0.0910406
-0.0921873
-0.0940022
-0.0980582
-0.103951
-0.112081
-0.122413
-0.134882
-0.148881
-0.163219
-0.175748
-0.184566
-0.189399
-0.191193
-0.190564
-0.188355
-0.183749
-0.179919
-0.175245
-0.0704541
-0.0657445
-0.0659045
-0.0664352
-0.0695749
-0.0748325
-0.0826727
-0.0928577
-0.105007
-0.117563
-0.127029
-0.130883
-0.130743
-0.132996
-0.140236
-0.146841
-0.152064
-0.154282
-0.155138
-0.152633
0.342596
0.342736
0.342818
0.342949
0.343072
0.343208
0.343346
0.343486
0.343626
0.343764
0.343897
0.344022
0.34414
0.344246
0.344341
0.344422
0.344488
0.344539
0.344573
0.34459
0.342407
0.342556
0.342629
0.342766
0.342882
0.34302
0.343156
0.343297
0.343437
0.343576
0.34371
0.343839
0.343958
0.344068
0.344165
0.344249
0.344317
0.34437
0.344405
0.344423
0.342218
0.342443
0.34256
0.34275
0.34292
0.343107
0.343294
0.343482
0.343668
0.343849
0.344024
0.344188
0.344341
0.34448
0.344603
0.344708
0.344794
0.344859
0.344903
0.344926
0.341853
0.34211
0.342242
0.342464
0.342661
0.342882
0.343103
0.343327
0.343549
0.343768
0.343979
0.344179
0.344365
0.344535
0.344686
0.344815
0.344921
0.345002
0.345057
0.345084
0.341413
0.3418
0.342004
0.342327
0.342618
0.342934
0.343251
0.343568
0.343881
0.344187
0.34448
0.344756
0.345013
0.345246
0.345452
0.345628
0.345772
0.345882
0.345956
0.345994
0.340699
0.34116
0.341405
0.3418
0.342159
0.342552
0.342949
0.34335
0.343749
0.344139
0.344517
0.344875
0.345208
0.345512
0.345782
0.346014
0.346204
0.346349
0.346447
0.346496
0.339839
0.340539
0.340911
0.341495
0.342027
0.342601
0.343177
0.343755
0.344327
0.344885
0.34542
0.345927
0.346396
0.346823
0.347201
0.347525
0.347789
0.347991
0.348128
0.348196
0.338512
0.339367
0.339829
0.340561
0.341233
0.341965
0.342706
0.343455
0.344201
0.344933
0.34564
0.346312
0.34694
0.347512
0.348022
0.348459
0.348818
0.349092
0.349278
0.349371
0.33686
0.338145
0.338833
0.33991
0.340895
0.341959
0.343031
0.344109
0.345178
0.346222
0.347227
0.34818
0.349066
0.349872
0.350588
0.351202
0.351705
0.352089
0.352349
0.352479
0.334376
0.335976
0.336846
0.338213
0.339476
0.340849
0.342243
0.343654
0.345063
0.34645
0.347795
0.349077
0.350279
0.351379
0.35236
0.353205
0.3539
0.354433
0.354794
0.354976
0.331219
0.333582
0.334852
0.336841
0.338667
0.340645
0.342646
0.344666
0.346677
0.348651
0.35056
0.352377
0.354075
0.355629
0.357012
0.358204
0.359183
0.359934
0.360442
0.360698
0.326567
0.329538
0.331156
0.333689
0.336037
0.338592
0.341197
0.343847
0.346507
0.349141
0.351713
0.354184
0.356514
0.358665
0.360596
0.362271
0.363656
0.364723
0.365448
0.365814
0.320563
0.324838
0.327148
0.330767
0.334109
0.337747
0.341454
0.345223
0.349006
0.352751
0.356407
0.359919
0.363233
0.366294
0.369045
0.371436
0.373416
0.374943
0.375982
0.376508
0.311896
0.317292
0.320215
0.324792
0.329043
0.33369
0.338464
0.343363
0.348333
0.353316
0.358248
0.363056
0.367661
0.371977
0.375914
0.379378
0.382284
0.384545
0.386099
0.38689
0.300574
0.308012
0.312058
0.318404
0.32432
0.330819
0.337522
0.344431
0.35147
0.358558
0.365601
0.372498
0.379134
0.385388
0.391127
0.396218
0.400513
0.403894
0.40622
0.407417
0.284773
0.294081
0.299075
0.306905
0.314185
0.322213
0.330567
0.339276
0.348289
0.357535
0.366925
0.376342
0.385644
0.394648
0.403147
0.410874
0.417596
0.422972
0.4268
0.428804
0.263861
0.275783
0.282293
0.292553
0.302254
0.313069
0.324462
0.336492
0.349094
0.362176
0.37562
0.389274
0.402932
0.416348
0.429199
0.441161
0.451711
0.460532
0.4668
0.47039
0.236539
0.250883
0.258432
0.270326
0.281457
0.293879
0.307019
0.321059
0.336047
0.352029
0.369008
0.386921
0.405649
0.424941
0.444442
0.463459
0.481518
0.497121
0.509373
0.516973
0.200205
0.21652
0.225145
0.238988
0.25207
0.267093
0.283405
0.301371
0.321071
0.342678
0.366261
0.391842
0.419289
0.448362
0.47861
0.509454
0.539319
0.569076
0.590876
0.612479
0.157029
0.175274
0.183877
0.198466
0.211128
0.225952
0.241367
0.258505
0.277455
0.298755
0.322855
0.350463
0.382246
0.418899
0.460452
0.507177
0.557147
0.611627
0.661782
0.710688
-0.0704541
-0.0657445
-0.0659045
-0.0664352
-0.0695749
-0.0748325
-0.0826727
-0.0928577
-0.105007
-0.117563
-0.127029
-0.130883
-0.130743
-0.132996
-0.140236
-0.146841
-0.152064
-0.154282
-0.155138
-0.152633
-0.0934434
-0.0910406
-0.0921873
-0.0940022
-0.0980582
-0.103951
-0.112081
-0.122413
-0.134882
-0.148881
-0.163219
-0.175748
-0.184566
-0.189399
-0.191193
-0.190564
-0.188355
-0.183749
-0.179919
-0.175245
-0.11165
-0.110205
-0.111309
-0.112976
-0.116283
-0.120832
-0.126798
-0.133914
-0.141775
-0.149357
-0.155323
-0.158934
-0.160572
-0.161492
-0.162023
-0.162566
-0.162734
-0.162207
-0.161493
-0.16067
-0.12584
-0.125114
-0.126337
-0.128195
-0.131459
-0.135852
-0.141495
-0.148129
-0.155409
-0.162621
-0.168927
-0.173766
-0.177147
-0.1791
-0.180095
-0.180006
-0.179443
-0.178451
-0.177557
-0.176835
-0.136679
-0.136387
-0.137534
-0.139245
-0.141964
-0.145408
-0.149584
-0.154127
-0.158611
-0.162361
-0.164939
-0.16635
-0.166974
-0.16714
-0.167027
-0.16705
-0.166824
-0.166501
-0.16618
-0.16596
-0.144707
-0.144669
-0.145688
-0.147207
-0.14951
-0.152382
-0.155824
-0.159569
-0.163328
-0.166707
-0.169486
-0.171623
-0.173116
-0.174055
-0.174572
-0.174576
-0.174452
-0.174207
-0.173986
-0.173839
-0.15032
-0.150419
-0.151284
-0.152555
-0.154396
-0.156613
-0.159146
-0.161695
-0.163976
-0.165714
-0.166872
-0.16753
-0.167819
-0.16788
-0.167879
-0.167861
-0.167756
-0.167624
-0.167505
-0.167435
-0.154005
-0.154228
-0.155
-0.156095
-0.157611
-0.159392
-0.161376
-0.163363
-0.165203
-0.166789
-0.168107
-0.169139
-0.169889
-0.170415
-0.170656
-0.170725
-0.17072
-0.170671
-0.17062
-0.170587
-0.156203
-0.15652
-0.157227
-0.158175
-0.159408
-0.16079
-0.162249
-0.16361
-0.16476
-0.165642
-0.166266
-0.166652
-0.166869
-0.166946
-0.167052
-0.167087
-0.167083
-0.167061
-0.167037
-0.167022
-0.15726
-0.157678
-0.158375
-0.159244
-0.160303
-0.161442
-0.162599
-0.163671
-0.164623
-0.16545
-0.166148
-0.166704
-0.167134
-0.167454
-0.167597
-0.167695
-0.167749
-0.167777
-0.167791
-0.167796
-0.157381
-0.15798
-0.158722
-0.159573
-0.160529
-0.161494
-0.162413
-0.163215
-0.163885
-0.164421
-0.164821
-0.1651
-0.165287
-0.165428
-0.165557
-0.165649
-0.165716
-0.165764
-0.165796
-0.165811
-0.156763
-0.157642
-0.158508
-0.159422
-0.160367
-0.161262