/*--------------------------------*- C++ -*----------------------------------*\
  =========                 |
  \\      /  F ield         | OpenFOAM: The Open Source CFD Toolbox
   \\    /   O peration     | Website:  https://openfoam.org
    \\  /    A nd           | Version:  7
     \\/     M anipulation  |
\*---------------------------------------------------------------------------*/
FoamFile
{
    version     2.0;
    format      ascii;
    class       volVectorField;
    location    "76";
    object      U;
}
// * * * * * * * * * * * * * * * * * * * * * * * * * * * * * * * * * * * * * //

dimensions      [0 1 -1 0 0 0 0];

internalField   nonuniform List<vector> 
4000
(
(1.25701 0.222113 5.55046e-18)
(1.25267 0.240252 1.95159e-18)
(1.24534 0.247963 -1.06014e-19)
(1.23966 0.262059 -2.26046e-18)
(1.23316 0.273495 9.99166e-19)
(1.22776 0.287594 2.06593e-18)
(1.22192 0.301456 8.89605e-18)
(1.21663 0.317211 5.9284e-18)
(1.2111 0.334348 9.33671e-18)
(1.20613 0.35277 1.47978e-17)
(1.20047 0.374914 8.55586e-18)
(1.19611 0.39773 7.41519e-18)
(1.18972 0.429164 -2.20109e-18)
(1.18842 0.459869 6.00665e-18)
(1.18194 0.505418 9.62597e-18)
(1.18766 0.536459 1.55675e-17)
(1.14822 0.551112 5.77091e-18)
(1.0656 0.472771 4.09763e-18)
(0.717396 0.246715 8.28908e-20)
(0.397528 0.00318095 2.52248e-18)
(1.26429 0.227126 4.38415e-18)
(1.25974 0.245058 1.40101e-18)
(1.25274 0.253098 1.15616e-19)
(1.24731 0.267323 1.51627e-18)
(1.24119 0.279069 1.18173e-18)
(1.23611 0.293518 3.10889e-18)
(1.23069 0.307902 7.62829e-18)
(1.22591 0.324305 5.50778e-18)
(1.22119 0.342218 9.0406e-18)
(1.2172 0.361985 1.12577e-17)
(1.21325 0.385486 7.70294e-18)
(1.21114 0.410962 3.64519e-18)
(1.20964 0.444162 1.31295e-18)
(1.21268 0.477291 9.23032e-18)
(1.20443 0.513388 8.3523e-18)
(1.16845 0.516646 1.03393e-17)
(1.03313 0.476091 4.66881e-18)
(0.755727 0.340806 -5.54966e-18)
(0.335882 0.226975 -3.81936e-17)
(-0.0932917 0.0981552 -3.05343e-18)
(1.27103 0.231892 3.34173e-18)
(1.26624 0.249695 1.12428e-18)
(1.25952 0.257941 4.27712e-19)
(1.25426 0.272297 1.36199e-18)
(1.24859 0.284356 1.30182e-18)
(1.244 0.2992 3.20308e-18)
(1.23943 0.314137 6.28011e-18)
(1.23576 0.331165 5.55038e-18)
(1.23242 0.349708 9.08898e-18)
(1.23002 0.370385 9.78869e-18)
(1.22831 0.394552 7.16784e-18)
(1.22912 0.421042 4.01088e-18)
(1.22997 0.452039 2.07404e-18)
(1.22537 0.475578 4.08662e-18)
(1.18445 0.481231 -2.45877e-18)
(1.06892 0.431719 5.58526e-18)
(0.819257 0.322611 -1.54538e-17)
(0.460709 0.158979 -3.96051e-17)
(0.0619046 0.0133997 -2.15007e-17)
(-0.00566851 -0.0273726 -1.35388e-17)
(1.27744 0.236425 2.9432e-18)
(1.27254 0.254133 7.19439e-19)
(1.26613 0.26249 4.30538e-20)
(1.2611 0.276924 1.20748e-18)
(1.25585 0.289146 1.5584e-18)
(1.25168 0.304142 3.83423e-18)
(1.24761 0.319239 6.59769e-18)
(1.24441 0.336501 4.98258e-18)
(1.2417 0.355433 6.97113e-18)
(1.24068 0.376873 5.88727e-18)
(1.24155 0.401451 2.6511e-18)
(1.24416 0.426931 -1.69754e-18)
(1.23976 0.450204 1.24637e-21)
(1.20899 0.454696 5.82264e-18)
(1.10853 0.425026 -1.75429e-18)
(0.899004 0.336204 -5.99232e-20)
(0.565535 0.212535 -2.18715e-17)
(0.191453 0.0795283 -2.46057e-17)
(-0.0384789 0.0816039 -5.11269e-17)
(-0.0934394 0.0640596 -1.25996e-17)
(1.28364 0.2407 1.57771e-18)
(1.27875 0.258301 7.86159e-19)
(1.2727 0.2667 1.24097e-18)
(1.26798 0.281202 1.35041e-18)
(1.26326 0.293594 1.80312e-18)
(1.25973 0.30888 3.18447e-18)
(1.25668 0.32446 5.57951e-18)
(1.25501 0.342379 4.66522e-18)
(1.25456 0.361772 7.64085e-18)
(1.25602 0.383018 6.93804e-18)
(1.25795 0.405517 3.82622e-18)
(1.25563 0.425247 7.99648e-18)
(1.23176 0.434309 1.11149e-17)
(1.15533 0.413799 -4.54504e-18)
(0.980552 0.350738 -7.22726e-18)
(0.689665 0.237583 -6.79729e-18)
(0.32736 0.118627 -1.65429e-17)
(0.0457799 0.0550191 -8.75264e-18)
(-0.0979268 0.0550683 -1.09173e-17)
(-0.0314734 0.0229943 -3.41519e-17)
(1.28962 0.244732 3.17162e-18)
(1.28482 0.262214 4.76662e-19)
(1.27913 0.270615 -4.2235e-19)
(1.27476 0.285139 7.33298e-19)
(1.27053 0.297549 1.44314e-18)
(1.2675 0.312796 4.82481e-18)
(1.26488 0.328135 5.03473e-18)
(1.2635 0.345499 5.06321e-18)
(1.26319 0.364019 3.75943e-18)
(1.26421 0.384111 3.42246e-18)
(1.26321 0.403675 2.2808e-18)
(1.24928 0.41537 -7.56503e-18)
(1.19486 0.406712 -6.60207e-18)
(1.06132 0.36105 3.50618e-18)
(0.813888 0.27486 7.21987e-18)
(0.475846 0.160679 2.72214e-17)
(0.153416 0.089084 1.66015e-17)
(-0.050878 0.0708191 -4.14413e-18)
(-0.098064 0.0908627 4.69559e-18)
(-0.052965 0.0495239 -4.35295e-18)
(1.29537 0.248499 3.05289e-18)
(1.29071 0.265807 3.97768e-19)
(1.2854 0.274135 3.12313e-19)
(1.28143 0.288637 -8.99994e-20)
(1.27774 0.301073 1.45279e-18)
(1.27542 0.3165 2.82846e-18)
(1.27396 0.332208 3.86594e-18)
(1.2745 0.350118 1.38679e-18)
(1.27674 0.368893 8.17269e-18)
(1.27885 0.387337 6.87329e-18)
(1.27179 0.400071 -4.77552e-18)
(1.23546 0.397314 2.53242e-18)
(1.13543 0.367535 1.11348e-17)
(0.937388 0.301199 -3.20122e-18)
(0.633016 0.205441 -1.28276e-17)
(0.295315 0.112509 1.90001e-17)
(0.0393273 0.0824126 -2.87844e-18)
(-0.0816458 0.0893303 -2.66363e-17)
(-0.105866 0.0926241 2.70179e-17)
(-0.0349051 0.0380614 2.9574e-18)
(1.30088 0.252044 1.0632e-18)
(1.2964 0.269181 2.26075e-19)
(1.29144 0.277458 -1.25673e-18)
(1.28789 0.291936 2.122e-18)
(1.2847 0.304285 1.85264e-18)
(1.28291 0.319463 1.93747e-18)
(1.28192 0.334411 2.96957e-18)
(1.28222 0.350633 4.94659e-18)
(1.28197 0.366147 6.71212e-18)
(1.27645 0.379034 -5.6133e-19)
(1.25218 0.383007 -5.22434e-18)
(1.18436 0.367934 -5.5737e-18)
(1.03731 0.322668 -2.26335e-18)
(0.786068 0.243753 -6.57731e-18)
(0.456925 0.15247 -3.30683e-18)
(0.158373 0.0936006 1.86298e-17)
(-0.0261985 0.0952091 -3.51953e-19)
(-0.108955 0.10308 -8.80819e-18)
(-0.101631 0.102004 1.54684e-18)
(-0.0439582 0.044228 -2.00729e-18)
(1.30614 0.255315 3.9628e-18)
(1.3019 0.272181 3.54133e-20)
(1.29732 0.280252 3.46748e-18)
(1.29424 0.294576 -2.5718e-18)
(1.29155 0.306786 4.23994e-19)
(1.29044 0.321882 3.36474e-18)
(1.29037 0.336912 4.59986e-18)
(1.2918 0.353448 -1.72779e-18)
(1.29212 0.368979 3.0199e-18)
(1.28314 0.37946 6.11431e-18)
(1.2443 0.374524 -3.36084e-18)
(1.1429 0.341784 1.45597e-17)
(0.944518 0.276149 2.31314e-17)
(0.647115 0.189377 1.39987e-17)
(0.318128 0.116401 5.16778e-18)
(0.0692206 0.0888116 4.09841e-17)
(-0.0690377 0.0968879 2.2541e-17)
(-0.116964 0.10095 -2.48932e-17)
(-0.103781 0.095469 -6.88716e-18)
(-0.0411064 0.0396879 -5.68502e-19)
(1.31116 0.258393 4.93491e-18)
(1.30718 0.275054 1.24202e-18)
(1.30289 0.283105 -9.23559e-19)
(1.30029 0.297432 2.93002e-19)
(1.29803 0.309509 4.8387e-18)
(1.2975 0.324208 8.3169e-19)
(1.29756 0.338042 5.35557e-18)
(1.2973 0.351582 1.2779e-18)
(1.29031 0.360393 1.20369e-17)
(1.26214 0.358307 4.15575e-18)
(1.18652 0.335433 3.03423e-18)
(1.03326 0.286411 1.24761e-17)
(0.785124 0.216459 -3.95349e-18)
(0.472066 0.144028 1.12759e-17)
(0.181128 0.0975777 2.33483e-18)
(-0.00786847 0.084901 8.49316e-18)
(-0.0993262 0.0889929 -1.45239e-18)
(-0.121788 0.087991 -5.20743e-18)
(-0.0954985 0.0836539 -1.22587e-17)
(-0.0375572 0.036609 -2.65211e-18)
(1.18039 0.169292 2.13057e-17)
(1.17034 0.193397 8.37155e-18)
(1.15969 0.201991 -2.70528e-18)
(1.14592 0.22049 -1.73714e-17)
(1.13323 0.23387 -9.17949e-18)
(1.11713 0.250812 4.07686e-17)
(1.10103 0.266792 1.28296e-17)
(1.08138 0.284393 4.1995e-17)
(1.05961 0.302283 1.76944e-18)
(1.03328 0.32097 7.93356e-18)
(1.00259 0.340055 2.56808e-17)
(0.965043 0.358976 -2.60719e-17)
(0.920771 0.377704 -5.60322e-17)
(0.866133 0.394669 -4.51165e-18)
(0.80548 0.409509 5.26569e-17)
(0.728938 0.418206 1.25507e-16)
(0.653259 0.426841 1.65029e-16)
(0.547623 0.412984 1.0214e-16)
(0.431204 0.398031 1.3495e-17)
(0.192137 0.19603 2.15113e-17)
(1.18809 0.174794 1.89621e-17)
(1.17862 0.198669 7.14621e-18)
(1.16828 0.207324 -6.73321e-19)
(1.15535 0.225763 -1.61165e-17)
(1.14337 0.239248 -8.19096e-18)
(1.12842 0.256443 1.6683e-17)
(1.11353 0.272681 1.2849e-17)
(1.09552 0.290929 1.36818e-17)
(1.07576 0.30967 2.20478e-17)
(1.05195 0.329652 3.20633e-17)
(1.0244 0.350636 -4.45248e-18)
(0.990473 0.371925 -1.75999e-17)
(0.950674 0.394045 -2.7529e-18)
(0.901392 0.414339 -6.47161e-20)
(0.846864 0.43572 -3.48968e-18)
(0.778318 0.448262 9.5845e-17)
(0.708419 0.469447 1.16887e-16)
(0.618474 0.457779 1.5623e-17)
(0.495328 0.450913 8.48825e-17)
(0.245577 0.220053 2.03637e-17)
(1.1957 0.180289 1.22361e-17)
(1.18695 0.203811 5.96172e-18)
(1.17687 0.212462 -5.92247e-18)
(1.16495 0.230727 -8.58023e-18)
(1.15362 0.244241 -4.61318e-18)
(1.13993 0.261543 1.08201e-17)
(1.12622 0.277918 4.28841e-18)
(1.10983 0.296598 1.5731e-17)
(1.0919 0.315998 2.06098e-17)
(1.07028 0.337019 1.95618e-17)
(1.04523 0.359705 5.4559e-19)
(1.01406 0.383213 -1.88587e-17)
(0.977253 0.408914 -2.11686e-17)
(0.930346 0.433099 -1.23311e-17)
(0.877748 0.460943 -2.94998e-18)
(0.809994 0.479139 5.87039e-17)
(0.738806 0.508447 5.81384e-17)
(0.645328 0.500907 3.9105e-17)
(0.504326 0.485159 5.10424e-17)
(0.229305 0.224326 -3.03323e-19)
(1.20326 0.185732 1.8312e-17)
(1.19521 0.208795 4.18893e-18)
(1.18541 0.217392 9.97518e-18)
(1.17441 0.235364 -1.84228e-17)
(1.16373 0.248828 -8.03176e-18)
(1.1512 0.266082 1.39421e-17)
(1.13863 0.282464 1.99271e-17)
(1.1238 0.301342 3.30858e-19)
(1.10768 0.32116 1.03412e-17)
(1.08837 0.342838 3.37454e-17)
(1.06612 0.366798 3.88549e-18)
(1.03844 0.391799 8.04743e-18)
(1.00577 0.42054 2.24813e-17)
(0.96406 0.447282 2.32547e-17)
(0.916262 0.481854 2.18634e-18)
(0.856888 0.504053 8.67972e-17)
(0.787201 0.546955 8.56772e-17)
(0.706807 0.542431 -1.52337e-17)
(0.544825 0.520925 2.80835e-17)
(0.24601 0.235297 8.06288e-18)
(1.21088 0.191149 1.51152e-17)
(1.2035 0.21367 6.12776e-18)
(1.19402 0.222196 -6.3423e-18)
(1.18388 0.239793 -1.43798e-17)
(1.17385 0.253151 5.19276e-18)
(1.16248 0.27024 -1.05705e-18)
(1.15109 0.286527 1.36344e-17)
(1.13788 0.305413 -3.01904e-18)
(1.12369 0.325423 2.32683e-17)
(1.10684 0.347419 2.78104e-17)
(1.08758 0.372288 5.81668e-18)
(1.06364 0.398287 6.93813e-18)
(1.03507 0.429511 -9.03172e-18)
(0.998496 0.458362 1.64468e-17)
(0.954878 0.497449 4.90339e-18)
(0.901147 0.523117 6.52369e-17)
(0.833252 0.566561 6.03453e-17)
(0.745066 0.565313 2.92827e-18)
(0.575527 0.528721 1.551e-17)
(0.236438 0.230401 3.15576e-18)
(1.21857 0.196459 1.11843e-17)
(1.21182 0.218318 -3.75896e-18)
(1.20271 0.226698 2.93583e-18)
(1.19345 0.24378 -1.14335e-17)
(1.18411 0.256894 3.34592e-18)
(1.17393 0.273607 1.91049e-19)
(1.16373 0.289584 1.41275e-17)
(1.15221 0.308146 1.34563e-17)
(1.13997 0.327987 1.91217e-17)
(1.12581 0.349785 2.22918e-17)
(1.10959 0.374981 5.52157e-18)
(1.08995 0.401187 4.92576e-18)
(1.06541 0.43425 8.07579e-20)
(1.0357 0.464423 1.17038e-17)
(0.995509 0.50929 4.98872e-18)
(0.953552 0.540892 4.93277e-17)
(0.885043 0.604466 4.28635e-17)
(0.824401 0.614545 8.68881e-18)
(0.622286 0.588814 1.21653e-17)
(0.279313 0.255456 1.80809e-18)
(1.2263 0.201773 9.52547e-18)
(1.22014 0.222942 -1.44577e-18)
(1.21139 0.231205 2.21275e-18)
(1.20295 0.247764 -7.56272e-18)
(1.19427 0.260638 2.46276e-18)
(1.18521 0.276957 4.16065e-19)
(1.17612 0.292625 1.46697e-18)
(1.16621 0.310821 1.10486e-17)
(1.15585 0.330377 1.57531e-17)
(1.1442 0.351868 1.93895e-17)
(1.1309 0.377143 7.66927e-18)
(1.1151 0.403515 5.05826e-18)
(1.09502 0.437588 -1.23209e-17)
(1.071 0.468968 8.05794e-18)
(1.03717 0.51438 6.78991e-18)
(1.00023 0.545584 3.80315e-17)
(0.94123 0.591036 3.17611e-17)
(0.849842 0.593371 1.28992e-17)
(0.66013 0.532688 7.20913e-18)
(0.237796 0.225045 5.73986e-18)
(1.23399 0.20684 5.28561e-18)
(1.22844 0.227142 -3.31577e-18)
(1.22011 0.235102 3.10794e-19)
(1.21249 0.250876 -8.77822e-18)
(1.20449 0.263234 1.16836e-18)
(1.19658 0.278787 8.88121e-20)
(1.18862 0.293736 -1.654e-18)
(1.18036 0.310976 9.504e-18)
(1.1718 0.329627 1.26687e-17)
(1.16259 0.349935 1.30866e-17)
(1.15207 0.374326 2.86642e-18)
(1.1406 0.399194 6.78916e-19)
(1.12501 0.433164 -1.10942e-17)
(1.10846 0.463975 7.75702e-19)
(1.0797 0.514566 5.76587e-19)
(1.05481 0.554603 2.94399e-17)
(1.00032 0.640457 2.5732e-17)
(0.965681 0.680413 1.28902e-17)
(0.761748 0.699209 7.68065e-18)
(0.380712 0.314353 -5.20816e-18)
(1.24169 0.212082 8.78236e-18)
(1.2366 0.231684 3.40813e-18)
(1.22858 0.239592 1.67298e-18)
(1.22165 0.254859 1.06426e-18)
(1.21419 0.266987 1.1979e-18)
(1.20723 0.282133 7.57497e-19)
(1.20015 0.296775 6.02959e-18)
(1.19314 0.313619 6.44766e-18)
(1.18583 0.331963 1.00326e-17)
(1.17832 0.351873 1.90064e-17)
(1.16991 0.375924 1.27328e-17)
(1.16133 0.400499 1.04103e-17)
(1.14959 0.434241 -6.69286e-18)
(1.13867 0.465242 9.91205e-18)
(1.11808 0.512534 1.03998e-17)
(1.10026 0.543325 2.07009e-17)
(1.05286 0.578237 1.48339e-17)
(0.97084 0.56356 1.52041e-17)
(0.743928 0.464221 1.02252e-17)
(0.252944 0.175403 -3.40005e-19)
(1.24924 0.216693 7.06002e-18)
(1.24483 0.235151 2.65997e-18)
(1.23725 0.242386 -1.55699e-18)
(1.23115 0.256349 -1.6373e-18)
(1.22439 0.267448 7.58282e-19)
(1.21852 0.281165 3.36967e-19)
(1.21244 0.294422 7.01711e-18)
(1.2068 0.309437 1.04302e-17)
(1.20092 0.325916 8.05147e-18)
(1.19582 0.343146 1.84188e-17)
(1.18976 0.3645 1.25825e-17)
(1.18588 0.384847 1.02965e-17)
(1.17773 0.414908 -2.71051e-18)
(1.17444 0.44095 2.09043e-18)
(1.15511 0.490721 5.56447e-18)
(1.14712 0.538533 1.87247e-17)
(1.11041 0.641798 1.47388e-17)
(1.12276 0.729512 1.68254e-17)
(0.993056 0.819658 -2.01308e-18)
(0.668371 0.394539 7.54191e-19)
(1.24924 -0.216693 8.0913e-18)
(1.24483 -0.235151 7.77156e-18)
(1.23725 -0.242386 3.01134e-18)
(1.23115 -0.256349 3.84727e-18)
(1.22439 -0.267448 -1.98522e-18)
(1.21852 -0.281165 -5.18941e-18)
(1.21244 -0.294422 1.04892e-18)
(1.2068 -0.309437 -2.23765e-18)
(1.20092 -0.325916 -7.73204e-18)
(1.19582 -0.343146 -1.2823e-17)
(1.18976 -0.3645 -8.23362e-19)
(1.18588 -0.384847 4.27512e-18)
(1.17773 -0.414908 -9.22804e-18)
(1.17444 -0.44095 -6.08951e-18)
(1.15511 -0.490721 -5.5451e-18)
(1.14712 -0.538533 -2.66911e-17)
(1.11041 -0.641798 -1.30849e-17)
(1.12276 -0.729512 -1.07976e-17)
(0.993056 -0.819658 8.17244e-19)
(0.668371 -0.394539 -3.81779e-19)
(1.24169 -0.212082 6.60989e-18)
(1.2366 -0.231684 8.04406e-18)
(1.22858 -0.239592 4.09965e-18)
(1.22165 -0.254859 6.04835e-18)
(1.21419 -0.266987 -3.08104e-18)
(1.20723 -0.282133 -5.33482e-18)
(1.20015 -0.296775 8.11339e-19)
(1.19314 -0.313619 -1.29914e-18)
(1.18583 -0.331963 -1.05773e-17)
(1.17832 -0.351873 -1.50641e-17)
(1.16991 -0.375924 3.92925e-18)
(1.16133 -0.400499 3.24327e-18)
(1.14959 -0.434241 -1.85221e-17)
(1.13867 -0.465242 -1.02099e-17)
(1.11808 -0.512534 -8.14508e-18)
(1.10026 -0.543325 -2.95572e-17)
(1.05286 -0.578237 -7.28801e-18)
(0.97084 -0.56356 -1.29841e-17)
(0.743928 -0.464221 -1.07412e-17)
(0.252944 -0.175403 5.38519e-18)
(1.23399 -0.20684 8.71668e-18)
(1.22844 -0.227142 1.05531e-17)
(1.22011 -0.235102 4.05972e-18)
(1.21249 -0.250876 7.66208e-18)
(1.20449 -0.263234 -1.34352e-17)
(1.19658 -0.278787 -7.1053e-18)
(1.18862 -0.293736 2.206e-18)
(1.18036 -0.310976 -1.57594e-18)
(1.1718 -0.329627 -1.35291e-17)
(1.16259 -0.349935 -1.94879e-17)
(1.15207 -0.374326 6.01474e-18)
(1.1406 -0.399194 5.32203e-18)
(1.12501 -0.433164 -2.37116e-17)
(1.10846 -0.463975 -8.31256e-18)
(1.0797 -0.514566 -8.91565e-18)
(1.05481 -0.554603 -2.85613e-17)
(1.00032 -0.640457 2.27474e-18)
(0.965681 -0.680413 -1.79393e-17)
(0.761748 -0.699209 -1.01843e-17)
(0.380712 -0.314353 5.56381e-18)
(1.2263 -0.201773 2.76841e-18)
(1.22014 -0.222942 1.26283e-17)
(1.21139 -0.231205 3.96364e-18)
(1.20295 -0.247764 1.39855e-18)
(1.19427 -0.260638 -1.45982e-17)
(1.18521 -0.276957 -7.95033e-18)
(1.17612 -0.292625 -8.80536e-18)
(1.16621 -0.310821 -1.11134e-18)
(1.15585 -0.330377 -3.27022e-18)
(1.1442 -0.351868 -2.54337e-17)
(1.1309 -0.377143 1.12965e-17)
(1.1151 -0.403515 4.55561e-18)
(1.09502 -0.437588 -1.71859e-17)
(1.071 -0.468968 9.45376e-18)
(1.03717 -0.51438 -9.7343e-18)
(1.00023 -0.545584 -4.22601e-17)
(0.94123 -0.591036 2.4878e-18)
(0.849842 -0.593371 -2.183e-17)
(0.66013 -0.532688 -1.39928e-17)
(0.237796 -0.225045 -1.06359e-18)
(1.21857 -0.196459 4.88057e-18)
(1.21182 -0.218318 1.60575e-17)
(1.20271 -0.226698 4.77036e-18)
(1.19345 -0.24378 -4.98026e-18)
(1.18411 -0.256894 -1.97173e-17)
(1.17393 -0.273607 -8.59058e-18)
(1.16373 -0.289584 -6.24555e-18)
(1.15221 -0.308146 -1.47292e-17)
(1.13997 -0.327987 -9.26627e-18)
(1.12581 -0.349785 -1.7281e-17)
(1.10959 -0.374981 1.08577e-18)
(1.08995 -0.401187 6.20774e-18)
(1.06541 -0.43425 -3.08695e-17)
(1.0357 -0.464423 8.13919e-18)
(0.995509 -0.50929 -1.61056e-17)
(0.953552 -0.540892 -5.34092e-17)
(0.885043 -0.604466 1.07307e-17)
(0.824401 -0.614545 -2.98055e-17)
(0.622286 -0.588814 -2.00196e-17)
(0.279313 -0.255456 -1.12571e-19)
(1.21088 -0.191149 3.38976e-18)
(1.2035 -0.21367 1.99476e-17)
(1.19402 -0.222196 6.16321e-18)
(1.18388 -0.239793 -2.04238e-18)
(1.17385 -0.253151 -1.06489e-17)
(1.16248 -0.27024 -2.40414e-17)
(1.15109 -0.286527 -8.51778e-18)
(1.13788 -0.305413 -1.32625e-17)
(1.12369 -0.325423 -6.59157e-18)
(1.10684 -0.347419 -8.82173e-18)
(1.08758 -0.372288 -1.1875e-17)
(1.06364 -0.398287 3.19827e-17)
(1.03507 -0.429511 -4.12196e-17)
(0.998496 -0.458362 2.04364e-17)
(0.954878 -0.497449 -2.25679e-17)
(0.901147 -0.523117 -3.76189e-17)
(0.833252 -0.566561 2.60381e-17)
(0.745066 -0.565313 -4.04827e-17)
(0.575527 -0.528721 -3.03515e-17)
(0.236438 -0.230401 3.1465e-18)
(1.20326 -0.185732 2.90799e-18)
(1.19521 -0.208795 1.33611e-17)
(1.18541 -0.217392 7.54595e-18)
(1.17441 -0.235364 -3.47095e-18)
(1.16373 -0.248828 -3.29041e-18)
(1.1512 -0.266082 -8.32326e-18)
(1.13863 -0.282464 9.45472e-18)
(1.1238 -0.301342 -1.647e-17)
(1.10768 -0.32116 -9.0057e-18)
(1.08837 -0.342838 5.75066e-18)
(1.06612 -0.366798 -1.07103e-17)
(1.03844 -0.391799 3.75647e-17)
(1.00577 -0.42054 -3.40183e-17)
(0.96406 -0.447282 -2.16833e-18)
(0.916262 -0.481854 4.90995e-18)
(0.856888 -0.504053 -1.12678e-17)
(0.787201 -0.546955 4.00548e-17)
(0.706807 -0.542431 1.33739e-17)
(0.544825 -0.520925 -4.34602e-17)
(0.24601 -0.235297 1.09363e-17)
(1.1957 -0.180289 3.12913e-18)
(1.18695 -0.203811 2.16608e-17)
(1.17687 -0.212462 9.3325e-18)
(1.16495 -0.230727 -3.79053e-18)
(1.15362 -0.244241 -8.25262e-18)
(1.13993 -0.261543 -1.99554e-17)
(1.12622 -0.277918 -1.37949e-17)
(1.10983 -0.296598 2.77566e-19)
(1.0919 -0.315998 -9.66748e-18)
(1.07028 -0.337019 -2.32094e-17)
(1.04523 -0.359705 -1.74158e-17)
(1.01406 -0.383213 2.42443e-17)
(0.977253 -0.408914 -2.62718e-17)
(0.930346 -0.433099 1.31214e-17)
(0.877748 -0.460943 -5.34618e-17)
(0.809994 -0.479139 -2.72435e-17)
(0.738806 -0.508447 5.21078e-17)
(0.645328 -0.500907 7.48958e-18)
(0.504326 -0.485159 2.0187e-17)
(0.229305 -0.224326 4.2858e-17)
(1.18809 -0.174794 1.70967e-18)
(1.17862 -0.198669 2.42516e-17)
(1.16828 -0.207324 1.05156e-17)
(1.15535 -0.225763 -5.24912e-18)
(1.14337 -0.239248 -7.67475e-18)
(1.12842 -0.256443 -2.08401e-17)
(1.11353 -0.272681 -4.75191e-18)
(1.09552 -0.290929 -4.51173e-18)
(1.07576 -0.30967 -1.44618e-17)
(1.05195 -0.329652 -1.72323e-17)
(1.0244 -0.350636 -1.66201e-17)
(0.990473 -0.371925 4.10035e-17)
(0.950674 -0.394045 -4.63293e-17)
(0.901392 -0.414339 1.66107e-17)
(0.846864 -0.43572 -5.16572e-17)
(0.778318 -0.448262 -2.2424e-17)
(0.708419 -0.469447 7.54393e-17)
(0.618474 -0.457779 9.76385e-18)
(0.495328 -0.450913 1.22464e-17)
(0.245577 -0.220053 9.20484e-17)
(1.18039 -0.169292 1.32466e-17)
(1.17034 -0.193397 4.53589e-17)
(1.15969 -0.201991 -2.51968e-18)
(1.14592 -0.22049 1.09185e-17)
(1.13323 -0.23387 -9.39761e-18)
(1.11713 -0.250812 -2.7653e-17)
(1.10103 -0.266792 -9.2194e-18)
(1.08138 -0.284393 -2.61708e-17)
(1.05961 -0.302283 -4.51115e-17)
(1.03328 -0.32097 2.94977e-18)
(1.00259 -0.340055 1.16072e-17)
(0.965043 -0.358976 5.53661e-17)
(0.920771 -0.377704 -2.60049e-17)
(0.866133 -0.394669 -1.83794e-17)
(0.80548 -0.409509 -8.60295e-17)
(0.728938 -0.418206 -2.31719e-17)
(0.653259 -0.426841 1.09596e-16)
(0.547623 -0.412984 1.11408e-17)
(0.431204 -0.398031 6.65792e-19)
(0.192137 -0.19603 1.28841e-17)
(1.31116 -0.258393 -6.67861e-20)
(1.30718 -0.275054 3.38262e-18)
(1.30289 -0.283105 6.49803e-19)
(1.30029 -0.297432 -1.68494e-18)
(1.29803 -0.309509 -3.24698e-18)
(1.2975 -0.324208 -1.62236e-19)
(1.29756 -0.338042 -2.58323e-18)
(1.2973 -0.351582 -3.57826e-18)
(1.29031 -0.360393 -1.3434e-18)
(1.26214 -0.358307 -7.81939e-18)
(1.18652 -0.335433 -3.08039e-18)
(1.03326 -0.286411 6.13631e-18)
(0.785124 -0.216459 -2.55758e-17)
(0.472066 -0.144028 2.62153e-17)
(0.181128 -0.0975777 -3.25167e-17)
(-0.00786847 -0.084901 -4.17217e-17)
(-0.0993262 -0.0889929 -4.08284e-18)
(-0.121788 -0.087991 -3.67294e-17)
(-0.0954985 -0.0836539 -1.08247e-17)
(-0.0375572 -0.036609 -6.13025e-19)
(1.30614 -0.255315 -5.32037e-19)
(1.3019 -0.272181 -7.89518e-19)
(1.29732 -0.280252 1.27663e-18)
(1.29424 -0.294576 -1.32503e-18)
(1.29155 -0.306786 5.94299e-19)
(1.29044 -0.321882 3.86356e-20)
(1.29037 -0.336912 3.70651e-18)
(1.2918 -0.353448 -4.20281e-18)
(1.29212 -0.368979 1.22167e-20)
(1.28314 -0.37946 1.63022e-18)
(1.2443 -0.374524 -7.96856e-18)
(1.1429 -0.341784 -3.31058e-18)
(0.944518 -0.276149 -1.61461e-17)
(0.647115 -0.189377 6.03195e-18)
(0.318128 -0.116401 1.5e-17)
(0.0692206 -0.0888116 -1.34485e-17)
(-0.0690377 -0.0968879 4.82004e-19)
(-0.116964 -0.10095 -1.99045e-17)
(-0.103781 -0.095469 -3.24494e-17)
(-0.0411064 -0.0396879 -1.80103e-18)
(1.30088 -0.252044 -3.33156e-19)
(1.2964 -0.269181 9.48031e-19)
(1.29144 -0.277458 1.53766e-18)
(1.28789 -0.291936 -1.99689e-18)
(1.2847 -0.304285 -1.69935e-18)
(1.28291 -0.319463 -9.98844e-19)
(1.28192 -0.334411 -2.27986e-18)
(1.28222 -0.350633 1.81394e-18)
(1.28197 -0.366147 -2.27215e-18)
(1.27645 -0.379034 -9.3325e-18)
(1.25218 -0.383007 -6.3691e-18)
(1.18436 -0.367934 -1.13894e-17)
(1.03731 -0.322668 -9.34844e-18)
(0.786068 -0.243753 2.9825e-18)
(0.456925 -0.15247 -1.17662e-17)
(0.158373 -0.0936006 -1.52885e-18)
(-0.0261985 -0.0952091 6.27873e-18)
(-0.108955 -0.10308 -1.03818e-17)
(-0.101631 -0.102004 -1.30205e-17)
(-0.0439582 -0.044228 5.55184e-18)
(1.29537 -0.248499 -6.22371e-19)
(1.29071 -0.265807 2.311e-20)
(1.2854 -0.274135 2.43619e-18)
(1.28143 -0.288637 -1.76676e-18)
(1.27774 -0.301073 -1.16836e-18)
(1.27542 -0.3165 -3.52982e-19)
(1.27396 -0.332208 -6.6655e-19)
(1.2745 -0.350118 4.27323e-20)
(1.27674 -0.368893 1.52399e-18)
(1.27885 -0.387337 -5.26133e-18)
(1.27179 -0.400071 -7.01274e-18)
(1.23546 -0.397314 -9.97452e-18)
(1.13543 -0.367535 -1.95572e-17)
(0.937388 -0.301199 6.99126e-18)
(0.633016 -0.205441 -1.3082e-17)
(0.295315 -0.112509 2.03279e-18)
(0.0393273 -0.0824126 1.00018e-17)
(-0.0816458 -0.0893303 -7.18143e-18)
(-0.105866 -0.0926241 -1.32104e-18)
(-0.0349051 -0.0380614 2.50156e-17)
(1.28962 -0.244732 2.93804e-18)
(1.28482 -0.262214 2.76087e-18)
(1.27913 -0.270615 7.4979e-19)
(1.27476 -0.285139 2.03732e-19)
(1.27053 -0.297549 -2.05165e-18)
(1.2675 -0.312796 -8.26759e-19)
(1.26488 -0.328135 -1.9475e-18)
(1.2635 -0.345499 -2.98349e-18)
(1.26319 -0.364019 -2.68307e-18)
(1.26421 -0.384111 -2.81219e-19)
(1.26321 -0.403675 -6.1953e-18)
(1.24928 -0.41537 -8.17967e-18)
(1.19486 -0.406712 -1.23351e-17)
(1.06132 -0.36105 -1.51836e-17)
(0.813888 -0.27486 -1.95417e-17)
(0.475846 -0.160679 4.99314e-18)
(0.153416 -0.089084 1.91261e-17)
(-0.050878 -0.0708191 -8.26096e-18)
(-0.098064 -0.0908627 -6.64736e-18)
(-0.052965 -0.0495239 4.9068e-18)
(1.28364 -0.2407 1.78026e-18)
(1.27875 -0.258301 5.36096e-19)
(1.2727 -0.2667 2.04081e-18)
(1.26798 -0.281202 -1.46219e-19)
(1.26326 -0.293594 -2.21028e-18)
(1.25973 -0.30888 -5.53711e-19)
(1.25668 -0.32446 -1.22428e-18)
(1.25501 -0.342379 -1.80375e-18)
(1.25456 -0.361772 -2.1051e-18)
(1.25602 -0.383018 -1.17866e-18)
(1.25795 -0.405517 -5.84982e-18)
(1.25563 -0.425247 -8.40052e-18)
(1.23176 -0.434309 -3.05585e-18)
(1.15533 -0.413799 -6.07497e-18)
(0.980552 -0.350738 -5.59872e-18)
(0.689665 -0.237583 -7.70507e-19)
(0.32736 -0.118627 -3.52384e-17)
(0.0457799 -0.0550191 -1.99229e-17)
(-0.0979268 -0.0550683 -3.94567e-17)
(-0.0314734 -0.0229943 -2.75255e-18)
(1.27744 -0.236425 3.03185e-18)
(1.27254 -0.254133 1.55326e-18)
(1.26613 -0.26249 2.29033e-18)
(1.2611 -0.276924 7.30769e-19)
(1.25585 -0.289146 -2.9416e-18)
(1.25168 -0.304142 -8.35678e-19)
(1.24761 -0.319239 -1.61194e-18)
(1.24441 -0.336501 -2.19408e-18)
(1.2417 -0.355433 -3.1807e-18)
(1.24068 -0.376873 -1.4491e-18)
(1.24155 -0.401451 -6.27988e-19)
(1.24416 -0.426931 -5.14499e-18)
(1.23976 -0.450204 -9.38207e-18)
(1.20899 -0.454696 -1.11358e-17)
(1.10853 -0.425026 -1.63319e-17)
(0.899004 -0.336204 -1.76605e-17)
(0.565535 -0.212535 -6.29235e-18)
(0.191453 -0.0795283 -2.4262e-17)
(-0.0384789 -0.0816039 -1.03912e-17)
(-0.0934394 -0.0640596 -1.81659e-19)
(1.27103 -0.231892 3.37508e-18)
(1.26624 -0.249695 1.55873e-18)
(1.25952 -0.257941 3.0936e-18)
(1.25426 -0.272297 1.57559e-18)
(1.24859 -0.284356 -3.49236e-18)
(1.244 -0.2992 -9.17419e-19)
(1.23943 -0.314137 -1.38884e-18)
(1.23576 -0.331165 -2.01372e-18)
(1.23242 -0.349708 -3.848e-18)
(1.23002 -0.370385 -2.43728e-18)
(1.22831 -0.394552 2.48146e-19)
(1.22912 -0.421042 -4.49409e-18)
(1.22997 -0.452039 -5.76059e-18)
(1.22537 -0.475578 -7.6878e-18)
(1.18445 -0.481231 -1.35478e-17)
(1.06892 -0.431719 -1.81764e-17)
(0.819257 -0.322611 -1.37395e-17)
(0.460709 -0.158979 -3.74532e-17)
(0.0619046 -0.0133997 -4.36073e-20)
(-0.00566851 0.0273726 9.83235e-18)
(1.26429 -0.227126 4.39249e-18)
(1.25974 -0.245058 3.09248e-18)
(1.25274 -0.253098 3.8201e-18)
(1.24731 -0.267323 3.06916e-18)
(1.24119 -0.279069 -1.38113e-18)
(1.23611 -0.293518 -1.26342e-18)
(1.23069 -0.307902 -1.57968e-18)
(1.22591 -0.324305 -1.91866e-18)
(1.22119 -0.342218 -7.42696e-18)
(1.2172 -0.361985 -3.91789e-18)
(1.21325 -0.385486 1.56701e-18)
(1.21114 -0.410962 -4.45614e-18)
(1.20964 -0.444162 -7.48179e-18)
(1.21268 -0.477291 -7.50921e-18)
(1.20443 -0.513388 -1.23406e-17)
(1.16845 -0.516646 -2.14364e-17)
(1.03313 -0.476091 -9.98749e-18)
(0.755727 -0.340806 3.32313e-18)
(0.335882 -0.226975 4.62016e-18)
(-0.0932917 -0.0981552 1.44464e-17)
(1.25701 -0.222113 5.20509e-18)
(1.25267 -0.240252 2.93048e-18)
(1.24534 -0.247963 4.59147e-18)
(1.23966 -0.262059 4.3399e-18)
(1.23316 -0.273495 -2.37424e-18)
(1.22776 -0.287594 -1.34745e-18)
(1.22192 -0.301456 -1.63154e-18)
(1.21663 -0.317211 -1.8552e-19)
(1.2111 -0.334348 -7.63097e-18)
(1.20613 -0.35277 -7.473e-18)
(1.20047 -0.374914 3.08614e-18)
(1.19611 -0.39773 -1.94348e-18)
(1.18972 -0.429164 -7.30771e-18)
(1.18842 -0.459869 -4.54131e-18)
(1.18194 -0.505418 -8.11198e-18)
(1.18766 -0.536459 -1.57772e-17)
(1.14822 -0.551112 -7.91769e-18)
(1.0656 -0.472771 -1.23744e-17)
(0.717396 -0.246715 -1.23048e-18)
(0.397528 -0.00318095 5.47251e-17)
(1.15538 -0.151645 -4.52531e-18)
(1.14426 -0.176008 1.46425e-17)
(1.13251 -0.184311 6.02411e-18)
(1.11808 -0.202686 2.4473e-18)
(1.10366 -0.215451 -1.70454e-17)
(1.0868 -0.231198 -4.69632e-17)
(1.06903 -0.245819 -4.53279e-18)
(1.0485 -0.26051 -1.50686e-17)
(1.02559 -0.274627 -5.25714e-17)
(0.999027 -0.287653 -7.63647e-18)
(0.968533 -0.29912 -1.58092e-17)
(0.932844 -0.30812 -1.89163e-17)
(0.891485 -0.313014 2.17334e-17)
(0.842501 -0.31272 1.96527e-17)
(0.786472 -0.305511 3.33571e-17)
(0.722667 -0.290335 -9.09625e-18)
(0.653842 -0.264275 -3.43159e-17)
(0.576027 -0.227478 -3.29774e-18)
(0.509733 -0.169928 5.11014e-18)
(0.39106 -0.0841357 1.94084e-17)
(1.12153 -0.117274 -8.23001e-19)
(1.11227 -0.136089 -4.45443e-18)
(1.10175 -0.141613 5.70879e-18)
(1.08944 -0.154439 3.90803e-17)
(1.07614 -0.162727 -4.83965e-18)
(1.0617 -0.172554 -1.48162e-17)
(1.04587 -0.181223 -1.55708e-17)
(1.02884 -0.189521 -1.79612e-17)
(1.01036 -0.197192 -1.95615e-17)
(0.990603 -0.204042 -7.52077e-18)
(0.969439 -0.209534 -1.60926e-18)
(0.946953 -0.213163 -3.84334e-19)
(0.923021 -0.214282 -9.21869e-18)
(0.897796 -0.211703 9.82575e-19)
(0.870836 -0.204138 9.62785e-18)
(0.842264 -0.18982 -2.17907e-18)
(0.812655 -0.168516 2.10843e-18)
(0.78342 -0.134219 -3.85609e-18)
(0.758233 -0.0949552 5.11549e-18)
(0.747569 -0.0359696 4.96329e-18)
(1.09177 -0.0959091 -3.64357e-18)
(1.0833 -0.112289 -3.63511e-18)
(1.07379 -0.116988 -1.02461e-17)
(1.06245 -0.127719 -2.18916e-17)
(1.05036 -0.133936 -2.21984e-17)
(1.03701 -0.140815 -7.24335e-17)
(1.02252 -0.146016 -3.53141e-17)
(1.00657 -0.150058 -4.81152e-17)
(0.989099 -0.152592 -1.00275e-16)
(0.969876 -0.153383 -3.52108e-17)
(0.948924 -0.15224 -2.15333e-17)
(0.926333 -0.148899 -8.3086e-18)
(0.902477 -0.143097 -1.5412e-17)
(0.877906 -0.134665 1.05916e-17)
(0.853592 -0.123293 6.06241e-17)
(0.830452 -0.108933 -1.92006e-17)
(0.809403 -0.0906584 -1.07539e-17)
(0.79065 -0.069335 -1.95775e-17)
(0.776113 -0.0431107 1.2443e-17)
(0.762048 -0.0147255 1.04995e-16)
(1.06941 -0.0689523 -8.22776e-18)
(1.06273 -0.0812309 -5.40452e-18)
(1.05537 -0.0845486 -9.1169e-18)
(1.04657 -0.092329 -8.60214e-18)
(1.03731 -0.0968066 -1.04219e-17)
(1.02752 -0.10187 -1.85259e-17)
(1.01737 -0.105781 -7.40877e-17)
(1.00703 -0.108907 -7.05155e-17)
(0.996576 -0.11104 -8.36281e-17)
(0.986157 -0.111988 -8.216e-17)
(0.975805 -0.11152 -6.20769e-17)
(0.96553 -0.109381 -1.1515e-17)
(0.955262 -0.105297 -6.72084e-17)
(0.944941 -0.0989719 -1.46432e-17)
(0.934536 -0.0902346 -7.81716e-17)
(0.924318 -0.0788756 -7.47493e-17)
(0.914777 -0.0651836 -1.39027e-17)
(0.90706 -0.0488303 -7.94812e-17)
(0.90183 -0.0308918 -1.64506e-17)
(0.900737 -0.0107617 -8.17608e-17)
(1.05119 -0.0557679 -2.19629e-17)
(1.04568 -0.0652432 -1.15921e-17)
(1.03951 -0.0675298 -2.83237e-17)
(1.03201 -0.0730779 -3.72536e-17)
(1.02399 -0.075741 -3.48553e-17)
(1.01522 -0.0784942 -6.46453e-17)
(1.00573 -0.0800376 5.73791e-18)
(0.995498 -0.0806757 3.27773e-17)
(0.984537 -0.0803055 -4.10038e-17)
(0.972914 -0.0788811 1.1519e-17)
(0.960802 -0.076383 4.64471e-17)
(0.94847 -0.0727959 2.57331e-17)
(0.936295 -0.0681097 5.26072e-17)
(0.924704 -0.062328 4.11578e-17)
(0.914133 -0.0554121 1.39647e-16)
(0.904865 -0.0474002 6.80824e-17)
(0.89707 -0.0381989 3.01299e-17)
(0.890613 -0.0280768 5.69931e-17)
(0.885685 -0.0170122 3.9562e-17)
(0.882236 -0.00563639 1.43755e-16)
(1.03797 -0.0384218 -6.01926e-17)
(1.03391 -0.0457436 -1.72872e-17)
(1.02957 -0.0476914 -7.19752e-17)
(1.02437 -0.0522033 -8.99661e-17)
(1.01906 -0.0546304 -6.50318e-17)
(1.01359 -0.0572119 -4.87844e-18)
(1.00814 -0.0589711 -4.92896e-17)
(1.00281 -0.0601137 6.95641e-17)
(0.997684 -0.0605214 4.80651e-18)