/*--------------------------------*- C++ -*----------------------------------*\
  =========                 |
  \\      /  F ield         | OpenFOAM: The Open Source CFD Toolbox
   \\    /   O peration     | Website:  https://openfoam.org
    \\  /    A nd           | Version:  7
     \\/     M anipulation  |
\*---------------------------------------------------------------------------*/
FoamFile
{
    version     2.0;
    format      ascii;
    class       volScalarField;
    location    "20";
    object      p;
}
// * * * * * * * * * * * * * * * * * * * * * * * * * * * * * * * * * * * * * //

dimensions      [0 2 -2 0 0 0 0];

internalField   nonuniform List<scalar> 
50
(
-0.252791
-0.25124
-0.340223
-0.482334
-0.198417
-0.235406
-0.225923
-0.33369
-0.35284
-0.180941
-0.212344
-0.183946
-0.271634
-0.120169
-0.161268
-0.182721
-0.141166
-0.197297
-0.0214172
-0.13908
-0.148383
-0.0919838
-0.12065
0.096261
-0.115504
-0.112165
-0.0422323
-0.0457672
0.176165
-0.0908115
-0.0759836
0.00815972
0.0263838
0.253693
-0.0643645
-0.0384154
0.0556903
0.0926288
0.315656
-0.0354186
0.00391488
0.105237
0.153086
0.368562
-0.0634197
-0.0137384
0.0380577
0.146835
0.225427
0.439666
)
;

boundaryField
{
    inlet
    {
        type            zeroGradient;
    }
    outlet
    {
        type            fixedValue;
        value           nonuniform 0();
    }
    polygon
    {
        type            zeroGradient;
    }
    top
    {
        type            symmetryPlane;
    }
    bottom
    {
        type            symmetryPlane;
    }
    outside
    {
        type            slip;
    }
    procBoundary5to0
    {
        type            processor;
        value           uniform -0.00730284;
    }
    procBoundary5to1
    {
        type            processor;
        value           nonuniform List<scalar> 
12
(
-0.212435
-0.212435
-0.204094
-0.190453
-0.174911
-0.158079
-0.140572
-0.122459
-0.102762
-0.0811512
-0.0811512
-0.086637
)
;
    }
    procBoundary5to4
    {
        type            processor;
        value           nonuniform List<scalar> 5(0.0281398 0.0741944 0.137236 0.212768 0.30267);
    }
    procBoundary5to6
    {
        type            processor;
        value           nonuniform List<scalar> 4(-0.259374 -0.280609 -0.324784 -0.912093);
    }
}


// ************************************************************************* //
