/*--------------------------------*- C++ -*----------------------------------*\
  =========                 |
  \\      /  F ield         | OpenFOAM: The Open Source CFD Toolbox
   \\    /   O peration     | Website:  https://openfoam.org
    \\  /    A nd           | Version:  7
     \\/     M anipulation  |
\*---------------------------------------------------------------------------*/
FoamFile
{
    version     2.0;
    format      ascii;
    class       volVectorField;
    location    "20";
    object      U;
}
// * * * * * * * * * * * * * * * * * * * * * * * * * * * * * * * * * * * * * //

dimensions      [0 1 -1 0 0 0 0];

internalField   nonuniform List<vector> 
50
(
(1.18445 -0.342123 -1.44896e-17)
(1.22612 -0.34946 1.19872e-18)
(1.20878 -0.580272 1.86658e-17)
(1.22396 -0.443028 -2.08597e-18)
(1.17577 -0.284329 -1.53566e-18)
(1.16983 -0.362261 -1.12956e-17)
(1.18447 -0.391578 -9.61983e-18)
(1.1271 -0.575846 1.85586e-17)
(0.858296 -0.407479 -5.82135e-18)
(1.16015 -0.28744 3.40529e-19)
(1.14794 -0.367263 -1.67629e-17)
(1.14499 -0.402365 -5.50485e-18)
(1.0832 -0.623445 2.54681e-17)
(0.842919 -0.465705 -6.85946e-18)
(1.13977 -0.296341 -1.78801e-18)
(1.12316 -0.375305 1.01787e-17)
(1.0951 -0.423057 -8.12501e-18)
(1.0086 -0.603176 -1.00397e-17)
(0.663701 -0.435485 -1.10545e-17)
(1.11932 -0.299311 -2.03421e-18)
(1.09314 -0.376647 -9.55476e-19)
(1.04774 -0.426252 8.65698e-18)
(0.946673 -0.60453 8.52862e-18)
(0.628 -0.439762 -2.05243e-17)
(1.09702 -0.301718 1.40879e-17)
(1.06252 -0.37544 5.05192e-18)
(0.996536 -0.428508 2.94845e-18)
(0.88718 -0.576897 1.45556e-18)
(0.544558 -0.415994 -1.02587e-17)
(1.07473 -0.300543 -5.51965e-18)
(1.03194 -0.369567 -1.28611e-17)
(0.948165 -0.421274 6.25275e-18)
(0.831981 -0.553634 6.00116e-18)
(0.501812 -0.396909 1.88445e-17)
(1.05106 -0.297448 2.48456e-18)
(1.00135 -0.360152 3.6251e-18)
(0.901577 -0.409694 9.62557e-18)
(0.782666 -0.518488 6.36385e-18)
(0.455076 -0.369657 -3.83232e-17)
(1.02566 -0.29162 -7.70297e-19)
(0.966624 -0.347451 -3.81252e-18)
(0.855198 -0.392645 1.23528e-17)
(0.738857 -0.481603 8.31219e-18)
(0.425322 -0.340039 -5.4885e-17)
(1.06111 -0.243906 1.66854e-18)
(1.00535 -0.282935 3.56947e-19)
(0.936797 -0.331377 -1.37971e-18)
(0.81294 -0.372871 9.76741e-19)
(0.681799 -0.440762 -1.5211e-17)
(0.3639 -0.306357 -6.81196e-18)
)
;

boundaryField
{
    inlet
    {
        type            uniformFixedValue;
        uniformValue    constant (1 0 0);
        value           nonuniform 0();
    }
    outlet
    {
        type            pressureInletOutletVelocity;
        value           nonuniform 0();
    }
    polygon
    {
        type            fixedValue;
        value           uniform (0 0 0);
    }
    top
    {
        type            symmetryPlane;
    }
    bottom
    {
        type            symmetryPlane;
    }
    outside
    {
        type            zeroGradient;
    }
    procBoundary5to0
    {
        type            processor;
        value           uniform (1.01328 -0.201896 3.32418e-18);
    }
    procBoundary5to1
    {
        type            processor;
        value           nonuniform List<vector> 
12
(
(1.19377 -0.266553 4.4931e-18)
(1.19377 -0.266553 4.4931e-18)
(1.18004 -0.25755 -6.7811e-18)
(1.16841 -0.258113 2.18805e-17)
(1.15519 -0.260593 1.66717e-17)
(1.14082 -0.260792 2.47444e-17)
(1.12595 -0.260431 5.67998e-18)
(1.11071 -0.258426 -8.54502e-19)
(1.09443 -0.255186 1.94316e-18)
(1.07655 -0.250375 1.14654e-18)
(1.07655 -0.250375 1.14654e-18)
(1.09132 -0.214227 -4.26527e-18)
)
;
    }
    procBoundary5to4
    {
        type            processor;
        value           nonuniform List<vector> 5((0.968944 -0.22153 -3.27499e-18) (0.914219 -0.221975 -1.32569e-17) (0.831028 -0.215116 3.90777e-17) (0.747454 -0.16634 -9.53975e-18) (0.57542 -0.10145 -8.30447e-17));
    }
    procBoundary5to6
    {
        type            processor;
        value           nonuniform List<vector> 4((1.1929 -0.346519 -1.04003e-19) (1.2344 -0.360634 -2.13128e-17) (1.12732 -0.42797 8.23196e-18) (1.1031 -0.275657 -6.6373e-19));
    }
}


// ************************************************************************* //
