/*--------------------------------*- C++ -*----------------------------------*\
  =========                 |
  \\      /  F ield         | OpenFOAM: The Open Source CFD Toolbox
   \\    /   O peration     | Website:  https://openfoam.org
    \\  /    A nd           | Version:  7
     \\/     M anipulation  |
\*---------------------------------------------------------------------------*/
FoamFile
{
    version     2.0;
    format      ascii;
    class       volScalarField;
    location    "118";
    object      p;
}
// * * * * * * * * * * * * * * * * * * * * * * * * * * * * * * * * * * * * * //

dimensions      [0 2 -2 0 0 0 0];

internalField   nonuniform List<scalar> 
7360
(
-0.000762493
-0.00230509
-0.00387385
-0.00548816
-0.0071251
-0.00876173
-0.0103769
-0.0119504
-0.0134656
-0.0149092
-0.0162714
-0.0175459
-0.0187263
-0.0198109
-0.0208
-0.0216948
-0.0224978
-0.0232125
-0.0238431
-0.0243945
-0.0248722
-0.025282
-0.02563
-0.0259224
-0.0261657
-0.0263664
-0.026531
-0.0266661
-0.0267778
-0.0268725
-0.026956
-0.0270339
-0.0271115
-0.0271937
-0.0272849
-0.0273892
-0.0275101
-0.0276509
-0.0278142
-0.0280025
-0.0282177
-0.0284615
-0.0287352
-0.0290398
-0.0293763
-0.0297453
-0.030147
-0.0305819
-0.0310501
-0.0315515
-0.0320846
-0.0326501
-0.0332479
-0.0338784
-0.0345454
-0.0352432
-0.0359704
-0.0367277
-0.0375155
-0.0383349
-0.0391841
-0.0400624
-0.04097
-0.0419083
-0.0428763
-0.0438709
-0.0448913
-0.0459403
-0.0470166
-0.04812
-0.0492498
-0.0504056
-0.0515866
-0.0527919
-0.0540201
-0.0552695
-0.056538
-0.057823
-0.0591214
-0.0604287
-0.0617402
-0.0630495
-0.0643487
-0.0656285
-0.0668773
-0.0680811
-0.0692233
-0.0702816
-0.0712341
-0.0720422
-0.0726883
-0.0730822
-0.0732859
-0.0729875
-0.0727331
-0.0711895
-0.0709153
-0.0676442
-0.0680442
-0.0640797
-0.000766185
-0.00231133
-0.00388172
-0.00549397
-0.0071276
-0.00876053
-0.010372
-0.0119422
-0.0134545
-0.0148953
-0.0162549
-0.0175257
-0.0187038
-0.0197867
-0.020774
-0.021667
-0.0224683
-0.0231814
-0.0238107
-0.0243611
-0.0248381
-0.0252476
-0.0255956
-0.0258887
-0.0261331
-0.0263354
-0.0265021
-0.0266396
-0.0267543
-0.0268522
-0.0269392
-0.0270209
-0.0271025
-0.0271887
-0.0272838
-0.027392
-0.0275166
-0.0276608
-0.0278272
-0.0280182
-0.0282357
-0.0284813
-0.0287562
-0.0290615
-0.0293979
-0.0297662
-0.0301666
-0.0305995
-0.0310648
-0.0315626
-0.0320937
-0.0326576
-0.0332536
-0.0338819
-0.0345409
-0.0352313
-0.0359531
-0.0367061
-0.0374896
-0.0383036
-0.0391476
-0.0400216
-0.0409255
-0.0418587
-0.0428203
-0.0438172
-0.0448386
-0.045888
-0.0469654
-0.0480702
-0.0492018
-0.05036
-0.0515437
-0.0527517
-0.0539824
-0.0552343
-0.0565054
-0.0577928
-0.0590927
-0.0604019
-0.0617128
-0.0630202
-0.0643171
-0.0655939
-0.0668392
-0.068038
-0.0691748
-0.0702272
-0.071173
-0.0719737
-0.0726115
-0.0729956
-0.0731856
-0.0728679
-0.0725607
-0.0710128
-0.0705816
-0.0673799
-0.0675572
-0.0634229
-0.000744811
-0.00228157
-0.00384638
-0.00547498
-0.00713081
-0.00878703
-0.0104207
-0.0120103
-0.013539
-0.0149937
-0.0163651
-0.0176458
-0.0188315
-0.0199206
-0.0209131
-0.0218104
-0.022615
-0.0233305
-0.023961
-0.0245116
-0.0249876
-0.0253946
-0.0257389
-0.0260266
-0.0262643
-0.0264584
-0.0266155
-0.0267422
-0.0268451
-0.0269303
-0.027004
-0.0270721
-0.0271398
-0.0272123
-0.0272942
-0.0273898
-0.0275027
-0.0276363
-0.0277935
-0.0279767
-0.0281881
-0.0284293
-0.0287018
-0.0290066
-0.0293447
-0.0297165
-0.0301226
-0.030563
-0.0310379
-0.0315472
-0.0320904
-0.0326674
-0.0332776
-0.033921
-0.0345993
-0.0353102
-0.0360486
-0.0368152
-0.0376108
-0.0384463
-0.0393086
-0.0401976
-0.0411139
-0.0420651
-0.0430424
-0.044039
-0.0450649
-0.0461178
-0.0471969
-0.0483018
-0.0494324
-0.0505882
-0.0517687
-0.0529732
-0.0542006
-0.0554494
-0.056718
-0.058004
-0.0593042
-0.0606147
-0.0619306
-0.0632457
-0.0645524
-0.0658415
-0.0671014
-0.0683181
-0.0694751
-0.0705509
-0.0715232
-0.0723557
-0.0730303
-0.0734612
-0.0737244
-0.0734863
-0.0734276
-0.0718632
-0.0723336
-0.068676
-0.0707292
-0.0680229
-0.000755664
-0.00229526
-0.00386218
-0.00548198
-0.00712641
-0.00877088
-0.0103935
-0.0119736
-0.0134942
-0.0149421
-0.0163073
-0.017585
-0.018768
-0.019855
-0.020846
-0.0217424
-0.0225466
-0.023262
-0.0238931
-0.0244446
-0.024922
-0.025331
-0.0256777
-0.0259684
-0.0262095
-0.0264075
-0.026569
-0.0267005
-0.0268083
-0.0268988
-0.0269778
-0.0270512
-0.0271243
-0.027202
-0.0272888
-0.027389
-0.0275061
-0.0276435
-0.0278038
-0.0279897
-0.028203
-0.0284456
-0.0287187
-0.0290234
-0.0293607
-0.0297311
-0.030135
-0.0305726
-0.0310439
-0.031549
-0.0320878
-0.0326606
-0.033267
-0.0339057
-0.0345713
-0.0352693
-0.0360027
-0.0367689
-0.0375645
-0.0383876
-0.0392402
-0.0401229
-0.0410349
-0.0419737
-0.0429388
-0.0439363
-0.0449611
-0.0460119
-0.0470895
-0.0481935
-0.0493234
-0.050479
-0.0516593
-0.0528637
-0.0540907
-0.0553391
-0.0566068
-0.0578912
-0.0591892
-0.0604966
-0.0618084
-0.0631182
-0.0644186
-0.0657002
-0.0669516
-0.0681586
-0.0693049
-0.0703687
-0.0713282
-0.0721459
-0.0728054
-0.0732172
-0.0734501
-0.0731642
-0.0729694
-0.0714043
-0.071422
-0.0680431
-0.0691735
-0.0664269
-0.000707171
-0.00224577
-0.0038059
-0.00546269
-0.00715132
-0.00883994
-0.010503
-0.0121177
-0.0136669
-0.0151379
-0.0165222
-0.0178104
-0.0190022
-0.020095
-0.0210897
-0.0219876
-0.0227915
-0.0235049
-0.0241324
-0.0246787
-0.0251493
-0.0255501
-0.0258869
-0.0261663
-0.0263946
-0.0265785
-0.0267247
-0.0268399
-0.0269309
-0.027004
-0.0270656
-0.0271217
-0.0271779
-0.0272394
-0.0273112
-0.0273975
-0.0275022
-0.0276289
-0.0277805
-0.0279595
-0.0281682
-0.0284083
-0.0286813
-0.0289884
-0.0293303
-0.0297077
-0.0301209
-0.03057
-0.0310551
-0.0315759
-0.0321322
-0.0327234
-0.0333491
-0.0340086
-0.0347016
-0.0354273
-0.036184
-0.036971
-0.0377883
-0.0386368
-0.0395137
-0.0404169
-0.041346
-0.0423026
-0.0432871
-0.044296
-0.0453311
-0.0463916
-0.0474774
-0.0485882
-0.049724
-0.0508846
-0.0520695
-0.0532783
-0.0545102
-0.0557639
-0.0570379
-0.05833
-0.0596372
-0.0609557
-0.0622808
-0.0636062
-0.0649244
-0.066226
-0.0674997
-0.0687316
-0.0699053
-0.0710002
-0.0719944
-0.0728552
-0.0735633
-0.0740429
-0.0743631
-0.0742066
-0.0743732
-0.0727986
-0.0744082
-0.0699707
-0.0758583
-0.0736529
-0.000729169
-0.0022653
-0.00382781
-0.0054689
-0.00713961
-0.00881065
-0.0104578
-0.0120589
-0.0135967
-0.0150582
-0.0164338
-0.0177186
-0.0189084
-0.0199998
-0.0209938
-0.0218917
-0.0226963
-0.0234111
-0.0240405
-0.0245894
-0.0250631
-0.0254675
-0.0258085
-0.0260925
-0.0263259
-0.0265154
-0.0266675
-0.0267889
-0.0268861
-0.0269656
-0.0270336
-0.0270959
-0.027158
-0.0272252
-0.0273022
-0.0273933
-0.0275022
-0.0276325
-0.027787
-0.0279682
-0.0281784
-0.0284193
-0.0286922
-0.0289984
-0.0293385
-0.0297133
-0.0301231
-0.0305679
-0.0310479
-0.0315628
-0.0321123
-0.0326962
-0.0333139
-0.0339647
-0.0346473
-0.0353618
-0.0361095
-0.0368896
-0.0377024
-0.0385349
-0.0393989
-0.0402943
-0.0412193
-0.0421657
-0.0431406
-0.0441437
-0.0451736
-0.0462303
-0.0473128
-0.0484208
-0.049554
-0.0507121
-0.0518947
-0.053101
-0.0543302
-0.0555809
-0.0568515
-0.0581396
-0.0594422
-0.0607553
-0.0620741
-0.0633923
-0.0647024
-0.0659949
-0.0672586
-0.0684792
-0.0696404
-0.0707212
-0.0717
-0.0725426
-0.0732332
-0.0736912
-0.0739922
-0.0737702
-0.0737846
-0.0722036
-0.0731899
-0.0692618
-0.0730926
-0.0720462
-0.0006406
-0.00220504
-0.00376238
-0.00546013
-0.0071916
-0.00891988
-0.0106179
-0.0122615
-0.0138338
-0.0153226
-0.0167196
-0.0180154
-0.019212
-0.0203077
-0.0213028
-0.0221992
-0.0229998
-0.0237086
-0.02433
-0.0248692
-0.0253316
-0.025723
-0.0260497
-0.0263179
-0.0265343
-0.0267057
-0.0268388
-0.0269407
-0.027018
-0.0270777
-0.0271261
-0.0271696
-0.0272139
-0.0272647
-0.0273269
-0.0274051
-0.0275034
-0.0276253
-0.027774
-0.027952
-0.0281616
-0.0284046
-0.0286824
-0.0289961
-0.0293465
-0.0297341
-0.0301592
-0.0306218
-0.0311218
-0.0316587
-0.0322321
-0.0328414
-0.0334858
-0.0341645
-0.0348767
-0.0356215
-0.0363977
-0.0372045
-0.0380409
-0.0389058
-0.0397987
-0.0407183
-0.041664
-0.0426354
-0.0436328
-0.0446551
-0.0457023
-0.0467743
-0.0478709
-0.048992
-0.0501376
-0.0513075
-0.0525017
-0.0537195
-0.0549604
-0.0562233
-0.0575065
-0.0588079
-0.0601242
-0.0614516
-0.0627849
-0.0641174
-0.0654411
-0.0667461
-0.0680201
-0.0692487
-0.0704146
-0.0714972
-0.0724741
-0.0733164
-0.0740037
-0.0744897
-0.0748165
-0.0747137
-0.0749457
-0.0735954
-0.0762488
-0.0717026
-0.0845983
-0.0788028
-0.000677751
-0.00222742
-0.00378439
-0.00546086
-0.00716955
-0.00887694
-0.0105565
-0.0121844
-0.0137437
-0.0152215
-0.0166088
-0.0179013
-0.0190988
-0.0201946
-0.0211906
-0.0220887
-0.0228918
-0.0236036
-0.0242287
-0.0247721
-0.0252391
-0.0256357
-0.0259679
-0.0262421
-0.0264649
-0.0266429
-0.0267829
-0.0268918
-0.0269763
-0.027043
-0.0270984
-0.0271486
-0.0271993
-0.0272559
-0.0273233
-0.027406
-0.0275079
-0.0276324
-0.0277826
-0.0279611
-0.0281701
-0.0284113
-0.0286861
-0.0289957
-0.0293408
-0.0297221
-0.0301397
-0.0305937
-0.0310842
-0.0316107
-0.0321728
-0.0327702
-0.0334021
-0.0340678
-0.0347665
-0.0354976
-0.0362605
-0.0370544
-0.0378787
-0.0387306
-0.0396115
-0.0405209
-0.0414581
-0.042421
-0.0434099
-0.0444247
-0.0454654
-0.0465318
-0.0476232
-0.0487394
-0.0498804
-0.051046
-0.052236
-0.0534499
-0.054687
-0.0559463
-0.0572262
-0.0585246
-0.0598386
-0.0611643
-0.0624967
-0.0638297
-0.0651554
-0.0664642
-0.0677443
-0.0689813
-0.0701582
-0.0712538
-0.0722453
-0.0731003
-0.0737961
-0.0742684
-0.0745884
-0.0744456
-0.0746302
-0.0730998
-0.0752506
-0.0704851
-0.0799519
-0.0778243
0.0320231
0.035545
0.0361384
0.0364007
0.035265
0.0330556
0.0295026
0.024523
0.0179163
0.00947925
-0.001016
-0.0138816
-0.0296158
-0.0479932
-0.0689111
-0.0952129
-0.125595
-0.140503
-0.160199
-0.138713
0.0274604
0.0307507
0.0311653
0.0312031
0.0298407
0.0273755
0.0235427
0.0182608
0.0113325
0.00254622
-0.00836259
-0.0217873
-0.0384235
-0.058188
-0.080032
-0.105498
-0.132985
-0.143792
-0.1455
-0.10694
0.0430631
0.0469138
0.0479419
0.0486344
0.0479709
0.0462497
0.0432207
0.0387803
0.0327193
0.0248082
0.0147285
0.00204254
-0.0137975
-0.0330477
-0.0571656
-0.0878021
-0.123097
-0.152685
-0.178961
-0.191632
0.037219
0.0409062
0.0417172
0.0421883
0.0412817
0.0393094
0.0360095
0.0312873
0.024931
0.0167093
0.0063175
-0.00668475
-0.0228159
-0.0418247
-0.064044
-0.0912439
-0.120574
-0.136776
-0.160522
-0.158071
0.0564588
0.0607023
0.0621554
0.0633022
0.0631584
0.0619668
0.0595055
0.0556518
0.050194
0.0428785
0.0333279
0.0210931
0.00547749
-0.0142162
-0.0397153
-0.0718456
-0.114367
-0.161382
-0.19696
-0.23974
0.0494715
0.0534994
0.0547443
0.0556565
0.0552453
0.0537775
0.0510191
0.0468533
0.0410665
0.0334092
0.0235198
0.0109572
-0.00482791
-0.0242236
-0.0486251
-0.0785706
-0.115068
-0.152066
-0.176007
-0.200786
0.071848
0.0766521
0.0785366
0.0801671
0.0806019
0.0800063
0.0781781
0.0749864
0.0702145
0.0635959
0.0547247
0.0431375
0.027981
0.00858282
-0.0171698
-0.0503376
-0.0968193
-0.150519
-0.212465
-0.266724
0.0639149
0.0684158
0.0700854
0.071454
0.0715956
0.0706887
0.0685315
0.0649927
0.0598574
0.0528609
0.0436117
0.0316609
0.0162654
-0.0032365
-0.0285457
-0.0606659
-0.104383
-0.153187
-0.196367
-0.236422
0.0887036
0.0942665
0.0966212
0.0989019
0.0999772
0.100102
0.0990172
0.0965807
0.0926132
0.0868716
0.0789013
0.0683064
0.0540476
0.0358722
0.0103598
-0.0210857
-0.0690459
-0.123152
-0.206238
-0.262134
0.0801215
0.0852837
0.0873987
0.0893321
0.0900696
0.0898081
0.0883246
0.0854868
0.0810838
0.074854
0.0663751
0.0552094
0.0404165
0.0215165
-0.0041853
-0.0366122
-0.0832285
-0.136017
-0.203912
-0.243354
0.105933
0.112454
0.11523
0.118237
0.119924
0.120905
0.120741
0.119362
0.116574
0.112222
0.10575
0.0969092
0.0843805
0.0689288
0.0452041
0.0203002
-0.0276158
-0.0690501
-0.166276
-0.20528
0.0973546
0.103378
0.105954
0.108616
0.110022
0.110581
0.109949
0.107982
0.104533
0.0994006
0.0920499
0.0821823
0.06857
0.0516129
0.026662
-0.00128937
-0.0490808
-0.094232
-0.180105
-0.208295
0.122563
0.130265
0.133157
0.13682
0.138845
0.140326
0.140669
0.140106
0.138219
0.134761
0.12954
0.122448
0.112305
0.100307
0.0809327
0.064222
0.0214187
0.00894443
-0.0929282
-0.0542487
0.114239
0.121333
0.124193
0.127511
0.129341
0.130618
0.130759
0.129947
0.12777
0.124074
0.118435
0.110677
0.0994168
0.0858053
0.0638239
0.043415
-0.00280001
-0.0252036
-0.122387
-0.0965593
0.140434
0.149095
0.152636
0.157606
0.16125
0.16422
0.166338
0.167612
0.167746
0.166567
0.163907
0.159686
0.153368
0.145781
0.134993
0.127182
0.112206
0.124315
0.0989293
0.230139
0.131341
0.139645
0.142623
0.146876
0.149517
0.15145
0.152292
0.152096
0.150455
0.147201
0.142179
0.135296
0.125797
0.114664
0.0985901
0.0855588
0.0572057
0.0616383
0.000578781
0.115558
0.402006
0.401173
0.402472
0.401568
0.403456
0.402424
0.405503
0.404414
0.409554
0.408704
0.417595
0.417699
0.433738
0.436387
0.466858
0.475032
0.536618
0.549205
0.674429
0.552739
0.401994
0.401154
0.402444
0.401563
0.403413
0.402424
0.405446
0.404438
0.409497
0.408794
0.417575
0.417962
0.433844
0.437039
0.467171
0.47621
0.535987
0.547535
0.658284
0.499555
0.402028
0.4012
0.402513
0.401586
0.403518
0.402445
0.405599
0.404432
0.4097
0.408697
0.417814
0.417625
0.434109
0.43622
0.467806
0.475329
0.540907
0.557133
0.701617
0.661362
0.402017
0.40119
0.402492
0.401581
0.403484
0.402439
0.405543
0.404428
0.409614
0.408704
0.417684
0.417665
0.433893
0.436311
0.46728
0.475209
0.538573
0.553034
0.687667
0.610405
0.402046
0.401219
0.402546
0.401599
0.403566
0.402462
0.405671
0.404447
0.40981
0.408696
0.41798
0.417572
0.434385
0.436074
0.46847
0.475383
0.543617
0.562589
0.717159
0.746848
0.402037
0.401213
0.402531
0.401596
0.403543
0.402457
0.405633
0.404442
0.409749
0.408694
0.41788
0.417581
0.4342
0.43609
0.468006
0.475191
0.541853
0.559376
0.708799
0.71032
0.402054
0.401227
0.402561
0.401606
0.403588
0.40247
0.405705
0.404455
0.40986
0.408697
0.418056
0.41755
0.434513
0.436004
0.468764
0.475382
0.544725
0.565087
0.72306
0.787265
0.402051
0.401225
0.402555
0.401605
0.40358
0.402468
0.405691
0.404453
0.409838
0.408696
0.41802
0.417552
0.434443
0.436007
0.46859
0.475308
0.544094
0.563889
0.720304
0.774144
0.402051
0.401225
0.402555
0.401605
0.40358
0.402468
0.405691
0.404453
0.409838
0.408696
0.41802
0.417552
0.434443
0.436007
0.46859
0.475308
0.544094
0.563889
0.720304
0.774143
0.402054
0.401227
0.402561
0.401606
0.403588
0.40247
0.405705
0.404455
0.40986
0.408697
0.418056
0.41755
0.434513
0.436004
0.468764
0.475382
0.544725
0.565087
0.72306
0.787265
0.402037
0.401213
0.402531
0.401595
0.403543
0.402457
0.405633
0.404442
0.409748
0.408694
0.417879
0.417581
0.4342
0.43609
0.468006
0.475191
0.541853
0.559376
0.708799
0.710318
0.402046
0.401218
0.402546
0.401599
0.403566
0.402461
0.405671
0.404447
0.409809
0.408696
0.41798
0.417572
0.434385
0.436073
0.46847
0.475383
0.543617
0.562589
0.717159
0.746847
0.402017
0.40119
0.402491
0.401581
0.403484
0.402439
0.405543
0.404427
0.409614
0.408704
0.417684
0.417665
0.433892
0.436311
0.46728
0.475209
0.538574
0.553034
0.687667
0.610404
0.402028
0.4012
0.402513
0.401586
0.403518
0.402445
0.405598
0.404432
0.409699
0.408697
0.417814
0.417624
0.434109
0.43622
0.467806
0.475329
0.540907
0.557133
0.701617
0.66136
0.401994
0.401154
0.402443
0.401562
0.403413
0.402424
0.405445
0.404438
0.409497
0.408794
0.417575
0.417962
0.433844
0.437039
0.467171
0.47621
0.535987
0.547536
0.658284
0.499555
0.402006
0.401173
0.402472
0.401568
0.403455
0.402423
0.405502
0.404414
0.409554
0.408703
0.417594
0.417699
0.433737
0.436387
0.466858
0.475032
0.536619
0.549206
0.674429
0.552739
0.131323
0.139628
0.142607
0.146862
0.149505
0.151439
0.152284
0.152089
0.150451
0.1472
0.142179
0.135299
0.125801
0.114671
0.0985985
0.0855689
0.0572162
0.0616505
0.000590573
0.115566
0.140417
0.149079
0.152621
0.157593
0.161239
0.16421
0.166331
0.167606
0.167743
0.166566
0.163908
0.159689
0.153373
0.145788
0.135001
0.127191
0.112215
0.124324
0.0989373
0.230143
0.114218
0.121314
0.124175
0.127495
0.129327
0.130605
0.130749
0.129939
0.127765
0.124071
0.118434
0.110679
0.0994215
0.0858128
0.0638338
0.0434276
-0.00278523
-0.0251872
-0.122367
-0.0965419
0.122543
0.130247
0.133141
0.136805
0.138832
0.140314
0.14066
0.140098
0.138214
0.134758
0.129539
0.12245
0.11231
0.100314
0.0809416
0.0642333
0.0214305
0.00895964
-0.0929118
-0.0542356
0.0973304
0.103356
0.105934
0.108597
0.110005
0.110566
0.109936
0.107972
0.104526
0.0993963
0.0920487
0.0821842
0.0685751
0.0516213
0.0266738
-0.00127437
-0.0490617
-0.0942106
-0.180077
-0.208267
0.105911
0.112433
0.11521
0.11822
0.119909
0.120891
0.120729
0.119353
0.116567
0.112218
0.105749
0.0969112
0.0843855
0.0689367
0.045215
0.0203138
-0.0275989
-0.069032
-0.166252
-0.205255
0.0800936
0.0852576
0.0873743
0.0893097
0.0900493
0.0897903
0.0883095
0.0854746
0.0810746
0.0748482
0.0663728
0.0552108
0.0404218
0.021526
-0.00417154
-0.036594
-0.0832051
-0.135989
-0.203877
-0.243318
0.0886776
0.0942424
0.0965986
0.0988812
0.0999586
0.100086
0.0990034
0.0965698
0.0926051
0.0868666
0.0788995
0.068308
0.0540527
0.035881
0.0103725
-0.0210692
-0.0690249
-0.123127
-0.206206
-0.262101
0.0638826
0.0683855
0.0700569
0.0714277
0.0715717
0.0706675
0.0685133
0.0649778
0.059846
0.0528533
0.0436083
0.0316619
0.0162711
-0.00322572
-0.0285296
-0.0606442
-0.104355
-0.153152
-0.196325
-0.23638
0.0718179
0.076624
0.0785101
0.0801428
0.0805799
0.0799868
0.0781615
0.0749728
0.0702042
0.0635892
0.0547218
0.0431386
0.0279865
0.00859284
-0.017155
-0.0503177
-0.0967937
-0.150488
-0.212426
-0.266683
0.0494344
0.0534646
0.0547113
0.055626
0.0552175
0.0537527
0.0509976
0.0468355
0.0410528
0.0333999
0.0235154
0.010958
-0.00482127
-0.0242107
-0.0486056
-0.0785446
-0.115034
-0.152025
-0.175963
-0.200742
0.0564242
0.0606698
0.0621247
0.0632738
0.0631326
0.0619439
0.0594857
0.0556355
0.0501815
0.0428701
0.0333239
0.0210939
0.00548352
-0.0142046
-0.0396979
-0.0718219
-0.114337
-0.161345
-0.196916
-0.239693
0.037177
0.0408667
0.0416797
0.0421534
0.0412497
0.0392808
0.0359847
0.0312667
0.024915
0.0166986
0.00631246
-0.00668351
-0.0228077
-0.0418086
-0.06402
-0.0912123
-0.120535
-0.136731
-0.160476
-0.158024
0.0430235
0.0468766
0.0479067
0.0486017
0.047941
0.046223
0.0431975
0.0387611
0.0327044
0.0247981
0.0147237
0.00204344
-0.0137903
-0.0330335
-0.0571443
-0.0877737
-0.123061
-0.15264
-0.178914
-0.191578
0.0274137
0.0307067
0.0311234
0.0311642
0.0298049
0.0273435
0.0235149
0.0182378
0.0113149
0.00253465
-0.00836741
-0.0217846
-0.0384125
-0.0581673
-0.0800023
-0.10546
-0.132941
-0.143746
-0.145449
-0.106892
0.0319787
0.0355032
0.0360986
0.0363637
0.0352311
0.0330252
0.0294762
0.024501
0.0178994
0.00946788
-0.00102115
-0.01388
-0.0296066
-0.0479754
-0.068885
-0.095179
-0.125554
-0.140458
-0.160151
-0.138662
-0.000686386
-0.00225421
-0.00382651
-0.0055172
-0.00723741
-0.00895319
-0.0106375
-0.0122661
-0.0138214
-0.01529
-0.0166603
-0.0179429
-0.0191183
-0.0201895
-0.0211582
-0.0220272
-0.0228005
-0.0234828
-0.0240797
-0.0245972
-0.0250418
-0.0254201
-0.0257391
-0.0260056
-0.0262266
-0.026409
-0.0265595
-0.0266849
-0.0267915
-0.0268855
-0.0269724
-0.0270578
-0.0271464
-0.0272428
-0.0273507
-0.0274738
-0.0276149
-0.0277767
-0.0279612
-0.0281703
-0.0284053
-0.0286674
-0.0289574
-0.029276
-0.0296238
-0.0300011
-0.0304082
-0.0308453
-0.0313126
-0.0318101
-0.0323381
-0.0328966
-0.033486
-0.0341062
-0.0347577
-0.0354407
-0.0361555
-0.0369024
-0.0376819
-0.0384943
-0.0393399
-0.040219
-0.041132
-0.0420789
-0.0430595
-0.0440726
-0.0451186
-0.046198
-0.047315
-0.0484633
-0.0496414
-0.0508556
-0.0520976
-0.0533646
-0.0546533
-0.0559621
-0.0572893
-0.0586308
-0.059982
-0.0613381
-0.0626933
-0.0640408
-0.0653727
-0.0666795
-0.0679501
-0.069171
-0.0703264
-0.0713967
-0.0723605
-0.0731872
-0.0738557
-0.0743031
-0.0746027
-0.0744423
-0.0746142
-0.073075
-0.0752228
-0.0704546
-0.0799239
-0.0777947
-0.000650004
-0.00223509
-0.00380964
-0.00552364
-0.00726831
-0.00900628
-0.0107099
-0.0123545
-0.0139227
-0.0154031
-0.0167879
-0.0180595
-0.0192323
-0.0203006
-0.021265
-0.0221286
-0.0228955
-0.0235709
-0.0241606
-0.0246706
-0.0251077
-0.0254787
-0.0257906
-0.0260503
-0.026265
-0.0264416
-0.026587
-0.0267078
-0.0268105
-0.0269013
-0.0269858
-0.0270694
-0.0271571
-0.0272532
-0.0273617
-0.0274859
-0.0276288
-0.0277929
-0.0279803
-0.0281926
-0.0284312
-0.0286972
-0.0289913
-0.0293143
-0.0296665
-0.0300483
-0.0304599
-0.0309016
-0.0313734
-0.0318757
-0.0324084
-0.0329719
-0.0335662
-0.0341919
-0.034849
-0.0355381
-0.0362594
-0.0370136
-0.0378009
-0.0386219
-0.0394769
-0.0403663
-0.0412904
-0.042249
-0.0432422
-0.0442705
-0.0453338
-0.04643
-0.0475581
-0.0487188
-0.0499116
-0.0511313
-0.0523781
-0.0536507
-0.054947
-0.0562638
-0.0575972
-0.0589435
-0.0602982
-0.0616562
-0.0630115
-0.064357
-0.0656847
-0.0669848
-0.0682462
-0.0694552
-0.0705961
-0.07165
-0.0725961
-0.0734076
-0.0740654
-0.0745256
-0.0748273
-0.0747057
-0.0749237
-0.0735652
-0.076215
-0.0716683
-0.0845642
-0.0787681
-0.000735705
-0.00228479
-0.00385847
-0.00550961
-0.00718843
-0.00886533
-0.0105157
-0.0121172
-0.0136523
-0.0151082
-0.0164741
-0.017748
-0.0189221
-0.0199961
-0.0209707
-0.021848
-0.0226314
-0.0233251
-0.0239343
-0.0244647
-0.0249222
-0.0253134
-0.0256447
-0.0259229
-0.0261547
-0.026347
-0.0265062
-0.026639
-0.0267516
-0.0268502
-0.0269403
-0.0270275
-0.0271165
-0.027212
-0.0273179
-0.0274379
-0.0275752
-0.0277324
-0.0279118
-0.0281153
-0.0283446
-0.028601
-0.0288854
-0.0291987
-0.0295414
-0.0299139
-0.0303167
-0.03075
-0.0312138
-0.0317085
-0.0322339
-0.0327903
-0.0333776
-0.033996
-0.0346455
-0.0353264
-0.0360388
-0.0367828
-0.0375586
-0.0383665
-0.0392066
-0.0400792
-0.0409843
-0.0419221
-0.0428926
-0.0438875
-0.0449132
-0.0459798
-0.0470783
-0.048205
-0.0493576
-0.0505566
-0.0517837
-0.0530352
-0.0543004
-0.055582
-0.0568864
-0.0582073
-0.0595373
-0.0608732
-0.0622098
-0.0635405
-0.0648572
-0.0661504
-0.0674092
-0.0686201
-0.0697675
-0.0708313
-0.0717911
-0.0726138
-0.0732849
-0.0737244
-0.0740085
-0.0737729
-0.0737773
-0.0721893
-0.0731727
-0.0692423
-0.0730743
-0.0720274
-0.000714857
-0.00226904
-0.00384253
-0.0055115
-0.00721001
-0.00890581
-0.010573
-0.0121883
-0.0137344
-0.0151988
-0.0165716
-0.0178451
-0.0190181
-0.0200902
-0.0210616
-0.0219346
-0.0227129
-0.0234009
-0.024004
-0.024528
-0.0249792
-0.025364
-0.0256893
-0.0259618
-0.0261884
-0.0263758
-0.0265308
-0.02666
-0.0267698
-0.026866
-0.0269546
-0.0270408
-0.0271295
-0.0272253
-0.027332
-0.0274532
-0.0275921
-0.0277512
-0.0279327
-0.0281386
-0.0283703
-0.028629
-0.0289158
-0.0292313
-0.0295762
-0.0299507
-0.0303553
-0.0307902
-0.0312555
-0.0317513
-0.0322779
-0.0328353
-0.0334236
-0.034043
-0.0346937
-0.035376
-0.03609
-0.0368361
-0.0376146
-0.0384259
-0.0392702
-0.0401478
-0.0410589
-0.0420036
-0.0429812
-0.043996
-0.0450479
-0.0461253
-0.0472331
-0.0483751
-0.0495534
-0.050745
-0.0519635
-0.0532095
-0.0544841
-0.0557821
-0.0570965
-0.0584247
-0.0597638
-0.0611088
-0.0624537
-0.0637921
-0.0651162
-0.0664167
-0.0676827
-0.0689012
-0.0700566
-0.0711297
-0.0721
-0.072936
-0.0736198
-0.0740769
-0.0743787
-0.0742065
-0.0743612
-0.0727785
-0.0743846
-0.0699451
-0.0758346
-0.073628
-0.000759487
-0.00230643
-0.00387977
-0.00550522
-0.00715418
-0.0088019
-0.0104263
-0.0120065
-0.0135258
-0.0149698
-0.0163314
-0.0176014
-0.0187757
-0.0198529
-0.0208331
-0.0217178
-0.0225099
-0.0232135
-0.0238331
-0.0243741
-0.0248423
-0.0252438
-0.0255849
-0.0258722
-0.0261123
-0.0263118
-0.0264772
-0.0266149
-0.0267314
-0.0268325
-0.026924
-0.0270114
-0.0270996
-0.0271932
-0.0272964
-0.027413
-0.0275462
-0.0276988
-0.0278733
-0.0280719
-0.0282963
-0.0285478
-0.0288276
-0.0291366
-0.0294756
-0.029845
-0.0302452
-0.0306765
-0.031139
-0.0316329
-0.0321582
-0.0327148
-0.0333028
-0.0339222
-0.0345728
-0.0352547
-0.0359678
-0.0367123
-0.0374881
-0.0382952
-0.0391338
-0.0400037
-0.0409052
-0.0418384
-0.0428027
-0.0437968
-0.0448203
-0.0458751
-0.0469614
-0.0480765
-0.0492199
-0.0503943
-0.051596
-0.0528217
-0.0540657
-0.0553284
-0.0566206
-0.0579302
-0.0592406
-0.0605587
-0.0618813
-0.0631996
-0.0645049
-0.065788
-0.0670376
-0.0682401
-0.0693792
-0.0704339
-0.0713828
-0.0721893
-0.0728377
-0.0732387
-0.0734619
-0.0731679
-0.0729673
-0.0713978
-0.0714136
-0.0680333
-0.0691643
-0.0664182
-0.000750053
-0.002297
-0.00387068
-0.00550715
-0.00716933
-0.00883013
-0.0104663
-0.0120562
-0.0135826
-0.0150316
-0.016397
-0.0176682
-0.018842
-0.0199175
-0.0208949
-0.021776
-0.0225639
-0.0232627
-0.0238774
-0.0244133
-0.0248765
-0.0252731
-0.0256097
-0.0258928
-0.0261291
-0.0263253
-0.026488
-0.0266236
-0.0267385
-0.0268386
-0.0269298
-0.0270173
-0.0271061
-0.0272009
-0.0273056
-0.027424
-0.0275593
-0.0277142
-0.0278911
-0.0280921
-0.0283188
-0.0285725
-0.0288544
-0.0291652
-0.0295057
-0.0298763
-0.0302774
-0.0307092
-0.0311718
-0.0316655
-0.0321903
-0.0327462
-0.0333331
-0.0339513
-0.0346006
-0.0352813
-0.0359933
-0.0367368
-0.0375119
-0.0383188
-0.0391576
-0.0400285
-0.0409316
-0.0418666
-0.0428302
-0.043834
-0.044871
-0.0459379
-0.0470303
-0.0481539
-0.0493079
-0.0504819
-0.0516826
-0.05291
-0.0541712
-0.0554589
-0.0567536
-0.0580605
-0.0593831
-0.0607131
-0.0620433
-0.063368
-0.0646797
-0.065969
-0.0672248
-0.0684335
-0.0695791
-0.0706408
-0.0715976
-0.0724137
-0.0730724
-0.0734882
-0.0737389
-0.0734899
-0.0734227
-0.0718525
-0.07232
-0.0686608
-0.0707151
-0.0680085
-0.000766953
-0.00231355
-0.00388521
-0.00549854
-0.00713302
-0.00876649
-0.0103781
-0.011948
-0.0134604
-0.014901
-0.0162598
-0.0175298
-0.0187061
-0.0197868
-0.0207718
-0.0216624
-0.0224612
-0.0231718
-0.0237988
-0.024347
-0.0248222
-0.0252301
-0.0255771
-0.0258694
-0.0261135
-0.0263161
-0.0264836
-0.0266223
-0.0267387
-0.0268388
-0.0269283
-0.0270128
-0.0270974
-0.0271867
-0.0272852
-0.0273966
-0.0275244
-0.0276717
-0.027841
-0.0280345
-0.0282542
-0.0285015
-0.0287778
-0.0290841
-0.0294211
-0.0297893
-0.0301892
-0.0306211
-0.031085
-0.0315811
-0.0321096
-0.03267
-0.0332623
-0.0338863
-0.0345417
-0.0352282
-0.0359462
-0.0366952
-0.037475
-0.0382856
-0.0391267
-0.0399983
-0.0409002
-0.0418328
-0.0427986
-0.0437906
-0.0448123
-0.0458622
-0.0469409
-0.0480478
-0.0491822
-0.0503437
-0.051531
-0.0527429
-0.0539775
-0.0552328
-0.0565077
-0.0577986
-0.0590989
-0.0604065
-0.0617217
-0.0630327
-0.0643317
-0.0656095
-0.0668548
-0.068054
-0.0691899
-0.0702406
-0.0711845
-0.0719828
-0.0726183
-0.0730002
-0.0731882
-0.0728689
-0.0725605
-0.0710117
-0.0705801
-0.0673782
-0.0675557
-0.063422
-0.000764823
-0.00231187
-0.00388453
-0.00550226
-0.00714196
-0.00878058
-0.0103969
-0.0119707
-0.0134838
-0.0149261
-0.0162858
-0.0175554
-0.0187304
-0.0198093
-0.020792
-0.0216798
-0.0224756
-0.023183
-0.0238067
-0.0243517
-0.0248239
-0.0252291
-0.0255737
-0.025864
-0.0261067
-0.0263083
-0.0264753
-0.0266141
-0.0267311
-0.0268322
-0.0269232
-0.0270095
-0.0270963
-0.0271882
-0.0272893
-0.0274035
-0.0275342
-0.0276843
-0.0278563
-0.0280523
-0.0282743
-0.0285236
-0.0288016
-0.0291091
-0.0294468
-0.0298152
-0.0302149
-0.0306461
-0.0311089
-0.0316034
-0.0321296
-0.0326874
-0.0332767
-0.0338976
-0.0345499
-0.0352335
-0.0359483
-0.0366941
-0.037471
-0.038279
-0.0391178
-0.0399876
-0.0408881
-0.0418194
-0.0427835
-0.0437791
-0.044804
-0.0458584
-0.0469408
-0.0480517
-0.0491905
-0.0503559
-0.0515474
-0.0527644
-0.0540064
-0.05527
-0.0565481
-0.0578411
-0.0591556
-0.0604759
-0.0617924
-0.063105
-0.0644061
-0.0656858
-0.0669329
-0.068133
-0.0692701
-0.0703223
-0.0712679
-0.0720689
-0.072708
-0.0730952
-0.0732932
-0.0729898
-0.0727316
-0.0711853
-0.0709098
-0.0676379
-0.0680384
-0.0640737
0.400542
0.400286
0.400174
0.399791
0.39936
0.398578
0.397618
0.396209
0.394266
0.391845
0.388085
0.383127
0.375406
0.365721
0.350359
0.332366
0.303141
0.272704
0.222769
0.178114
0.400599
0.400295
0.400281
0.399854
0.399571
0.398757
0.398059
0.396646
0.395146
0.392686
0.389515
0.384822
0.377899
0.369031
0.354561
0.338325
0.309419
0.281844
0.230131
0.188077
0.400654
0.400314
0.400372
0.399923
0.399736
0.398916
0.39836
0.396993
0.395697
0.393387
0.390578
0.386215
0.379868
0.371678
0.357987
0.342919
0.314571
0.288603
0.235687
0.194957
0.40072
0.400339
0.400477
0.4
0.399932
0.399095
0.398759
0.397387
0.396458
0.394181
0.39191
0.387794
0.382263
0.374694
0.362091
0.348185
0.320673
0.296357
0.242037
0.202746
0.400793
0.400369
0.400591
0.400087
0.400141
0.399292
0.399159
0.397811
0.397228
0.395035
0.39334
0.389491
0.384888
0.377926
0.366635
0.353799
0.327479
0.30455
0.248892
0.21079
0.400873
0.400405
0.400712
0.400182
0.400362
0.399501
0.39959
0.398258
0.398049
0.395937
0.394874
0.391277
0.387739
0.381344
0.371605
0.359742
0.334999
0.31321
0.256353
0.21912
0.400959
0.400447
0.400839
0.400284
0.400593
0.39972
0.400036
0.398723
0.398908
0.396878
0.396501
0.393142
0.390799
0.384932
0.377006
0.36601
0.343295
0.322382
0.264581
0.227848
0.401048
0.400493
0.40097
0.400391
0.400831
0.399948
0.400496
0.399204
0.399796
0.397852
0.398201
0.395073
0.394043
0.388659
0.382843
0.372595
0.352422
0.332094
0.273779
0.23702
0.401141
0.400543
0.401105
0.400502
0.401073
0.400182
0.400964
0.399694
0.400703
0.39885
0.399957
0.39706
0.397439
0.392503
0.3891
0.379507
0.362432
0.342377
0.284197
0.246641
0.401236
0.400595
0.40124
0.400616
0.401317
0.400419
0.401434
0.400191
0.401619
0.399863
0.401747
0.399087
0.400947
0.396452
0.395734
0.386758
0.373392
0.353269
0.296136
0.256686
0.40133
0.40065
0.401376
0.40073
0.401559
0.400657
0.401903
0.400689
0.402535
0.400881
0.403549
0.401141
0.404526
0.400496
0.402693
0.394303
0.385423
0.364823
0.309959
0.267106
0.401424
0.400707
0.401511
0.400844
0.401798
0.400893
0.402364
0.401183
0.403439
0.401896
0.405342
0.403205
0.408131
0.404617
0.409892
0.402128
0.398573
0.37716
0.326117
0.277782
0.401516
0.400764
0.401642
0.400956
0.402031
0.401125
0.402813
0.401667
0.404321
0.402897
0.407103
0.405259
0.411715
0.408788
0.417238
0.410236
0.412795
0.390542
0.345143
0.288534
0.401604
0.400822
0.40177
0.401065
0.402255
0.40135
0.403245
0.402137
0.405172
0.403874
0.408812
0.407284
0.415231
0.412978
0.424629
0.418638
0.427996
0.405232
0.367668
0.299187
0.401686
0.400879
0.401891
0.401169
0.402468
0.401565
0.403656
0.402588
0.405983
0.404815
0.410447
0.409258
0.418632
0.417146
0.431955
0.427325
0.443966
0.421314