/*--------------------------------*- C++ -*----------------------------------*\
  =========                 |
  \\      /  F ield         | OpenFOAM: The Open Source CFD Toolbox
   \\    /   O peration     | Website:  https://openfoam.org
    \\  /    A nd           | Version:  10
     \\/     M anipulation  |
\*---------------------------------------------------------------------------*/
FoamFile
{
    format      ascii;
    class       volScalarField;
    location    "10";
    object      p;
}
// * * * * * * * * * * * * * * * * * * * * * * * * * * * * * * * * * * * * * //

dimensions      [0 2 -2 0 0 0 0];

internalField   nonuniform List<scalar> 
3600
(
-0.00421221
0.017557
-0.00759195
0.0433942
-0.0222895
0.0718066
-0.0571858
0.0913987
-0.126068
0.0630202
-0.00421445
0.0175649
-0.00759323
0.0434099
-0.0222937
0.0718357
-0.0571922
0.0914381
-0.125997
0.0629892
-0.00421622
0.0175717
-0.00759288
0.0434232
-0.0222934
0.0718596
-0.0571904
0.0914685
-0.125932
0.06301
-0.00421784
0.0175778
-0.00759296
0.0434353
-0.0222939
0.071882
-0.0571897
0.0914982
-0.125874
0.0630207
-0.00421939
0.0175832
-0.00759379
0.0434465
-0.022296
0.0719033
-0.0571914
0.0915284
-0.125823
0.0630143
-0.00422083
0.0175879
-0.00759523
0.0434566
-0.0222992
0.0719232
-0.0571949
0.0915584
-0.125781
0.062996
-0.00422218
0.017592
-0.00759726
0.0434656
-0.0223036
0.0719418
-0.0571999
0.0915883
-0.125746
0.0629671
-0.00422345
0.0175954
-0.00760002
0.0434738
-0.0223093
0.0719594
-0.0572068
0.0916189
-0.12572
0.0629253
-0.00422459
0.017598
-0.00760326
0.0434807
-0.0223161
0.0719753
-0.0572153
0.091649
-0.125701
0.0628718
-0.0042252
0.0175994
-0.00760525
0.0434843
-0.0223205
0.0719839
-0.0572215
0.0916676
-0.125693
0.0628303
-0.00417174
0.0174267
-0.00754513
0.0431172
-0.0221774
0.0712578
-0.0570434
0.0905358
-0.127172
0.0638176
-0.00417663
0.017443
-0.00755017
0.0431502
-0.0221915
0.071321
-0.057065
0.0906332
-0.127045
0.0637048
-0.00418111
0.0174582
-0.00755324
0.0431818
-0.022199
0.071382
-0.0570725
0.090726
-0.12691
0.0636778
-0.00418548
0.0174729
-0.00755672
0.0432126
-0.0222071
0.0714423
-0.0570807
0.0908185
-0.12678
0.0636391
-0.00418978
0.017487
-0.00756092
0.0432426
-0.0222169
0.0715014
-0.0570916
0.0909107
-0.126656
0.0635808
-0.00419398
0.0175005
-0.00756565
0.0432716
-0.0222276
0.0715592
-0.057104
0.091002
-0.126541
0.0635121
-0.0041981
0.0175134
-0.00757089
0.0432997
-0.0222393
0.0716159
-0.0571174
0.0910929
-0.126431
0.0634356
-0.00420215
0.0175257
-0.00757677
0.0433271
-0.022252
0.0716721
-0.0571319
0.0911849
-0.126328
0.0633512
-0.00420611
0.0175373
-0.00758319
0.0433533
-0.0222659
0.0717264
-0.0571483
0.091276
-0.126233
0.0632557
-0.00420951
0.0175476
-0.00758863
0.0433755
-0.0222793
0.0717712
-0.0571678
0.0913488
-0.126151
0.0631411
-0.00410743
0.0172271
-0.00745463
0.0426888
-0.0219605
0.0703911
-0.056749
0.089034
-0.128791
0.0655094
-0.00411451
0.0172495
-0.00746454
0.0427346
-0.021987
0.0704816
-0.0567901
0.0891957
-0.128635
0.065292
-0.00412129
0.0172711
-0.00747201
0.0427805
-0.0220044
0.0705736
-0.0568112
0.089356
-0.128444
0.0651926
-0.00412802
0.0172924
-0.00747994
0.0428263
-0.0220226
0.070666
-0.0568332
0.0895167
-0.128255
0.0650731
-0.00413469
0.0173133
-0.00748856
0.0428714
-0.0220425
0.0707573
-0.0568581
0.0896756
-0.128077
0.0649304
-0.00414128
0.0173336
-0.0074976
0.0429157
-0.0220632
0.0708474
-0.0568841
0.0898323
-0.127907
0.0647799
-0.00414779
0.0173534
-0.00750699
0.0429593
-0.0220843
0.0709367
-0.0569103
0.0899876
-0.127742
0.0646257
-0.00415428
0.0173728
-0.00751691
0.0430025
-0.0221061
0.0710261
-0.0569365
0.0901435
-0.127582
0.0644702
-0.00416071
0.0173916
-0.00752747
0.0430447
-0.0221294
0.071114
-0.0569651
0.0902984
-0.127431
0.0643048
-0.00416661
0.0174093
-0.00753754
0.0430824
-0.0221546
0.0711906
-0.0570031
0.0904308
-0.127305
0.0640857
-0.00402264
0.0169798
-0.0073079
0.0421412
-0.0216271
0.0692451
-0.0563019
0.086769
-0.131196
0.0692183
-0.00403278
0.0170101
-0.00731884
0.0422071
-0.0216414
0.0693776
-0.0563032
0.0870118
-0.130449
0.0677793
-0.00404212
0.0170366
-0.00733652
0.0422693
-0.0216809
0.0695124
-0.0563549
0.087297
-0.130262
0.0677599
-0.00405063
0.0170615
-0.00735136
0.0423248
-0.0217159
0.0696292
-0.0564034
0.0875375
-0.130104
0.0676851
-0.00405901
0.0170861
-0.00736522
0.042379
-0.0217477
0.0697423
-0.0564459
0.0877639
-0.12989
0.0674171
-0.00406739
0.0171105
-0.00737944
0.0424332
-0.0217799
0.0698561
-0.0564883
0.0879902
-0.129672
0.0671275
-0.00407575
0.0171346
-0.00739404
0.0424873
-0.0218126
0.06997
-0.0565311
0.0882153
-0.129466
0.0668577
-0.0040841
0.0171584
-0.00740905
0.0425413
-0.0218456
0.0700845
-0.056573
0.08844
-0.129264
0.0665993
-0.00409248
0.0171817
-0.00742494
0.0425945
-0.0218806
0.0701983
-0.0566178
0.0886636
-0.129073
0.0663331
-0.00410036
0.0172041
-0.00744117
0.0426426
-0.0219211
0.0702991
-0.0566798
0.0888628
-0.128936
0.0659717
-0.0477921
-0.0745533
-0.0746114
-0.116299
-0.118345
-0.197742
-0.211267
-0.381552
-0.479796
-0.861659
-0.0479264
-0.0744705
-0.074547
-0.115843
-0.118005
-0.196604
-0.210652
-0.379577
-0.482204
-0.854176
-0.0480717
-0.0743895
-0.0745212
-0.115416
-0.117779
-0.195594
-0.210382
-0.378183
-0.484839
-0.844699
-0.0482139
-0.0742988
-0.0744773
-0.114959
-0.117497
-0.194502
-0.209944
-0.376637
-0.487117
-0.838565
-0.0483515
-0.0741977
-0.0744094
-0.114465
-0.117143
-0.193304
-0.209288
-0.374833
-0.488897
-0.834463
-0.0484858
-0.0740875
-0.0743245
-0.113943
-0.116737
-0.192025
-0.208484
-0.372877
-0.490319
-0.831166
-0.0486175
-0.073969
-0.074225
-0.113394
-0.116288
-0.190675
-0.207555
-0.370801
-0.491463
-0.828562
-0.0487493
-0.0738455
-0.0741147
-0.112824
-0.115802
-0.189259
-0.206515
-0.368635
-0.492463
-0.827135
-0.0488857
-0.0737207
-0.0740019
-0.112239
-0.115297
-0.187801
-0.205427
-0.366531
-0.493799
-0.827756
-0.0489887
-0.0735408
-0.0738273
-0.111565
-0.114661
-0.186152
-0.203984
-0.363843
-0.493839
-0.826242
-0.0463214
-0.0749255
-0.0751392
-0.120178
-0.121742
-0.208051
-0.217174
-0.404519
-0.462459
-0.932818
-0.0464695
-0.0749341
-0.0751164
-0.119898
-0.121476
-0.207255
-0.216773
-0.402535
-0.464698
-0.920775
-0.0466295
-0.0749421
-0.0751355
-0.119643
-0.121337
-0.206565
-0.216766
-0.401019
-0.467652
-0.905507
-0.0467875
-0.074938
-0.0751399
-0.119355
-0.121158
-0.205794
-0.216646
-0.399331
-0.470283
-0.893694
-0.046941
-0.0749201
-0.0751195
-0.119023
-0.120908
-0.20491
-0.216315
-0.397341
-0.47231
-0.884478
-0.0470915
-0.0748898
-0.0750802
-0.118656
-0.120604
-0.203932
-0.215827
-0.395129
-0.473887
-0.876474
-0.0472399
-0.074848
-0.0750252
-0.118255
-0.120256
-0.202872
-0.215211
-0.392738
-0.475143
-0.869433
-0.0473861
-0.0747947
-0.0749548
-0.117823
-0.119863
-0.201729
-0.214466
-0.39017
-0.476085
-0.863318
-0.0475304
-0.0747309
-0.0748701
-0.117359
-0.119428
-0.200506
-0.213592
-0.387411
-0.476605
-0.857677
-0.0476716
-0.0746546
-0.0747667
-0.116858
-0.118942
-0.199186
-0.212565
-0.384433
-0.476928
-0.85416
-0.0447358
-0.074101
-0.0750182
-0.121542
-0.123919
-0.213065
-0.220369
-0.418815
-0.446097
-1.00773
-0.0448966
-0.0742399
-0.0750617
-0.121531
-0.123754
-0.212853
-0.220089
-0.418115
-0.447743
-0.996383
-0.045068
-0.0743783
-0.0751471
-0.121546
-0.123724
-0.212738
-0.220253
-0.417769
-0.450562
-0.98034
-0.0452377
-0.0745024
-0.0752201
-0.121526
-0.123668
-0.212539
-0.220367
-0.41718
-0.453259
-0.967613
-0.0454027
-0.0746095
-0.0752678
-0.121458
-0.123544
-0.212212
-0.220302
-0.416212
-0.455391
-0.957861
-0.0455644
-0.0747011
-0.0752949
-0.121347
-0.123366
-0.211775
-0.220096
-0.414931
-0.457069
-0.949565
-0.0457235
-0.0747781
-0.075305
-0.121198
-0.123144
-0.21124
-0.219779
-0.413384
-0.458421
-0.942285
-0.0458803
-0.0748408
-0.0752984
-0.12101
-0.122879
-0.210608
-0.219353
-0.411578
-0.459465
-0.936014
-0.0460352
-0.0748899
-0.0752768
-0.120787
-0.122575
-0.209883
-0.218824
-0.409518
-0.460155
-0.930593
-0.0461873
-0.0749242
-0.0752376
-0.120524
-0.122228
-0.209061
-0.218189
-0.407204
-0.460705
-0.927454
-0.0429868
-0.0718397
-0.0740109
-0.119908
-0.124666
-0.211152
-0.222338
-0.413673
-0.433767
-1.03058
-0.0431709
-0.0721274
-0.0741516
-0.12019
-0.124658
-0.211622
-0.22212
-0.415181
-0.434695
-1.02553
-0.0433622
-0.072417
-0.0743286
-0.120512
-0.124758
-0.212238
-0.222304
-0.417052
-0.436877
-1.01465
-0.0435504
-0.0726909
-0.0744931
-0.120801
-0.124839
-0.212764
-0.222483
-0.418614
-0.439141
-1.00687
-0.0437329
-0.0729454
-0.0746318
-0.121039
-0.124857
-0.213149
-0.222518
-0.419719
-0.44098
-1.00226
-0.0439108
-0.0731822
-0.0747484
-0.121231
-0.124823
-0.213415
-0.22243
-0.420441
-0.442421
-0.999239
-0.0440849
-0.0734025
-0.0748463
-0.121384
-0.124745
-0.213575
-0.222248
-0.420829
-0.443559
-0.997255
-0.0442555
-0.0736066
-0.074926
-0.121497
-0.124624
-0.213631
-0.221976
-0.42089
-0.444409
-0.99632
-0.0444231
-0.0737951
-0.0749894
-0.121572
-0.124465
-0.213585
-0.221625
-0.420631
-0.444953
-0.996447
-0.0445875
-0.0739668
-0.0750356
-0.121607
-0.124268
-0.213439
-0.221202
-0.420052
-0.445387
-0.998906
-0.0409325
-0.0681389
-0.0718816
-0.11559
-0.123407
-0.203212
-0.222015
-0.386406
-0.422894
-0.954928
-0.0411574
-0.0685712
-0.07214
-0.116135
-0.123584
-0.204297
-0.222008
-0.390261
-0.423504
-0.960394
-0.041385
-0.0690081
-0.0724323
-0.116717
-0.123888
-0.205492
-0.222405
-0.39438
-0.425472
-0.959277
-0.0416073
-0.0694284
-0.0727101
-0.117269
-0.124164
-0.206619
-0.222768
-0.398233
-0.427503
-0.961385
-0.0418223
-0.0698281
-0.072961
-0.117774
-0.124374
-0.207624
-0.22298
-0.401656
-0.429148
-0.966739
-0.0420309
-0.0702092
-0.0731891
-0.118237
-0.124532
-0.208516
-0.22308
-0.404684
-0.430458
-0.973654
-0.0422338
-0.0705732
-0.0733977
-0.118662
-0.124647
-0.209303
-0.223101
-0.407344
-0.431508
-0.981566
-0.0424315
-0.0709202
-0.0735874
-0.119048
-0.124723
-0.209983
-0.22306
-0.409621
-0.432304
-0.990551
-0.0426244
-0.0712508
-0.0737599
-0.119398
-0.124764
-0.210541
-0.223009
-0.41146
-0.432875
-1.00072
-0.0428127
-0.0715634
-0.0739156
-0.119706
-0.124779
-0.210963
-0.222895
-0.412894
-0.433465
-1.01321
-0.0384432
-0.0632994
-0.0685755
-0.109159
-0.12041
-0.190517
-0.219304
-0.338977
-0.408173
-0.753267
-0.0387201
-0.063838
-0.068962
-0.109872
-0.120818
-0.191879
-0.219865
-0.344188
-0.410297
-0.770484
-0.0389951
-0.0643751
-0.0693885
-0.110635
-0.121329
-0.193402
-0.220676
-0.349829
-0.413167
-0.781533
-0.0392631
-0.0649007
-0.0697912
-0.111374
-0.121797
-0.194887
-0.221383
-0.355335
-0.415896
-0.796368
-0.0395229
-0.0654113
-0.0701605
-0.112073
-0.122194
-0.196284
-0.221906
-0.360542
-0.41821
-0.814449
-0.0397751
-0.0659064
-0.0705043
-0.112739
-0.122532
-0.197608
-0.222277
-0.36549
-0.420117
-0.833924
-0.0400202
-0.0663862
-0.070827
-0.113376
-0.122821
-0.19887
-0.222521
-0.370212
-0.421625
-0.854361
-0.0402586
-0.0668508
-0.071129
-0.113985
-0.123062
-0.200071
-0.222639
-0.374702
-0.422702
-0.875981
-0.0404907
-0.0673007
-0.0714119
-0.114565
-0.123259
-0.201209
-0.222641
-0.378955
-0.423322
-0.89901
-0.0407168
-0.0677336
-0.071675
-0.115116
-0.123409
-0.202287
-0.222529
-0.382951
-0.42353
-0.924625
-0.035519
-0.0575632
-0.0645451
-0.101854
-0.11551
-0.177499
-0.209807
-0.286975
-0.365191
-0.436106
-0.0358392
-0.0581853
-0.0649995
-0.10263
-0.116106
-0.178814
-0.211172
-0.292169
-0.371316
-0.462807
-0.0361588
-0.0588139
-0.0654852
-0.103463
-0.116797
-0.180304
-0.21269
-0.297865
-0.377333
-0.484829
-0.0364698
-0.0594273
-0.0659491
-0.104272
-0.117438
-0.181756
-0.214078
-0.303509
-0.383109
-0.51163
-0.0367719
-0.060023
-0.0663858
-0.105044
-0.118011
-0.183137
-0.215281
-0.308974
-0.388489
-0.541546
-0.0370664
-0.0606034
-0.0668016
-0.105791
-0.118533
-0.18447
-0.216329
-0.314308
-0.393362
-0.572545
-0.0373537
-0.0611698
-0.0671994
-0.106515
-0.119012
-0.185768
-0.217239
-0.319534
-0.397666
-0.604475
-0.0376342
-0.0617222
-0.0675791
-0.107218
-0.119446
-0.187028
-0.218008
-0.324645
-0.401365
-0.637725
-0.0379082
-0.0622608
-0.0679419
-0.1079
-0.119838
-0.188251
-0.218638
-0.32963
-0.40443
-0.672561
-0.0381763
-0.0627843
-0.0682836
-0.108555
-0.120184
-0.189431
-0.219121
-0.334437
-0.406789
-0.710172
-0.0320501
-0.0510582
-0.0596661
-0.0938835
-0.109204
-0.165408
-0.193207
-0.239787
-0.262925
-0.0512526
-0.0328519
-0.0524208
-0.0610313
-0.095974
-0.111343
-0.168554
-0.197282
-0.245567
-0.27646
-0.0715588
-0.0331573
-0.0530229
-0.0613809
-0.0965751
-0.111607
-0.169218
-0.198531
-0.249879
-0.290858
-0.108027
-0.0334081
-0.053527
-0.0616816
-0.0970796
-0.111914
-0.169951
-0.199874
-0.254585
-0.303058
-0.1452
-0.0337114
-0.0541082
-0.0621111
-0.0977765
-0.112507
-0.171091
-0.201632
-0.259537
-0.313954
-0.180845
-0.0340319
-0.0547162
-0.0625712
-0.0985259
-0.113141
-0.172299
-0.203374
-0.264397
-0.32432
-0.217457
-0.0343436
-0.0553103
-0.0630071
-0.0992438
-0.11371
-0.173429
-0.204935
-0.269117
-0.334151
-0.256036
-0.0346447
-0.0558871
-0.0634187
-0.0999296
-0.114225
-0.1745
-0.206346
-0.273744
-0.343253
-0.296383
-0.0349389
-0.056452
-0.0638154
-0.100597
-0.114706
-0.175542
-0.207639
-0.278288
-0.35151
-0.338431
-0.0352265
-0.0570036
-0.0641941
-0.101241
-0.115147
-0.176541
-0.208786
-0.282638
-0.358728
-0.383461
0.0973019
0.0914951
0.10257
0.0902712
0.113063
0.0933037
0.145712
0.114252
0.282975
0.167069
0.0972982
0.0914962
0.102556
0.0902906
0.113017
0.0933735
0.145537
0.114441
0.281502
0.160336
0.0972943
0.0914975
0.102541
0.0903118
0.112971
0.0934507
0.145357
0.11467
0.279927
0.15433
0.0972905
0.0914985
0.102525
0.0903324
0.112924
0.0935246
0.145177
0.114879
0.278326
0.148189
0.0972866
0.0914991
0.102509
0.0903523
0.112877
0.0935949
0.144993
0.115061
0.276659
0.141795
0.0972827
0.0914994
0.102493
0.0903715
0.112828
0.0936618
0.144802
0.115217
0.2749
0.135253
0.0972788
0.0914993
0.102478
0.0903899
0.112779
0.0937251
0.144607
0.115347
0.273073
0.128596
0.0972748
0.091499
0.102463
0.0904086
0.112731
0.0937916
0.144418
0.115497
0.271316
0.121837
0.0972703
0.0914995
0.102448
0.0904312
0.112683
0.0938745
0.144239
0.115728
0.269571
0.114993
0.0972656
0.0915018
0.102421
0.0904544
0.112616
0.0939283
0.143975
0.115702
0.266574
0.107812
0.0973307
0.0914963
0.102712
0.0901217
0.113494
0.0927612
0.147482
0.112965
0.296344
0.22874
0.0973282
0.0914969
0.1027
0.0901362
0.113456
0.0928154
0.147329
0.113113
0.295286
0.223149
0.0973254
0.0914978
0.102686
0.0901527
0.113416
0.092878
0.147167
0.113304
0.294146
0.217893
0.0973227
0.0914983
0.102673
0.0901689
0.113375
0.0929382
0.147001
0.113478
0.292948
0.212468
0.0973199
0.0914985
0.10266
0.0901843
0.113333
0.0929951
0.146828
0.113628
0.291674
0.20678
0.0973171
0.0914984
0.102646
0.0901992
0.11329
0.0930497
0.146648
0.113759
0.29032
0.200874
0.0973143
0.091498
0.102632
0.0902138
0.113246
0.0931022
0.146461
0.113874
0.288886
0.194775
0.0973114
0.0914972
0.102619
0.0902278
0.1132
0.0931518
0.146265
0.113967
0.287352
0.188529
0.0973086
0.091496
0.102605
0.0902409
0.113153
0.0931977
0.146058
0.114031
0.285684
0.182155
0.0973055
0.091495
0.102592
0.0902548
0.113105
0.0932454
0.145856
0.114098
0.284032
0.175138
0.0973478
0.0914986
0.102804
0.0900251
0.113797
0.0923977
0.148782
0.11215
0.304824
0.272005
0.0973464
0.091499
0.102797
0.0900339
0.113775
0.0924319
0.148688
0.112248
0.304272
0.268707
0.0973448
0.0914998
0.102789
0.0900448
0.113749
0.0924745
0.148586
0.112388
0.303666
0.265401
0.0973432
0.0915003
0.10278
0.0900554
0.113723
0.0925154
0.148474
0.112511
0.302986
0.26186
0.0973415
0.0915004
0.102771
0.0900654
0.113694
0.0925535
0.148353
0.112611
0.302223
0.25804
0.0973399
0.0915003
0.102761
0.0900749
0.113664
0.0925897
0.148223
0.112694
0.301376
0.253955
0.0973382
0.0914997
0.102752
0.0900841
0.113633
0.0926241
0.148084
0.11276
0.300445
0.249618
0.0973366
0.0914989
0.102742
0.0900928
0.113599
0.092656
0.147933
0.112805
0.299415
0.24506
0.0973349
0.0914977
0.102732
0.0901009
0.113564
0.0926856
0.147772
0.112828
0.298273
0.240274
0.097333
0.0914967
0.102721
0.0901103
0.113527
0.0927191
0.147611
0.112866
0.297138
0.234923
0.0973538
0.0914996
0.102839
0.0899896
0.113913
0.0922609
0.149285
0.111856
0.30783
0.288567
0.0973535
0.0915002
0.102838
0.0899924
0.113911
0.0922732
0.149279
0.111917
0.307844
0.288229
0.0973529
0.0915011
0.102836
0.0899968
0.113906
0.0922911
0.149265
0.112
0.307812
0.287622
0.0973524
0.0915017
0.102833
0.090001
0.113899
0.0923075
0.149239
0.112065
0.307696
0.286738
0.0973519
0.0915019
0.102831
0.0900046
0.11389
0.0923218
0.149203
0.11211
0.307493
0.28557
0.0973513
0.0915019
0.102827
0.090008
0.113879
0.0923346
0.149155
0.112138
0.307206
0.284114
0.0973508
0.0915015
0.102823
0.0900109
0.113866
0.0923457
0.149096
0.112147
0.306835
0.282375
0.0973502
0.0915007
0.102819
0.0900133
0.113852
0.0923545
0.149026
0.112136
0.306371
0.280369
0.0973497
0.0914996
0.102815
0.0900154
0.113835
0.0923619
0.148944
0.112108
0.30581
0.278087
0.0973489
0.0914989
0.10281
0.0900192
0.113816
0.0923754
0.148858
0.112104
0.305243
0.275355
0.0973489
0.0914989
0.10281
0.0900192
0.113816
0.0923754
0.148858
0.112104
0.305243
0.275355
0.0973497
0.0914997
0.102815
0.0900154
0.113835
0.0923619
0.148944
0.112108
0.30581
0.278087
0.0973502
0.0915007
0.102819
0.0900133
0.113852
0.0923545
0.149026
0.112136
0.306371
0.280369
0.0973508
0.0915015
0.102823
0.0900109
0.113866
0.0923457
0.149096
0.112147
0.306835
0.282375
0.0973513
0.0915019
0.102827
0.0900079
0.113879
0.0923346
0.149155
0.112138
0.307206
0.284114
0.0973519
0.091502
0.102831
0.0900046
0.11389
0.0923218
0.149203
0.11211
0.307493
0.28557
0.0973524
0.0915017
0.102833
0.090001
0.113899
0.0923075
0.149239
0.112065
0.307696
0.286738
0.0973529
0.0915011
0.102836
0.0899968
0.113906
0.0922911
0.149265
0.112
0.307812
0.287622
0.0973535
0.0915002
0.102838
0.0899924
0.113911
0.0922732
0.149279
0.111917
0.307844
0.288229
0.0973538
0.0914996
0.102839
0.0899896
0.113913
0.0922609
0.149285
0.111856
0.30783
0.288567
0.097333
0.0914967
0.102721
0.0901103
0.113527
0.0927191
0.147611
0.112866
0.297138
0.234923
0.0973349
0.0914977
0.102732
0.0901009
0.113564
0.0926856
0.147772
0.112828
0.298273
0.240274
0.0973366
0.0914989
0.102742
0.0900928
0.113599
0.092656
0.147933
0.112805
0.299415
0.24506
0.0973382
0.0914998
0.102752
0.0900841
0.113633
0.0926241
0.148084
0.11276
0.300445
0.249618
0.0973399
0.0915003
0.102761
0.0900749
0.113664
0.0925897
0.148223
0.112694
0.301376
0.253955
0.0973415
0.0915005
0.102771
0.0900654
0.113694
0.0925535
0.148353
0.112611
0.302223
0.25804
0.0973432
0.0915003
0.10278
0.0900554
0.113723
0.0925154
0.148474
0.112511
0.302986
0.26186
0.0973448
0.0914998
0.102789
0.0900448
0.113749
0.0924745
0.148586
0.112388
0.303666
0.265401
0.0973464
0.091499
0.102797
0.0900339
0.113775
0.0924319
0.148688
0.112248
0.304272
0.268707
0.0973478
0.0914986
0.102804
0.0900251
0.113797
0.0923977
0.148782
0.11215
0.304824
0.272005
0.0973055
0.091495
0.102592
0.0902548
0.113105
0.0932454
0.145856
0.114098
0.284032
0.175138
0.0973086
0.091496
0.102605
0.0902409
0.113153
0.0931978
0.146058
0.114032
0.285684
0.182155
0.0973114
0.0914972
0.102619
0.0902277
0.1132
0.0931519
0.146265
0.113967
0.287352
0.188529
0.0973142
0.091498
0.102632
0.0902138
0.113246
0.0931022
0.146461
0.113874
0.288886
0.194775
0.0973171
0.0914984
0.102646
0.0901992
0.11329
0.0930497
0.146648
0.113759
0.29032
0.200874
0.0973199
0.0914985
0.10266
0.0901843
0.113333
0.0929951
0.146828
0.113628
0.291674
0.20678
0.0973226
0.0914984
0.102673
0.0901688
0.113375
0.0929382
0.147001
0.113478
0.292948
0.212468
0.0973254
0.0914978
0.102686
0.0901527
0.113416
0.092878
0.147167
0.113304
0.294146
0.217893
0.0973281
0.0914969
0.1027
0.0901362
0.113456
0.0928155
0.147329
0.113113
0.295286
0.223149
0.0973307
0.0914964
0.102712
0.0901217
0.113493
0.0927612
0.147482
0.112965
0.296344
0.22874
0.0972655
0.0915018
0.102421
0.0904544
0.112616
0.0939283
0.143975
0.115702
0.266574
0.107812
0.0972703
0.0914995
0.102448
0.0904311
0.112683
0.0938745
0.144239
0.115728
0.269571
0.114993
0.0972748
0.091499
0.102463
0.0904085
0.112731
0.0937916
0.144418
0.115497
0.271316
0.121837
0.0972788
0.0914994
0.102478
0.0903899
0.112779
0.0937251
0.144607
0.115347
0.273073
0.128596
0.0972827
0.0914994
0.102493
0.0903715
0.112828
0.0936618
0.144802
0.115217
0.2749
0.135253
0.0972866
0.0914991
0.102509
0.0903523
0.112877
0.0935949
0.144993
0.115061
0.276659
0.141795
0.0972904
0.0914985
0.102525
0.0903324
0.112924
0.0935246
0.145177
0.114879
0.278326
0.148189
0.0972943
0.0914976
0.102541
0.0903118
0.112971
0.0934507
0.145357
0.11467
0.279927
0.15433
0.0972981
0.0914962
0.102556
0.0902906
0.113017
0.0933736
0.145537
0.114441
0.281502
0.160336
0.0973018
0.0914951
0.10257
0.0902712
0.113063
0.0933038
0.145712
0.114252
0.282975
0.167069
-0.0352265
-0.0570035
-0.0641941
-0.101241
-0.115147
-0.176541
-0.208785
-0.282638
-0.358728
-0.383461
-0.0349389
-0.056452
-0.0638153
-0.100597
-0.114706
-0.175542
-0.207639
-0.278288
-0.35151
-0.338431
-0.0346447
-0.0558871
-0.0634187
-0.0999295
-0.114225
-0.1745
-0.206346
-0.273744
-0.343253
-0.296383
-0.0343435
-0.0553103
-0.063007
-0.0992438
-0.11371
-0.173429
-0.204935
-0.269117
-0.334151
-0.256036
-0.0340318
-0.0547161
-0.0625711
-0.0985259
-0.113141
-0.172299
-0.203374
-0.264397
-0.32432
-0.217457
-0.0337114
-0.0541081
-0.062111
-0.0977764
-0.112507
-0.171091
-0.201632
-0.259537
-0.313954
-0.180845
-0.033408
-0.0535269
-0.0616815
-0.0970796
-0.111914
-0.169951
-0.199874
-0.254585
-0.303058
-0.1452
-0.0331572
-0.0530229
-0.0613809
-0.0965751
-0.111607
-0.169218
-0.198531
-0.249879
-0.290858
-0.108027
-0.0328518
-0.0524208
-0.0610313
-0.095974
-0.111343
-0.168554
-0.197282
-0.245567
-0.27646
-0.0715589
-0.0320501
-0.0510581
-0.0596661
-0.0938834
-0.109204
-0.165408
-0.193206
-0.239787
-0.262925
-0.0512526
-0.0381763
-0.0627843
-0.0682836
-0.108555
-0.120184
-0.189431
-0.219121
-0.334437
-0.406789
-0.710172
-0.0379082
-0.0622608
-0.0679419
-0.107899
-0.119838
-0.188251
-0.218638
-0.32963
-0.40443
-0.672561
-0.0376341
-0.0617221
-0.0675791
-0.107218
-0.119446
-0.187028
-0.218008
-0.324645
-0.401365
-0.637725
-0.0373537
-0.0611698
-0.0671993
-0.106515
-0.119011
-0.185768
-0.217239
-0.319534
-0.397666
-0.604475
-0.0370663
-0.0606034
-0.0668016
-0.105791
-0.118533
-0.18447
-0.216329
-0.314308
-0.393362
-0.572545
-0.0367719
-0.0600229
-0.0663857
-0.105044
-0.118011
-0.183137
-0.21528
-0.308974
-0.388489
-0.541546
-0.0364698
-0.0594273
-0.0659491
-0.104272
-0.117438
-0.181756
-0.214078
-0.303509
-0.383109
-0.51163
-0.0361588
-0.0588138
-0.0654851
-0.103463
-0.116797
-0.180304
-0.21269
-0.297865
-0.377333
-0.484829
-0.0358392
-0.0581853
-0.0649995
-0.10263
-0.116106
-0.178814
-0.211172
-0.292169
-0.371316
-0.462807
-0.035519
-0.0575632
-0.0645451
-0.101854
-0.11551
-0.177499
-0.209807
-0.286975
-0.365191
-0.436106
-0.0407168
-0.0677335
-0.071675
-0.115116
-0.123409
-0.202287
-0.222529
-0.382951
-0.42353
-0.924625
-0.0404907
-0.0673007
-0.0714118
-0.114565
-0.123258
-0.201209
-0.222641
-0.378955
-0.423322
-0.89901
-0.0402585
-0.0668508
-0.071129
-0.113985
-0.123062
-0.200071
-0.222639
-0.374702
-0.422702
-0.875981
-0.0400202
-0.0663862
-0.0708269
-0.113376
-0.122821
-0.19887
-0.222521
-0.370212
-0.421625
-0.854361
-0.039775
-0.0659063
-0.0705043
-0.112739
-0.122532
-0.197608
-0.222277
-0.36549
-0.420117
-0.833924
-0.0395228
-0.0654112
-0.0701605
-0.112073
-0.122194
-0.196284
-0.221906
-0.360542
-0.41821
-0.814449
-0.039263
-0.0649007
-0.0697912
-0.111374
-0.121797
-0.194887
-0.221383
-0.355334
-0.415897
-0.796368
-0.0389951
-0.064375
-0.0693885
-0.110635
-0.121329
-0.193402
-0.220676
-0.349829
-0.413167
-0.781533
-0.03872
-0.063838
-0.068962
-0.109872
-0.120818
-0.191879
-0.219865
-0.344188
-0.410297
-0.770484
-0.0384431
-0.0632994
-0.0685755
-0.109159
-0.12041
-0.190517
-0.219304
-0.338977
-0.408173
-0.753267
-0.0428127
-0.0715633
-0.0739156
-0.119706
-0.124779
-0.210963
-0.222895
-0.412894
-0.433465
-1.01321
-0.0426244
-0.0712507
-0.0737599
-0.119398
-0.124764
-0.210541
-0.223009
-0.41146
-0.432875
-1.00072
-0.0424314
-0.0709201
-0.0735874
-0.119048
-0.124723
-0.209983
-0.22306
-0.409621
-0.432304
-0.990551
-0.0422338
-0.0705731
-0.0733977
-0.118662
-0.124647
-0.209303
-0.223101
-0.407344
-0.431508
-0.981566
-0.0420308
-0.0702092
-0.0731891
-0.118237
-0.124532
-0.208516
-0.22308
-0.404684
-0.430458
-0.973654
-0.0418223
-0.0698281
-0.072961
-0.117774
-0.124374
-0.207624
-0.22298
-0.401656
-0.429148
-0.966739
-0.0416073
-0.0694284
-0.0727101
-0.117269
-0.124164
-0.206619
-0.222768
-0.398233
-0.427503
-0.961385
-0.041385
-0.0690081
-0.0724323
-0.116717
-0.123888
-0.205492
-0.222405
-0.39438
-0.425472
-0.959277
-0.0411573
-0.0685712
-0.07214
-0.116135
-0.123584
-0.204297
-0.222008
-0.390261
-0.423504
-0.960394
-0.0409325
-0.0681389
-0.0718816
-0.11559
-0.123407
-0.203212
-0.222015
-0.386406
-0.422894
-0.954928
-0.0445875
-0.0739668
-0.0750355
-0.121607
-0.124268
-0.213439
-0.221202
-0.420052
-0.445387
-0.998906
-0.0444231
-0.073795
-0.0749894
-0.121572
-0.124465
-0.213585
-0.221625
-0.420631
-0.444953
-0.996447
-0.0442554
-0.0736065
-0.074926
-0.121497
-0.124624
-0.213631
-0.221976
-0.42089
-0.444409
-0.996321
-0.0440848
-0.0734025
-0.0748463
-0.121384
-0.124745
-0.213575
-0.222248
-0.420829
-0.443559
-0.997255
-0.0439108
-0.0731822
-0.0747484
-0.121231
-0.124823
-0.213415
-0.22243
-0.420441
-0.442421
-0.999239
-0.0437329
-0.0729453
-0.0746318
-0.121039
-0.124857
-0.213149
-0.222518
-0.419719
-0.44098
-1.00226
-0.0435504
-0.0726908
-0.0744931
-0.120801
-0.124839
-0.212764
-0.222483
-0.418614
-0.439141
-1.00687
-0.0433622
-0.0724169
-0.0743286
-0.120512
-0.124758
-0.212238
-0.222304
-0.417053
-0.436877
-1.01465
-0.0431709
-0.0721274
-0.0741516
-0.120189
-0.124658
-0.211622
-0.22212
-0.415181
-0.434695
-1.02553
-0.0429868
-0.0718397
-0.0740109
-0.119908
-0.124666
-0.211152
-0.222338
-0.413673
-0.433767
-1.03058
-0.0461873
-0.0749242
-0.0752376
-0.120524
-0.122228
-0.209061
-0.218189
-0.407204
-0.460705
-0.927454
-0.0460351
-0.0748899
-0.0752767
-0.120787
-0.122575
-0.209883
-0.218824
-0.409518
-0.460155
-0.930593
-0.0458803
-0.0748408
-0.0752984
-0.12101
-0.122879
-0.210608
-0.219353
-0.411578
-0.459465
-0.936014
-0.0457235
-0.0747781
-0.075305
-0.121198
-0.123144
-0.21124
-0.219779
-0.413384
-0.458421
-0.942286
-0.0455643
-0.0747011
-0.0752949
-0.121347
-0.123366
-0.211775
-0.220096
-0.414931
-0.457069
-0.949565
-0.0454027
-0.0746095
-0.0752678
-0.121458
-0.123544
-0.212212
-0.220302
-0.416212
-0.455391
-0.957861
-0.0452376
-0.0745024
-0.0752201
-0.121526
-0.123668
-0.212539
-0.220367
-0.41718
-0.453259
-0.967613
-0.045068
-0.0743783
-0.0751471
-0.121546
-0.123724
-0.212738
-0.220253
-0.417769
-0.450562
-0.98034
-0.0448966
-0.0742398
-0.0750617
-0.121531
-0.123754
-0.212853
-0.220089
-0.418115
-0.447743
-0.996383
-0.0447358
-0.074101
-0.0750182
-0.121542
-0.123919
-0.213065
-0.220369
-0.418815
-0.446097
-1.00774
-0.0476716
-0.0746546
-0.0747667
-0.116858
-0.118942
-0.199186
-0.212565
-0.384433
-0.476928
-0.85416
-0.0475304
-0.0747309
-0.0748701
-0.117359
-0.119428
-0.200506
-0.213592
-0.387411
-0.476606
-0.857677
-0.0473861
-0.0747947
-0.0749548
-0.117823
-0.119863
-0.201729
-0.214466
-0.39017
-0.476085
-0.863319
-0.0472398
-0.074848
-0.0750252
-0.118255
-0.120256
-0.202872
-0.215211
-0.392738
-0.475143
-0.869433
-0.0470915
-0.0748898
-0.0750802
-0.118656
-0.120604
-0.203932
-0.215827
-0.395129
-0.473887
-0.876474
-0.046941
-0.0749201
-0.0751194
-0.119023
-0.120908
-0.20491
-0.216315
-0.397341
-0.47231
-0.884478
-0.0467874
-0.074938
-0.0751398
-0.119354
-0.121158
-0.205794
-0.216646
-0.399331
-0.470283
-0.893694
-0.0466294
-0.0749421
-0.0751355
-0.119643
-0.121337
-0.206565
-0.216766
-0.401019
-0.467652
-0.905507
-0.0464695
-0.074934
-0.0751163
-0.119898
-0.121476
-0.207255
-0.216773
-0.402535
-0.464698
-0.920775
-0.0463214
-0.0749255
-0.0751392
-0.120178
-0.121742
-0.208051
-0.217174
-0.404519
-0.462459
-0.932818
-0.0489887
-0.0735408
-0.0738273
-0.111565
-0.114661
-0.186152
-0.203984
-0.363843
-0.493839
-0.826242
-0.0488857
-0.0737207
-0.0740019
-0.112239
-0.115297
-0.187801
-0.205427
-0.366531
-0.493799
-0.827756
-0.0487493
-0.0738455
-0.0741147
-0.112824
-0.115802
-0.189259
-0.206515
-0.368635
-0.492463
-0.827135
-0.0486175
-0.073969
-0.074225
-0.113394
-0.116288
-0.190675
-0.207555
-0.370801
-0.491463
-0.828562
-0.0484858
-0.0740875
-0.0743245
-0.113943
-0.116737
-0.192025
-0.208484
-0.372877
-0.490319
-0.831166
-0.0483515
-0.0741977
-0.0744094
-0.114465
-0.117143
-0.193304
-0.209287
-0.374833
-0.488897
-0.834463
-0.0482139
-0.0742988
-0.0744773
-0.114959
-0.117497
-0.194502
-0.209944
-0.376637
-0.487117
-0.838565
-0.0480717
-0.0743895
-0.0745212
-0.115416
-0.117779
-0.195594
-0.210382
-0.378183
-0.484839
-0.844699
-0.0479264
-0.0744705
-0.074547
-0.115843
-0.118005
-0.196604
-0.210652
-0.379577
-0.482204
-0.854176
-0.0477921
-0.0745533
-0.0746114
-0.116299
-0.118345
-0.197742
-0.211267
-0.381552
-0.479796
-0.861659
-0.00410037
0.0172041
-0.00744117
0.0426426
-0.0219211
0.0702991
-0.0566798
0.0888628
-0.128936
0.0659717
-0.00409249
0.0171817
-0.00742494
0.0425945
-0.0218806
0.0701983
-0.0566178
0.0886636
-0.129073
0.0663331
-0.00408411
0.0171584
-0.00740905
0.0425413
-0.0218456
0.0700845
-0.056573
0.08844
-0.129264
0.0665993
-0.00407575
0.0171346
-0.00739404
0.0424873
-0.0218126
0.06997
-0.0565311
0.0882153
-0.129466
0.0668577
-0.0040674
0.0171105
-0.00737944
0.0424332
-0.0217799
0.0698561
-0.0564883
0.0879902
-0.129672
0.0671275
-0.00405901
0.0170861
-0.00736522
0.042379
-0.0217477
0.0697423
-0.0564459
0.0877639
-0.12989
0.0674171
-0.00405063
0.0170615
-0.00735136
0.0423248
-0.0217159
0.0696292
-0.0564034
0.0875376
-0.130104
0.0676851
-0.00404213
0.0170367
-0.00733652
0.0422693
-0.0216809
0.0695124
-0.0563549
0.087297
-0.130262
0.0677599
-0.00403279
0.0170101
-0.00731884
0.0422071
-0.0216414
0.0693776
-0.0563032
0.0870118
-0.130449
0.0677793
-0.00402265
0.0169798
-0.0073079
0.0421412
-0.0216271
0.0692451
-0.0563019
0.086769
-0.131196
0.0692183
-0.00416662
0.0174093
-0.00753754
0.0430824
-0.0221546
0.0711906
-0.0570031
0.0904308
-0.127305
0.0640857
-0.00416072
0.0173917
-0.00752747
0.0430447
-0.0221294
0.071114
-0.0569651
0.0902984
-0.127431
0.0643048
-0.00415428
0.0173728
-0.00751691
0.0430025
-0.0221061
0.0710261
-0.0569365
0.0901435