/*--------------------------------*- C++ -*----------------------------------*\
  =========                 |
  \\      /  F ield         | OpenFOAM: The Open Source CFD Toolbox
   \\    /   O peration     | Website:  https://openfoam.org
    \\  /    A nd           | Version:  10
     \\/     M anipulation  |
\*---------------------------------------------------------------------------*/
FoamFile
{
    format      ascii;
    class       surfaceScalarField;
    location    "10";
    object      phi;
}
// * * * * * * * * * * * * * * * * * * * * * * * * * * * * * * * * * * * * * //

dimensions      [0 3 -1 0 0 0 0];

internalField   nonuniform List<scalar> 
6840
(
-0.00102339
0.000318379
-0.000353398
-0.000970177
0.000485174
-0.00053839
-0.000896893
0.000667903
-0.000741187
-0.000822532
0.000680159
-0.00075452
-0.000717841
0.000955751
-0.00106044
-0.000635123
0.000758201
-0.000840919
-0.000502187
0.00120975
-0.00134268
-0.000429232
0.00066201
-0.000734965
-0.000326478
0.000805123
-0.000907876
0.00297829
-0.00330476
-0.00102314
0.000283259
-0.000969719
0.000431758
-0.000896172
0.000594355
-0.000821462
0.000605449
-0.000716347
0.000850636
-0.000633187
0.000675041
-0.000499831
0.00107639
-0.000426686
0.000588865
-0.000327587
0.000706024
0.0026507
-0.0010229
0.000248048
-0.000969313
0.000378167
-0.00089553
0.000520572
-0.000820512
0.000530432
-0.000715014
0.000745138
-0.000631468
0.000591495
-0.000497733
0.000942654
-0.000424434
0.000515566
-0.000328638
0.000610228
0.00232206
-0.0010227
0.000212757
-0.000968958
0.000324422
-0.000894968
0.000446582
-0.000819682
0.000455146
-0.000713849
0.000639305
-0.000629964
0.00050761
-0.0004959
0.00080859
-0.000422474
0.00044214
-0.000329615
0.000517369
0.00199245
-0.00102253
0.000177398
-0.000968654
0.000270546
-0.000894487
0.000372415
-0.000818971
0.00037963
-0.000712851
0.000533185
-0.000628678
0.000423437
-0.000494334
0.000674246
-0.000420802
0.000368608
-0.000330504
0.000427071
0.00166194
-0.00102239
0.000141983
-0.000968401
0.000216562
-0.000894088
0.000298102
-0.000818382
0.000303924
-0.000712024
0.000426827
-0.000627613
0.000339025
-0.000493036
0.000539669
-0.000419419
0.000294991
-0.00033129
0.000338942
0.00133065
-0.00102227
0.000106523
-0.000968201
0.000162492
-0.000893772
0.000223673
-0.000817916
0.000228068
-0.000711369
0.00032028
-0.000626769
0.000254425
-0.000492009
0.000404909
-0.000418323
0.000221306
-0.000331964
0.000252583
0.000998688
-0.00102219
7.10316e-05
-0.000968053
0.000108359
-0.000893539
0.000149159
-0.000817573
0.000152102
-0.000710887
0.000213594
-0.000626149
0.000169687
-0.000491252
0.000270013
-0.000417515
0.000147569
-0.000332517
0.000167585
0.000666171
-0.00102213
3.55197e-05
-0.000967958
5.41875e-05
-0.00089339
7.45908e-05
-0.000817354
7.60655e-05
-0.000710578
0.000106818
-0.000625753
8.48617e-05
-0.000490768
0.000135028
-0.000416994
7.37947e-05
-0.000332941
8.35313e-05
0.000333231
-0.0010221
-5.90801e-10
-0.000967916
-5.55922e-10
-0.000893325
-1.55647e-10
-0.00081726
4.65883e-10
-0.000710443
8.61927e-10
-0.000625583
1.07657e-09
-0.000490556
7.30788e-10
-0.000416761
1.56299e-10
-0.00033323
2.64562e-10
5.21465e-10
-0.00098763
0.000651534
-0.000683874
-0.000939051
0.000989237
-0.00103782
-0.000872064
0.00136235
-0.00142934
-0.000805128
0.00138084
-0.00144777
-0.000710309
0.00194414
-0.00203896
-0.000636682
0.0015346
-0.00160823
-0.000515298
0.00246871
-0.0025901
-0.00044918
0.00135108
-0.0014172
-0.00029771
0.00202516
-0.00217663
0.00604007
-0.00633778
-0.000987168
0.000619015
-0.00093824
0.000940309
-0.000870794
0.00129491
-0.000803247
0.00131329
-0.000707666
0.00184856
-0.00063324
0.00146018
-0.000510992
0.00234646
-0.000444267
0.00128435
-0.000298731
0.00187962
0.00574133
-0.000986725
0.000586323
-0.000937467
0.00089105
-0.000869576
0.00122701
-0.000801453
0.00124517
-0.000705135
0.00175224
-0.000629957
0.001385
-0.00050688
0.00222339
-0.000439613
0.00121709
-0.000299868
0.00173988
0.00544147
-0.000986304
0.000553468
-0.000936731
0.000841477
-0.000868418
0.0011587
-0.000799744
0.00117649
-0.000702724
0.00165522
-0.000626832
0.00130911
-0.000502974
0.00209953
-0.000435217
0.00114933
-0.000301101
0.00160576
0.00514037
-0.000985905
0.000520457
-0.000936034
0.000791606
-0.000867319
0.00108999
-0.000798123
0.0011073
-0.000700436
0.00155754
-0.000623867
0.00123254
-0.000499278
0.00197494
-0.000431078
0.00108113
-0.00030241
0.00147709
0.00483796
-0.000985528
0.0004873
-0.000935376
0.000741455
-0.000866281
0.00102089
-0.000796592
0.00103761
-0.000698277
0.00145922
-0.000621069
0.00115533
-0.000495796
0.00184966
-0.000427199
0.00101253
-0.000303779
0.00135368
0.00453418
-0.000985174
0.000454006
-0.000934758
0.00069104
-0.000865307
0.000951439
-0.000795154
0.000967454
-0.000696247
0.00136031
-0.000618441
0.00107752
-0.000492531
0.00172375
-0.000423579
0.000943581
-0.000305191
0.00123529
0.00422899
-0.000984843
0.000420585
-0.000934182
0.000640379
-0.000864398
0.000881655
-0.000793812
0.000896868
-0.000694352
0.00126085
-0.000615988
0.00099916
-0.000489489
0.00159726
-0.000420221
0.000874313
-0.000306629
0.0011217
0.00392236
-0.000984536
0.000387045
-0.000933647
0.00058949
-0.000863554
0.000811562
-0.000792566
0.00082588
-0.000692594
0.00116088
-0.000613713
0.000920279
-0.000486672
0.00147021
-0.000417123
0.000804764
-0.000308076
0.00101265
0.00361428
-0.000984254
-0.000933154
-0.00086278
-0.000791419
-0.000690979
-0.000611619
-0.000484087
-0.000414288
-0.000309516
-0.000914746
0.000945796
-0.000973954
-0.000873164
0.00142829
-0.00146987
-0.000815729
0.00196806
-0.0020255
-0.0007597
0.00198059
-0.00203662
-0.000679898
0.00279483
-0.00287464
-0.000619816
0.00218826
-0.00224834
-0.000517824
0.00355697
-0.00365896
-0.000464717
0.001934
-0.00198711
-0.000262298
0.00373123
-0.00393365
0.00871215
-0.00897445
-0.000914223
0.000917437
-0.000872254
0.00138632
-0.000814311
0.00191012
-0.000757604
0.00192388
-0.000676924
0.00271415
-0.000615903
0.00212724
-0.000512737
0.0034538
-0.000458641
0.00187991
-0.000262184
0.00353477
0.00844997
-0.00091371
0.000888881
-0.000871366
0.00134398
-0.000812918
0.00185167
-0.000755555
0.00186652
-0.000674002
0.0026326
-0.000612075
0.00206531
-0.000507755
0.00334948
-0.000452728
0.00182488
-0.000262248
0.00334429
0.00818772
-0.000913208
0.000860132
-0.000870497
0.00130127
-0.000811555
0.00179273
-0.000753549
0.00180851
-0.000671141
0.00255019
-0.000608328
0.0020025
-0.000502891
0.00324405
-0.000446976
0.00176897
-0.000262469
0.00315979
0.00792525
-0.000912719
0.000831195
-0.00086965
0.0012582
-0.000810223
0.0017333
-0.000751587
0.00174987
-0.000668344
0.00246695
-0.000604666
0.00193882
-0.000498149
0.00313753
-0.000441388
0.00171221
-0.000262839
0.00298124
0.00766241
-0.000912242
0.000802075
-0.000868824
0.00121478
-0.000808925
0.0016734
-0.000749673
0.00169062
-0.000665616
0.00238289
-0.000601093
0.00187429
-0.000493534
0.00302997
-0.00043597
0.00165464
-0.000263354
0.00280862
0.00739906
-0.000911779
0.000772777
-0.000868022
0.00117103
-0.000807662
0.00161304
-0.00074781
0.00163077
-0.000662958
0.00229804
-0.000597615
0.00180895
-0.000489052
0.00292141
-0.000430727
0.00159632
-0.000264009
0.00264191
0.00713505
-0.000911329
0.000743307
-0.000867242
0.00112694
-0.000806435
0.00155224
-0.000745999
0.00157033
-0.000660376
0.00221242
-0.000594235
0.00174281
-0.000484707
0.00281188
-0.000425664
0.00153727
-0.000264798
0.00248104
0.00687025
-0.000910894
0.00071367
-0.000866488
0.00108253
-0.000805247
0.00149099
-0.000744243
0.00150933
-0.000657872
0.00212605
-0.000590959
0.0016759
-0.000480505
0.00270143
-0.000420786
0.00147755
-0.000265716
0.00232597
0.00660454
-0.000910474
-0.000865758
-0.000804101
-0.000742542
-0.000655455
-0.000587788
-0.000476457
-0.000416099
-0.000266761
-0.000805936
0.00119089
-0.00121413
-0.000772134
0.00178762
-0.00182142
-0.000725661
0.00246424
-0.00251071
-0.000681296
0.00245949
-0.00250385
-0.0006188
0.00347513
-0.00353762
-0.000573146
0.00269328
-0.00273893
-0.000495452
0.004417
-0.00449469
-0.000456254
0.00237246
-0.00241166
-0.000223454
0.00581754
-0.00605034
0.0109556
-0.0111791
-0.000805452
0.00116745
-0.000771405
0.00175357
-0.00072437
0.0024172
-0.000679631
0.00241475
-0.000616052
0.00341155
-0.00056995
0.00264718
-0.000490466
0.00433752
-0.000451241
0.00233323
-0.000222045
0.00558834
0.0107336
-0.000805001
0.00114385
-0.000770633
0.00171921
-0.000723163
0.00236973
-0.000677856
0.00236944
-0.000613479
0.00334717
-0.000566531
0.00260023
-0.000485821
0.00425681
-0.000445704
0.00229312
-0.000221344
0.00536398
0.0105122
-0.000804554
0.00112007
-0.000769867
0.00168452
-0.000721965
0.00232183
-0.000676091
0.00232357
-0.00061092
0.003282
-0.000563129
0.00255244
-0.000481209
0.00417489
-0.000440179
0.00225209
-0.000220757
0.00514456
0.0102915
-0.000804112
0.00109612
-0.000769109
0.00164952
-0.000720776
0.0022735
-0.000674339
0.00227713
-0.000608378
0.00321604
-0.00055975
0.00250381
-0.000476635
0.00409177
-0.000434699
0.00221015
-0.00022024
0.0049301
0.0100712
-0.000803675
0.00107201
-0.000768359
0.0016142
-0.000719598
0.00222474
-0.0006726
0.00223013
-0.000605856
0.00314929
-0.000556397
0.00245435
-0.000472105
0.00400748
-0.000429271
0.00216732
-0.000219812
0.00472064
0.00985143
-0.000803243
0.00104774
-0.000767617
0.00157858
-0.000718432
0.00217555
-0.000670877
0.00218258
-0.000603356
0.00308177
-0.000553073
0.00240406
-0.000467624
0.00392203
-0.000423895
0.00212359
-0.00021948
0.00451623
0.00963195
-0.000802816
0.0010233
-0.000766885
0.00154264
-0.000717279
0.00212595
-0.000669172
0.00213447
-0.000600882
0.00301348
-0.000549781
0.00235296
-0.000463196
0.00383545
-0.000418579
0.00207897
-0.000219248
0.00431689
0.0094127
-0.000802396
0.000998705
-0.000766162
0.00150641
-0.000716141
0.00207592
-0.000667486
0.00208582
-0.000598435
0.00294443
-0.000546526
0.00230105
-0.000458825
0.00374774
-0.000413331
0.00203348
-0.000219123
0.00412269
0.00919357
-0.000801983
-0.000765448
-0.000715021
-0.000665818
-0.000596024
-0.000543307
-0.000454524
-0.000408159
-0.000219123
-8.91396e-05
0.0180969
-0.0180236
-0.00016004
0.0183863
-0.0183154
-0.000232073
0.018533
-0.018461
-0.000299909
0.0188992
-0.0188313
-0.000368291
0.0190759
-0.0190075
-0.000426477
0.0196143
-0.0195561
-0.000483443
0.0198328
-0.0197758
-0.000497581
0.0207589
-0.0207448
-0.000421114
0.02011
-0.0201865
0.0140697
-0.0144908
-8.8724e-05
0.0181702
-0.000159476
0.018457
-0.000231283
0.0186048
-0.00029864
0.0189665
-0.000366291
0.0191435
-0.000423128
0.0196711
-0.000477496
0.0198872
-0.000487183
0.0207686
-0.000404753
0.0200276
0.013665
-8.83048e-05
0.0182435
-0.000158928
0.0185276
-0.000230488
0.0186764
-0.000297401
0.0190334
-0.000364287
0.0192104
-0.00041983
0.0197267
-0.000471553
0.0199389
-0.000476858
0.0207739
-0.000387703
0.0199385
0.0132773
-8.78905e-05
0.0183167
-0.000158385
0.0185981
-0.000229696
0.0187477
-0.000296161
0.0190999
-0.000362272
0.0192765
-0.000416495
0.0197809
-0.000465538
0.0199879
-0.000466479
0.0207749
-0.000371026
0.019843
0.0129062
-8.74823e-05
0.0183899
-0.000157847
0.0186685
-0.000228905
0.0188188
-0.000294917
0.0191659
-0.000360236
0.0193419
-0.000413099
0.0198338
-0.000459396
0.0200342
-0.000455955
0.0207714
-0.000354804
0.0197418
0.0125514
-8.70832e-05
0.018463
-0.000157318
0.0187387
-0.000228121
0.0188896
-0.000293674
0.0192315
-0.000358188
0.0194064
-0.000409654
0.0198852
-0.000453145
0.0200777
-0.000445297
0.0207636
-0.000338907
0.0196355
0.0122125
-8.67007e-05
0.0185361
-0.000156807
0.0188088
-0.000227354
0.0189601
-0.000292447
0.0192965
-0.000356147
0.0194701
-0.000406186
0.0199353
-0.000446824
0.0201184
-0.000434564
0.0207513
-0.000323364
0.0195243
0.0118892
-8.63536e-05
0.0186092
-0.000156334
0.0188788
-0.00022663
0.0190304
-0.00029127
0.0193612
-0.000354157
0.019533
-0.000402758
0.0199839
-0.000440515
0.0201561
-0.000423857
0.0207347
-0.000308271
0.0194087
0.0115809
-8.60891e-05
0.0186822
-0.000155958
0.0189487
-0.000226021
0.0191005
-0.000290242
0.0194254
-0.000352356
0.0195951
-0.000399572
0.0200311
-0.00043451
0.0201911
-0.000413561
0.0207137
-0.000294049
0.0192892
0.0112868
-8.59717e-05
0.0187551
-0.000155908
0.0190186
-0.000225648
0.0191702
-0.000289802
0.0194896
-0.000351073
0.0196563
-0.000397639
0.0200777
-0.000429922
0.0202233
-0.000406038
0.0206898
-0.000282741
0.0191659
0.0110041
-7.90255e-05
0.0175249
-0.0174693
-0.000132581
0.0178408
-0.0177872
-0.000187353
0.0179795
-0.0179248
-0.000239056
0.0183883
-0.0183366
-0.000292093
0.0185629
-0.0185098
-0.000338008
0.0192
-0.0191541
-0.000389286
0.0194152
-0.019364
-0.000411494
0.0207237
-0.0207015
-0.000386195
0.0206524
-0.0206777
0.0172913
-0.0176775
-7.84344e-05
0.0175805
-0.00013181
0.0178941
-0.000186349
0.0180341
-0.000237537
0.0184395
-0.000289897
0.0186152
-0.000334528
0.0192447
-0.000383708
0.0194644
-0.000401733
0.0207417
-0.000370981
0.0206217
0.0169203
-7.78392e-05
0.017636
-0.000131055
0.0179473
-0.000185338
0.0180883
-0.000236044
0.0184902
-0.000287691
0.0186669
-0.000331097
0.0192881
-0.000378112
0.0195114
-0.000392125
0.0207558
-0.000355287
0.0205848
0.016565
-7.72486e-05
0.0176915
-0.000130304
0.0180004
-0.00018433
0.0181424
-0.000234552
0.0185404
-0.000285477
0.0187178
-0.000327646
0.0193302
-0.000372459
0.0195562
-0.000382545
0.0207658
-0.000339921
0.0205422
0.0162251
-7.66621e-05
0.017747
-0.000129557
0.0180533
-0.000183323
0.0181961
-0.000233056
0.0185901
-0.000283246
0.018768
-0.000324157
0.0193712
-0.000366708
0.0195988
-0.000372894
0.020772
-0.000324959
0.0204943
0.0159001
-7.60806e-05
0.0178024
-0.000128815
0.018106
-0.000182319
0.0182496
-0.000231559
0.0186394
-0.000281
0.0188174
-0.000320631
0.0194108
-0.000360864
0.019639
-0.000363158
0.0207743
-0.000310269
0.0204414
0.0155899
-7.55039e-05
0.0178578
-0.000128078
0.0181586
-0.000181316
0.0183029
-0.00023006
0.0186881
-0.000278743
0.0188661
-0.000317073
0.0194491
-0.000354939
0.0196769
-0.000353346
0.0207727
-0.000295794
0.0203838
0.0152941
-7.49322e-05
0.0179131
-0.000127347
0.018211
-0.000180317
0.0183559
-0.000228562
0.0187364
-0.000276474
0.018914
-0.000313485
0.0194861
-0.000348939
0.0197123
-0.000343466
0.0207673
-0.000281573
0.0203219
0.0150125
-7.43659e-05
0.0179684
-0.00012662
0.0182633
-0.000179319
0.0184085
-0.000227061
0.0187841
-0.000274191
0.0189612
-0.000309865
0.0195218
-0.000342862
0.0197453
-0.000333538
0.0207579
-0.000267716
0.0202561
0.0147448
-7.38083e-05
-0.000125895
-0.000178327
-0.000225553
-0.000271894
-0.000306209
-0.000336702
-0.000323564
-0.000253951
-6.81217e-05
0.0171485
-0.0171126
-0.000102727
0.0174845
-0.0174499
-0.000138391
0.0176155
-0.0175799
-0.000172627
0.0180519
-0.0180177
-0.000208034
0.0182209
-0.0181855
-0.00024074
0.0189175
-0.0188848
-0.00027988
0.0190899
-0.0190507
-0.000307737
0.0206293
-0.0206015
-0.000316408
0.0208142
-0.0208055
0.0198894
-0.0202058
-6.73836e-05
0.0171844
-0.000101785
0.0175189
-0.000137201
0.017651
-0.000170906
0.0180856
-0.000205688
0.0182557
-0.0002371
0.0189489
-0.000274628
0.0191274
-0.000298257
0.020653
-0.000301929
0.0208179
0.0195875
-6.66431e-05
0.0172201
-0.000100852
0.0175531
-0.000136007
0.0176861
-0.000169198
0.0181188
-0.000203332
0.0182899
-0.000233482
0.0189791
-0.000269344
0.0191633
-0.000288914
0.0206725
-0.000287292
0.0208163
0.0193002
-6.5905e-05
0.0172559
-9.99223e-05
0.0175871
-0.000134814
0.017721
-0.00016749
0.0181515
-0.000200968
0.0183233
-0.00022985
0.0190079
-0.000264008
0.0191974
-0.000279638
0.0206882
-0.00027294
0.0208096
0.0190273
-6.51695e-05
0.0172916
-9.89952e-05
0.0176209
-0.000133623
0.0177556
-0.00016578
0.0181836
-0.000198591
0.0183561
-0.000226195
0.0190355
-0.000258596
0.0192298
-0.000270354
0.0206999
-0.000258904
0.0207981
0.0187683
-6.4437e-05
0.0173272
-9.80719e-05
0.0176546
-0.000132433
0.01779
-0.000164069
0.0182153
-0.000196201
0.0183883
-0.000222518
0.0190619
-0.000253116
0.0192604
-0.000261036
0.0207078
-0.000245092
0.0207822
0.0185233
-6.37082e-05
0.0173628
-9.71523e-05
0.017688
-0.000131246
0.0178241
-0.000162358
0.0182464
-0.000193803
0.0184197
-0.000218825
0.0190869
-0.000247576
0.0192892
-0.000251683
0.0207119
-0.000231455
0.0207619
0.0182918
-6.2983e-05
0.0173984
-9.62375e-05
0.0177213
-0.000130062
0.0178579
-0.000160649
0.018277
-0.000191397
0.0184505
-0.000215118
0.0191106
-0.000241985
0.019316
-0.000242292
0.0207122
-0.000217988
0.0207376
0.0180738
-6.22618e-05
0.0174339
-9.53276e-05
0.0177543
-0.000128881
0.0178915
-0.000158941
0.018307
-0.000188983
0.0184805
-0.000211399
0.019133
-0.000236341
0.019341
-0.000232861
0.0207088
-0.000204732
0.0207095
0.0178691
-6.15477e-05
-9.44204e-05
-0.000127706
-0.00015723
-0.000186562
-0.000207666
-0.000230635
-0.000223389
-0.000191596
-5.60825e-05
0.0169802
-0.0169652
-7.07804e-05
0.0173275
-0.0173128
-8.62743e-05
0.0174527
-0.0174372
-0.000102027
0.0178996
-0.0178839
-0.000118297
0.0180668
-0.0180505
-0.000137379
0.0187718
-0.0187527
-0.000159546
0.0189125
-0.0188903
-0.000193445
0.0204831
-0.0204492
-0.000222004
0.0207425
-0.0207139
0.0215929
-0.0218149
-5.52691e-05
0.0169952
-6.97446e-05
0.017342
-8.49647e-05
0.017468
-0.000100201
0.0179148
-0.000115868
0.0180824
-0.000133677
0.0187896
-0.000154561
0.0189334
-0.000184135
0.0205127
-0.000208086
0.0207664
0.0213848
-5.44547e-05
0.0170101
-6.8708e-05
0.0173562
-8.3655e-05
0.0174829
-9.83706e-05
0.0179296
-0.000113433
0.0180975
-0.000129955
0.0188061
-0.000149534
0.0189529
-0.00017487
0.020538
-0.000194313
0.0207859
0.0211905
-5.36392e-05
0.0170249
-6.76709e-05
0.0173703
-8.23451e-05
0.0174976
-9.65354e-05
0.0179438
-0.000110987
0.0181119
-0.000126209
0.0188213
-0.00014445
0.0189712
-0.000165655
0.0205592
-0.000180717
0.0208009
0.0210098
-5.28233e-05
0.0170397
-6.6634e-05
0.0173841
-8.10347e-05
0.017512
-9.46957e-05
0.0179574
-0.000108532
0.0181258
-0.00012244
0.0188352
-0.000139308
0.018988
-0.000156445
0.0205764
-0.000167256
0.0208117
0.0208425
-5.20072e-05
0.0170544
-6.55979e-05
0.0173977
-7.97249e-05
0.0175261
-9.28533e-05
0.0179705
-0.000106067
0.018139
-0.000118652
0.0188478
-0.000134115
0.0190035
-0.000147215
0.0205895
-0.000153886
0.0208184
0.0206887
-5.11913e-05
0.0170691
-6.45631e-05
0.0174111
-7.84162e-05
0.01754
-9.10096e-05
0.0179831
-0.000103596
0.0181516
-0.000114849
0.0188591
-0.000128877
0.0190175
-0.000137951
0.0205986
-0.000140576
0.020821
0.0205481
-5.03762e-05
0.0170836
-6.35303e-05
0.0174242
-7.71094e-05
0.0175535
-8.91655e-05
0.0179952
-0.000101121
0.0181635
-0.000111036
0.018869
-0.000123602
0.0190301
-0.000128643
0.0206036
-0.000127307
0.0208197
0.0204208
-4.9562e-05
0.0170982
-6.24999e-05
0.0174371
-7.58054e-05
0.0175668
-8.73226e-05
0.0180067
-9.8641e-05
0.0181749
-0.000107214
0.0188776
-0.000118295
0.0190412
-0.000119278
0.0206046
-0.000114079
0.0208145
0.0203067
-4.87512e-05
-6.14723e-05
-7.45066e-05
-8.54807e-05
-9.61597e-05
-0.000103391
-0.000112955
-0.000109846
-0.00010088
-4.22237e-05
0.0170236
-0.0170296
-3.67303e-05
0.0173733
-0.0173788
-3.18038e-05
0.0174944
-0.0174993
-2.82987e-05
0.0179388
-0.0179423
-2.51723e-05
0.0181042
-0.0181074
-2.92843e-05
0.0187751
-0.0187709
-3.32125e-05
0.0189022
-0.0188983
-7.25504e-05
0.0202941
-0.0202547
-0.000110886
0.0205268
-0.0204885
0.0222406
-0.0223515
-4.14275e-05
0.0170174
-3.56941e-05
0.0173676
-3.04719e-05
0.0174891
-2.64775e-05
0.0179348
-2.2755e-05
0.0181005
-2.56863e-05
0.018778
-2.8509e-05
0.018905
-6.35779e-05
0.0203291
-9.79724e-05
0.0205612
0.0221426
-4.06309e-05
0.0170112
-3.46484e-05
0.0173616
-2.91422e-05
0.0174836
-2.46367e-05
0.0179303
-2.03341e-05
0.0180962
-2.202e-05
0.0187797
-2.37571e-05
0.0189067
-5.45132e-05
0.0203599
-8.54212e-05
0.0205921
0.0220572
-3.98302e-05
0.0170049
-3.35993e-05
0.0173553
-2.78097e-05
0.0174778
-2.27854e-05
0.0179252
-1.79066e-05
0.0180913
-1.83041e-05
0.0187801
-1.89666e-05
0.0189074
-4.54076e-05
0.0203863
-7.28484e-05
0.0206195
0.0219844
-3.90254e-05
0.0169985
-3.25474e-05
0.0173489
-2.64758e-05
0.0174718
-2.09267e-05
0.0179197
-1.54771e-05
0.0180859
-1.45418e-05
0.0187791
-1.41606e-05
0.018907
-3.62301e-05
0.0204084
-6.01747e-05
0.0206435
0.0219242
-3.82173e-05
0.016992
-3.14934e-05
0.0173421
-2.51412e-05
0.0174654
-1.9061e-05
0.0179136
-1.3049e-05
0.0180799
-1.07289e-05
0.0187768
-9.36593e-06
0.0189057
-2.69336e-05
0.020426
-4.7426e-05
0.020664
0.0218768
-3.7406e-05
0.0169854
-3.04377e-05
0.0173352
-2.38066e-05
0.0174588
-1.71891e-05
0.017907
-1.06258e-05
0.0180733
-6.84932e-06
0.018773
-4.6377e-06
0.0189035
-1.74513e-05
0.0204388
-3.4631e-05
0.0206811
0.0218421
-3.65918e-05
0.0169788
-2.93807e-05
0.017328
-2.24728e-05
0.0174519
-1.53123e-05
0.0178998
-8.21251e-06
0.0180662
-2.84379e-06
0.0187677
-2.53325e-07
0.0189009
-7.61195e-06
0.0204461
-2.18358e-05
0.0206954
0.0218203
-3.57756e-05
0.016972
-2.83238e-05
0.0173205
-2.11407e-05
0.0174447
-1.34315e-05
0.0178921
-5.8177e-06
0.0180586
1.1321e-06
0.0187607
5.47544e-06
0.0188965
2.37133e-06
0.0204492
-9.20838e-06
0.020707
0.0218111
-3.49578e-05
-2.72685e-05
-1.98127e-05
-1.15502e-05
-3.45976e-06
4.57381e-06
1.07935e-05
1.08134e-05
3.8407e-06
-2.59269e-05
0.0172736
-0.0173002
-4.13527e-07
0.0176191
-0.0176446
2.43341e-05
0.0177367
-0.0177615
4.72503e-05
0.0181686
-0.0181915
6.94512e-05
0.018337
-0.0183592
8.19019e-05
0.018925
-0.0189374
9.48014e-05
0.0190799
-0.0190928
5.37515e-05
0.0200383
-0.0199972
1.32197e-05
0.0202929
-0.0202524
0.0216956
-0.0216824
-2.52279e-05
0.017247
5.34061e-07
0.0175933
2.56034e-05
0.0177117
4.89341e-05
0.0181453
7.18127e-05
0.0183141
8.5081e-05
0.0189117
9.94079e-05
0.0190656
6.15436e-05
0.0200762
2.47103e-05
0.0203297
0.0217203
-2.45294e-05
0.0172202
1.44283e-06
0.0175673
2.68713e-05
0.0176862
5.06467e-05
0.0181215
7.41843e-05
0.0182905
8.83475e-05
0.0188975
0.000104111
0.0190498
6.9536e-05
0.0201107
3.58293e-05
0.0203634
0.0217561
-2.38246e-05
0.0171933
2.37979e-06
0.0175411
2.81433e-05
0.0176605
5.2369e-05
0.0180973
7.65691e-05
0.0182663
9.16615e-05
0.0188824
0.000108887
0.0190326
7.76387e-05
0.020142
4.72751e-05
0.0203938
0.0218034
-2.31141e-05
0.0171662
3.33064e-06
0.0175147
2.94178e-05
0.0176344
5.40971e-05
0.0180726
7.89584e-05
0.0182415
9.50075e-05
0.0188664
0.000113705
0.0190139
8.58465e-05
0.0201698
5.91787e-05
0.0204205
0.0218626
-2.2398e-05
0.0171391
4.29019e-06
0.017488
3.06941e-05
0.017608
5.58302e-05
0.0180474
8.13504e-05
0.018216
9.83818e-05
0.0188494
0.000118557
0.0189937
9.41748e-05
0.0201942
7.14857e-05
0.0204432
0.0219341
-2.16768e-05
0.0171119
5.25665e-06
0.0174611
3.19717e-05
0.0175813
5.75679e-05
0.0180218
8.37447e-05
0.0181898
0.000101783
0.0188313
0.00012344
0.0189721
0.000102636
0.020215
8.41824e-05
0.0204616
0.0220183
-2.09508e-05
0.0170846
6.22796e-06
0.0174339
3.32502e-05
0.0175542
5.93093e-05
0.0179958
8.61391e-05
0.018163
0.000105208
0.0188123
0.000128348
0.0189489
0.000111236
0.0202321
9.73097e-05
0.0204755
0.0221156
-2.02206e-05
0.0170571
7.20298e-06
0.0174064
3.45276e-05
0.0175269
6.10521e-05
0.0179693
8.853e-05
0.0181355
0.000108651
0.0187921
0.000133266
0.0189243
0.000119977
0.0202454
0.000110924
0.0204846
0.0222265
-1.94861e-05
8.17771e-06
3.58023e-05
6.27908e-05
9.09111e-05
0.000112101
0.000138163
0.000128854
0.000124991
-7.01749e-06
0.0177184
-0.0177643
3.71162e-05
0.0180535
-0.0180977
8.11918e-05
0.0181718
-0.0182158
0.00012321
0.0185877
-0.0186297
0.000163275
0.0187493
-0.0187894
0.000194611
0.0192506
-0.0192819
0.000219404
0.0193906
-0.0194154
0.000188179
0.0198141
-0.0197829
0.000143656
0.0200179
-0.0199734
0.0199211
-0.0197775
-6.46302e-06
0.0176725
3.79222e-05
0.0180091
8.23151e-05
0.0181274
0.000124704
0.0185453
0.000165431
0.0187086
0.000197361
0.0192186
0.000223714
0.0193643
0.000194268
0.0198436
0.000153452
0.0200588
0.0200746
-5.90819e-06
0.0176263
3.8744e-05
0.0179645
8.34378e-05
0.0180827
0.000126233
0.0185025
0.000167609
0.0186672
0.000200204
0.0191861
0.000228179
0.0193363
0.000200638
0.0198711
0.000162419
0.020097
0.020237
-5.34769e-06
0.0175801
3.95701e-05
0.0179196
8.45648e-05
0.0180377
0.000127769
0.0184593
0.000169802
0.0186252
0.000203089
0.0191528
0.000232732
0.0193067
0.00020723
0.0198966
0.000172014
0.0201322
0.020409
-4.78233e-06
0.0175337
4.03992e-05
0.0178744
8.56935e-05
0.0179924
0.000129306
0.0184157
0.000171998
0.0185825
0.000205998
0.0191188
0.000237332
0.0192753
0.000214034
0.0199199
0.000182462
0.0201638
0.0205915
-4.21243e-06
0.0174872
4.12314e-05
0.0178289
8.68238e-05
0.0179468
0.000130846
0.0183717
0.000174197
0.0185391
0.000208928
0.019084
0.000241973
0.0192423
0.000221051
0.0199408
0.000193556
0.0201913
0.020785
-3.63806e-06
0.0174406
4.20664e-05
0.0177832
8.79553e-05
0.0179009
0.000132387
0.0183272
0.000176398
0.0184951
0.000211881
0.0190486
0.000246652
0.0192075
0.000228277
0.0199592
0.000205229
0.0202143
0.0209903
-3.0603e-06
0.0173939
4.29036e-05
0.0177373
8.90877e-05
0.0178547
0.000133929
0.0182824
0.000178599
0.0184505
0.000214852
0.0190123
0.000251361
0.019171
0.000235709
0.0199749
0.000217529
0.0202325
0.0212078
-2.4798e-06
0.0173471
4.37422e-05
0.017691
9.02189e-05
0.0178083
0.00013547
0.0182372
0.000180797
0.0184051
0.000217836
0.0189753
0.000256079
0.0191328
0.000243336
0.0199876
0.000230506
0.0202453
0.0214383
-1.89846e-06
4.45773e-05
9.13478e-05
0.000137003
0.000182984
0.000220825
0.000260769
0.000251144
0.000244093
1.42451e-05
0.0183412
-0.0184049
7.51844e-05
0.018662
-0.0187229
0.000137306
0.0187846
-0.0188467
0.000196276
0.0191867
-0.0192457
0.000253797
0.0193293
-0.0193868
0.000302413
0.01976
-0.0198086
0.000337292
0.0197967
-0.0198316
0.000327312
0.0197347
-0.0197248
0.000258978
0.0195841
-0.0195158
0.0169796
-0.0167206
1.45617e-05
0.0182776
7.62899e-05
0.0186003
0.000138399
0.0187225
0.000198812
0.0191263
0.000256503
0.0192716
0.000307233
0.0197092
0.00034336
0.0197606
0.000333227
0.0197449
0.000269591
0.0196478
0.0172492
1.49739e-05
0.0182138
7.69585e-05
0.0185383
0.000139354
0.0186601
0.000200149
0.0190655
0.000258417
0.0192133
0.000309731
0.0196579
0.000347226
0.0197231
0.000337993
0.0197541
0.000278445
0.0197073
0.0175276
1.53822e-05
0.01815
7.76095e-05
0.0184761
0.000140267
0.0185974
0.000201418
0.0190043
0.000260228
0.0191545
0.000312097
0.0196061
0.000351084
0.0196841
0.000342924
0.0197623
0.000288305
0.0197619
0.0178159
1.57953e-05
0.018086
7.82657e-05
0.0184136
0.00014119
0.0185345
0.000202706
0.0189428
0.000262084
0.0190951
0.000314545
0.0195536
0.00035511
0.0196436
0.000348026
0.0197693
0.000298348
0.0198116
0.0181143
1.62137e-05
0.0180219
7.8927e-05
0.0183509
0.000142121
0.0184713
0.00020401
0.0188809
0.000263973
0.0190351
0.000317051
0.0195005
0.000359248
0.0196014
0.000353367
0.0197752
0.000308844
0.0198561
0.0184231
1.66363e-05
0.0179577
7.95904e-05
0.0182879
0.000143054
0.0184078
0.000205313
0.0188187
0.000265865
0.0189746
0.000319567
0.0194468
0.000363444
0.0195575
0.000358963
0.0197797
0.000320035
0.0198951
0.0187432
1.70621e-05
0.0178933
8.02543e-05
0.0182247
0.000143985
0.0183441
0.000206611
0.0187561
0.000267753
0.0189135
0.000322084
0.0193925
0.000367684
0.0195119
0.000364794
0.0197826
0.000331956
0.0199279
0.0190751
1.74908e-05
0.0178289
8.09173e-05
0.0181613
0.000144912
0.0182801
0.000207902
0.0186931
0.000269636
0.0188517
0.000324602
0.0193375
0.000371954
0.0194645
0.000370829
0.0197837
0.000344576
0.0199542
0.0194197
1.79231e-05
8.1575e-05
0.000145836
0.000209182
0.000271511
0.000327115
0.000376224
0.000377036
0.000357783
0.000756273
2.66219e-05
-2.52127e-05
0.000759739
-8.08496e-05
7.73844e-05
0.000757476
2.15819e-06
1.03974e-07
0.000753098
0.000222813
-0.000218434
0.000746973
0.000123076
-0.000116951
0.000736074
0.000514829
-0.00050393
0.000715209
0.000389395
-0.00036853
0.000650762
0.00267043
-0.00260598
0.000519758
0.00296472
-0.00283372
0.021703
-0.0211832
0.000756225
2.80799e-05
0.000759786
-8.44104e-05
0.000757368
4.57615e-06
0.00075313
0.000227051
0.000746794
0.000129411
0.000736177
0.000525445
0.000714704
0.000410869
0.000651291
0.00273384
0.000519397
0.00309662
0.0222224
0.000756177
2.95858e-05
0.000759832
-8.80658e-05
0.00075726
7.14796e-06
0.000753162
0.00023115
0.000746619
0.000135954
0.000736287
0.000535778
0.000714214
0.000432941
0.000651877
0.00279617
0.000519264
0.00322923
0.0227417
0.000756129
3.11392e-05
0.00075988
-9.18162e-05
0.000757153
9.87445e-06
0.000753197
0.000235106
0.000746445
0.000142706
0.000736405
0.000545818
0.000713731
0.000455615
0.000652543
0.00285736
0.000519281
0.00336249
0.0232609
0.000756083
3.27395e-05
0.000759929
-9.56622e-05
0.000757047
1.27562e-05
0.000753234
0.000238919
0.000746271
0.000149668
0.000736534
0.000555556
0.000713256
0.000478893
0.000653298
0.00291732
0.000519401
0.00349639
0.0237803
0.000756036
3.4386e-05
0.000759978
-9.96041e-05
0.000756941
1.57933e-05
0.000753274
0.000242587
0.0007461
0.000156842
0.000736673
0.000564983
0.000712792
0.000502773
0.000654148
0.00297597
0.000519628
0.00363091
0.0243
0.000755991
3.6078e-05
0.000760029
-0.000103642
0.000756836
1.89859e-05
0.000753316
0.000246107
0.000745931
0.000164227
0.000736823
0.000574091
0.000712341
0.000527255
0.000655096
0.00303321
0.000519961
0.00376605
0.0248199
0.000755947
3.78142e-05
0.000760081
-0.000107776
0.000756733
2.23334e-05
0.000753361
0.000249479
0.000745764
0.000171823
0.000736982
0.000582873
0.000711898
0.00055234
0.000656135
0.00308897
0.000520377
0.0039018
0.0253403
0.000755903
3.95936e-05
0.000760133
-0.000112006
0.000756631
2.58355e-05
0.000753408
0.000252703
0.000745601
0.00017963
0.000737155
0.000591319
0.000711474
0.000578021
0.000657332
0.00314312
0.000520924
0.00403821
0.0258612
0.00075588
4.13968e-05
0.000760156
-0.000116282
0.000756581
2.94104e-05
0.000753397
0.000255887
0.000745552
0.000187475
0.000737236
0.000599635
0.000711434
0.000603822
0.000658726
0.00319582
0.000522868
0.00417407
0.0263841
0.00086342
1.34324e-05
-1.24179e-05
0.000866242
-4.72181e-05
4.43961e-05
0.000865571
-1.35671e-05
1.42377e-05
0.000859196
0.000167484
-0.000161109
0.000854733
6.77951e-05
-6.33314e-05
0.000839798
0.000381897
-0.000366962
0.000825086
0.000212079
-0.000197367
0.000745413
0.00193511
-0.00185543
0.000638702
0.00185001
-0.0017433
0.0154316
-0.0147929
0.000863363
1.45032e-05
0.000866286
-5.01406e-05
0.000865459
-1.27402e-05
0.000859216
0.000173726
0.000854565
7.24466e-05
0.000839881
0.000396581
0.000824652
0.000227308
0.000745876
0.00201388
0.000638443