/*--------------------------------*- C++ -*----------------------------------*\
  =========                 |
  \\      /  F ield         | OpenFOAM: The Open Source CFD Toolbox
   \\    /   O peration     | Website:  https://openfoam.org
    \\  /    A nd           | Version:  10
     \\/     M anipulation  |
\*---------------------------------------------------------------------------*/
FoamFile
{
    format      ascii;
    class       volVectorField;
    location    "10";
    object      U;
}
// * * * * * * * * * * * * * * * * * * * * * * * * * * * * * * * * * * * * * //

dimensions      [0 1 -1 0 0 0 0];

internalField   nonuniform List<vector> 
3600
(
(1.08505 -0.0029182 -5.59012e-20)
(1.01316 -0.00444781 5.52064e-21)
(0.976485 -0.0061199 8.8058e-20)
(0.862416 -0.00623589 -1.83701e-18)
(0.8252 -0.00875532 1.36138e-18)
(0.646609 -0.00695455 -2.86424e-18)
(0.657689 -0.0110835 -4.7972e-18)
(0.371841 -0.00608426 6.46856e-18)
(0.510858 -0.00743218 7.74937e-18)
(0.1604 -0.027262 -2.52671e-18)
(1.08489 -0.00261381 -1.19101e-19)
(1.01278 -0.00398473 5.51773e-20)
(0.975906 -0.00548307 3.39931e-20)
(0.861477 -0.00558829 -1.72838e-18)
(0.82389 -0.00784602 1.55603e-18)
(0.644769 -0.00623334 -3.28279e-18)
(0.655456 -0.00993001 -4.26225e-18)
(0.369111 -0.00544734 5.589e-18)
(0.508255 -0.0065587 6.96873e-18)
(0.164947 -0.024437 -1.84624e-18)
(1.08475 -0.00230836 -1.20618e-19)
(1.01244 -0.00352014 1.14349e-19)
(0.975388 -0.00484301 -1.23191e-19)
(0.860639 -0.00493832 -2.36338e-18)
(0.822719 -0.00693067 1.83047e-18)
(0.643126 -0.00550995 -2.83666e-18)
(0.653462 -0.00876881 -3.90513e-18)
(0.36668 -0.00481258 6.36041e-18)
(0.505953 -0.0057134 8.2837e-18)
(0.169076 -0.0215779 -1.6629e-19)
(1.08463 -0.00200214 -1.28327e-19)
(1.01215 -0.00305398 1.62793e-19)
(0.974934 -0.00420108 -1.61552e-19)
(0.859902 -0.00428558 -1.79638e-18)
(0.821691 -0.0060125 1.84383e-18)
(0.641683 -0.00478294 -2.46792e-18)
(0.65171 -0.00760519 -3.83427e-18)
(0.36455 -0.00417575 5.85694e-18)
(0.503948 -0.00489472 7.86469e-18)
(0.172758 -0.0187159 1.55023e-18)
(1.08452 -0.00169525 -1.42904e-19)
(1.01189 -0.00258648 2.27334e-19)
(0.974544 -0.00355751 -2.02125e-19)
(0.859268 -0.00363049 -1.34094e-18)
(0.820806 -0.00509182 1.96351e-18)
(0.640442 -0.00405284 -2.15474e-18)
(0.650203 -0.00643932 -3.78639e-18)
(0.362721 -0.00353728 6.89003e-18)
(0.502236 -0.00409996 6.2268e-18)
(0.175966 -0.015849 3.34928e-18)
(1.08443 -0.00138777 -1.00737e-19)
(1.01168 -0.00211786 3.18246e-19)
(0.974217 -0.00291244 -1.3226e-19)
(0.858739 -0.00297344 -9.32417e-19)
(0.820066 -0.00416873 2.11279e-18)
(0.639404 -0.00332029 -1.84658e-18)
(0.648944 -0.00527107 -4.00988e-18)
(0.361195 -0.00289778 6.8862e-18)
(0.500815 -0.0033257 4.70495e-18)
(0.178676 -0.0129745 4.3285e-18)
(1.08436 -0.0010798 -6.47434e-20)
(1.01151 -0.00164832 4.23319e-19)
(0.973955 -0.00226612 -6.55516e-20)
(0.858314 -0.00231482 -5.48343e-19)
(0.819472 -0.00324361 1.98225e-18)
(0.638572 -0.00258579 -1.58475e-18)
(0.647933 -0.00410077 -4.31447e-18)
(0.359973 -0.0022575 5.82266e-18)
(0.49968 -0.00256848 5.16248e-18)
(0.18087 -0.010093 3.69139e-18)
(1.0843 -0.000771426 -2.88718e-20)
(1.01138 -0.00117809 5.44598e-19)
(0.973759 -0.0016187 -1.14254e-19)
(0.857995 -0.00165508 -2.22839e-19)
(0.819026 -0.0023167 1.90108e-18)
(0.637947 -0.00185006 -3.68979e-19)
(0.647174 -0.00292866 -4.02567e-18)
(0.359056 -0.00161707 3.62344e-18)
(0.498831 -0.00182486 7.79996e-18)
(0.182529 -0.00720448 3.19667e-18)
(1.08426 -0.000462738 3.63221e-21)
(1.01129 -0.000707385 6.65753e-19)
(0.973628 -0.000970428 -4.58791e-20)
(0.857781 -0.000994595 9.08686e-20)
(0.818729 -0.00138834 1.97242e-18)
(0.63753 -0.0011136 9.21139e-19)
(0.646668 -0.00175495 -2.93984e-18)
(0.358444 -0.000976934 1.43152e-18)
(0.498265 -0.00109119 1.06445e-17)
(0.183642 -0.00430875 1.83248e-18)
(1.08425 -0.000154056 2.77023e-20)
(1.01125 -0.000236102 5.81723e-19)
(0.973562 -0.000322496 2.1758e-20)
(0.857675 -0.000332568 4.51598e-19)
(0.81858 -0.000460654 1.74318e-18)
(0.637321 -0.000373897 3.28467e-18)
(0.646414 -0.000581934 -2.03301e-18)
(0.358138 -0.000331584 -5.55992e-19)
(0.497983 -0.000362764 1.38149e-17)
(0.1842 -0.00141783 1.51696e-18)
(1.08743 -0.00578684 9.2393e-20)
(1.01877 -0.00878761 3.94858e-19)
(0.985044 -0.0120943 -1.03448e-18)
(0.876296 -0.0122665 -1.22154e-18)
(0.84456 -0.0172523 -1.09205e-18)
(0.673979 -0.0136391 3.64966e-18)
(0.69103 -0.0219108 -3.35841e-18)
(0.413695 -0.0120376 1.41082e-17)
(0.552957 -0.0181907 1.25227e-17)
(0.100242 -0.0535504 -2.87426e-18)
(1.08713 -0.00550717 1.16363e-19)
(1.01806 -0.00836704 3.38406e-19)
(0.983967 -0.0115151 -9.84373e-19)
(0.874551 -0.0116866 -7.42124e-19)
(0.842133 -0.0164329 -9.08247e-19)
(0.670538 -0.013001 3.22178e-18)
(0.686841 -0.0208637 -4.60747e-18)
(0.408345 -0.0114646 1.20971e-17)
(0.547392 -0.0169162 1.20184e-17)
(0.106947 -0.050995 -3.57108e-18)
(1.08684 -0.0052257 1.50424e-19)
(1.01738 -0.00794341 3.0189e-19)
(0.982935 -0.0109307 -9.69176e-19)
(0.872881 -0.0111014 -2.60528e-19)
(0.839807 -0.0156037 -4.50155e-19)
(0.667243 -0.0123559 2.86725e-18)
(0.682827 -0.0198027 -5.36962e-18)
(0.403244 -0.0108871 1.04987e-17)
(0.542132 -0.0156829 1.2083e-17)
(0.113592 -0.0483963 -4.27922e-18)
(1.08657 -0.00494266 1.82885e-19)
(1.01673 -0.0075167 2.81219e-19)
(0.981951 -0.0103424 -7.77061e-19)
(0.871286 -0.0105107 -3.90917e-19)
(0.837585 -0.0147685 -3.20796e-19)
(0.664097 -0.0117036 1.70834e-18)
(0.678996 -0.0187357 -6.21762e-18)
(0.398395 -0.010304 9.12408e-18)
(0.537176 -0.0144985 1.25229e-17)
(0.120142 -0.0457976 -5.19233e-18)
(1.08631 -0.00465811 2.22201e-19)
(1.01612 -0.0070871 2.82776e-19)
(0.981016 -0.00975049 -5.90111e-19)
(0.86977 -0.00991513 -5.76909e-19)
(0.83547 -0.0139275 -2.1681e-19)
(0.661106 -0.011045 5.75401e-19)
(0.675352 -0.0176625 -7.26521e-18)
(0.393804 -0.00971645 8.2489e-18)
(0.532523 -0.0133626 1.15366e-17)
(0.126562 -0.0431922 -5.50349e-18)
(1.08606 -0.00437212 2.13937e-19)
(1.01554 -0.00665477 2.86164e-19)
(0.98013 -0.00915486 -4.30296e-19)
(0.868334 -0.00931482 -7.85403e-19)
(0.833467 -0.0130803 -1.41634e-19)
(0.658273 -0.0103803 -5.91803e-19)
(0.671901 -0.0165826 -7.80809e-18)
(0.389474 -0.00912489 7.48567e-18)
(0.528172 -0.0122727 9.15885e-18)
(0.132818 -0.0405735 -5.02527e-18)
(1.08583 -0.00408476 1.53227e-19)
(1.015 -0.00621987 7.73132e-20)
(0.979296 -0.00855573 -2.88214e-19)
(0.866981 -0.00871007 -1.0299e-18)
(0.831578 -0.0122275 -4.11519e-20)
(0.655604 -0.00970987 -1.76886e-18)
(0.668648 -0.0154964 -7.86429e-18)
(0.385409 -0.00852978 6.95554e-18)
(0.52412 -0.0112269 6.69159e-18)
(0.138875 -0.0379409 -4.64521e-18)
(1.08562 -0.00379608 9.79955e-20)
(1.01448 -0.00578258 1.01129e-19)
(0.978515 -0.00795323 -1.48638e-19)
(0.865712 -0.00810131 -1.27908e-18)
(0.829806 -0.0113692 4.87473e-20)
(0.653101 -0.00903461 -1.91539e-18)
(0.665598 -0.0144044 -7.37375e-18)
(0.381612 -0.00793243 6.42875e-18)
(0.520366 -0.0102237 6.53388e-18)
(0.144697 -0.035295 -3.42025e-18)
(1.08541 -0.00350614 4.44886e-20)
(1.01401 -0.00534306 1.71872e-19)
(0.977787 -0.00734746 -1.26406e-20)
(0.86453 -0.00748881 -1.6164e-18)
(0.828154 -0.0105055 4.73951e-19)
(0.65077 -0.00835495 -2.13957e-18)
(0.662756 -0.0133068 -6.35416e-18)
(0.378086 -0.00733383 6.17215e-18)
(0.516907 -0.00926028 6.78324e-18)
(0.15025 -0.0326354 -3.32592e-18)
(1.08523 -0.00321525 -6.29238e-21)
(1.01357 -0.00490114 -4.9486e-20)
(0.977114 -0.00673933 3.74929e-20)
(0.863437 -0.00687133 -1.96817e-18)
(0.826625 -0.00963742 9.05713e-19)
(0.648612 -0.00766702 -2.47616e-18)
(0.660125 -0.0122028 -5.50278e-18)
(0.374834 -0.00672552 6.25239e-18)
(0.51374 -0.00833107 7.07761e-18)
(0.1555 -0.0299559 -3.32487e-18)
(1.09078 -0.00828636 -1.34098e-19)
(1.02662 -0.0125146 -4.49408e-19)
(0.996951 -0.0172331 -4.05946e-19)
(0.895607 -0.0173521 -1.92582e-18)
(0.871459 -0.02446 -9.83669e-19)
(0.712625 -0.0191778 1.39074e-18)
(0.738405 -0.0311318 3.3752e-18)
(0.476535 -0.0169853 1.58855e-17)
(0.621548 -0.033058 9.78422e-18)
(0.0367157 -0.0762146 2.88328e-18)
(1.09041 -0.00804559 -1.09587e-19)
(1.02574 -0.0121589 -3.20087e-19)
(0.995635 -0.016742 -5.67682e-19)
(0.893478 -0.0168731 -1.91224e-18)
(0.868506 -0.0237783 -1.09186e-18)
(0.708364 -0.0186647 1.03875e-18)
(0.73319 -0.0302618 3.27981e-18)
(0.469468 -0.0165325 1.54559e-17)
(0.613658 -0.0313655 8.79202e-18)
(0.0424961 -0.0739885 2.37323e-18)
(1.09004 -0.00780285 -8.41897e-20)
(1.02489 -0.0117995 -1.99953e-19)
(0.994344 -0.0162454 -7.33039e-19)
(0.891388 -0.0163871 -1.98471e-18)
(0.865604 -0.0230853 -1.27133e-18)
(0.70418 -0.0181412 7.46336e-19)
(0.728068 -0.0293741 3.25184e-18)
(0.46256 -0.0160683 1.55047e-17)
(0.60598 -0.0297026 9.90028e-18)
(0.0484502 -0.0717279 1.90435e-18)
(1.08969 -0.00755826 -6.05348e-20)
(1.02405 -0.0114366 -2.97281e-19)
(0.993079 -0.0157443 -8.29784e-19)
(0.889339 -0.0158949 -2.16048e-18)
(0.862756 -0.0223854 -1.49791e-18)
(0.700078 -0.0176091 1.37621e-18)
(0.723043 -0.0284781 2.55275e-18)
(0.455817 -0.0155948 1.48704e-17)
(0.598521 -0.0280917 1.15155e-17)
(0.0545632 -0.0694848 1.46984e-18)
(1.08934 -0.00731183 -3.93159e-20)
(1.02324 -0.0110702 -1.77593e-19)
(0.991842 -0.0152388 -8.53592e-19)
(0.887334 -0.0153968 -2.36434e-18)
(0.859966 -0.0216781 -1.78218e-18)
(0.696064 -0.0170691 1.96405e-18)
(0.718122 -0.0275731 1.83233e-18)
(0.449246 -0.0151135 1.45851e-17)
(0.591289 -0.0265337 1.15779e-17)
(0.0608188 -0.0672444 1.12184e-18)
(1.089 -0.00706361 -1.72184e-20)
(1.02244 -0.0107005 -4.04975e-20)
(0.990635 -0.0147287 -8.83456e-19)
(0.885375 -0.014893 -2.6184e-18)
(0.857237 -0.020963 -2.11527e-18)
(0.69214 -0.0165213 2.77855e-18)
(0.713311 -0.0266581 3.23021e-19)
(0.442853 -0.0146246 1.48286e-17)
(0.584291 -0.025026 1.21836e-17)
(0.0671992 -0.0649967 8.48005e-19)
(1.08867 -0.00681363 4.53154e-21)
(1.02167 -0.0103276 8.28588e-20)
(0.989458 -0.0142142 -9.2679e-19)
(0.883465 -0.0143835 -2.98913e-18)
(0.854572 -0.0202404 -1.9644e-18)
(0.688314 -0.0159658 3.64566e-18)
(0.708616 -0.0257334 -1.13003e-18)
(0.436644 -0.0141286 1.54451e-17)
(0.577532 -0.0235683 1.31465e-17)
(0.0736855 -0.0627411 5.16375e-19)
(1.08835 -0.0065619 2.68547e-20)
(1.02091 -0.00995142 1.98536e-19)
(0.988313 -0.0136952 -9.88882e-19)
(0.881605 -0.0138687 -2.8561e-18)
(0.851977 -0.0195106 -1.88343e-18)
(0.684588 -0.0154034 4.58406e-18)
(0.704043 -0.0248 -1.90222e-18)
(0.430626 -0.0136268 1.53306e-17)
(0.571019 -0.0221614 1.29522e-17)
(0.0802571 -0.0604803 2.09654e-19)
(1.08804 -0.00630845 4.33466e-20)
(1.02018 -0.00957221 3.19236e-19)
(0.987201 -0.0131719 -1.07754e-18)
(0.879799 -0.0133487 -2.26474e-18)
(0.849452 -0.0187733 -1.57663e-18)
(0.680969 -0.0148347 4.82371e-18)
(0.699598 -0.0238577 -2.01896e-18)
(0.424803 -0.0131209 1.57397e-17)
(0.564755 -0.0208039 1.28767e-17)
(0.0868919 -0.0582141 -1.01617e-18)
(1.08774 -0.0060535 6.75817e-20)
(1.01948 -0.00918971 4.72492e-19)
(0.986125 -0.0126444 -1.0929e-18)
(0.878048 -0.012822 -1.70961e-18)
(0.847003 -0.0180278 -1.30713e-18)
(0.67746 -0.0142549 4.15105e-18)
(0.695286 -0.0229022 -2.17139e-18)
(0.419182 -0.0126016 1.53327e-17)
(0.558745 -0.0194851 1.16248e-17)
(0.0935665 -0.0559163 -2.34256e-18)
(1.09436 -0.0103251 -2.90466e-20)
(1.03496 -0.0155035 -5.65197e-20)
(1.00951 -0.0213507 1.00187e-18)
(0.916032 -0.0213342 5.13887e-19)
(0.899902 -0.0300902 -4.2401e-19)
(0.754493 -0.023382 -7.06741e-18)
(0.79013 -0.0382437 4.30533e-18)
(0.549713 -0.0206721 8.18144e-18)
(0.704599 -0.0509717 9.94044e-18)
(-0.0097504 -0.0949039 6.58649e-18)
(1.09399 -0.0101311 -3.15197e-20)
(1.0341 -0.0152184 -8.09012e-20)
(1.00822 -0.0209625 9.03284e-19)
(0.913933 -0.0209554 6.09913e-19)
(0.896998 -0.0295651 -5.82416e-19)
(0.750195 -0.0229811 -6.17427e-18)
(0.784843 -0.0375817 4.37325e-18)
(0.542076 -0.0203073 9.02025e-18)
(0.695994 -0.0488766 6.58648e-18)
(-0.00603059 -0.0932611 7.75821e-18)
(1.09362 -0.00993442 -3.80108e-20)
(1.03324 -0.0149323 -9.64905e-20)
(1.00693 -0.0205695 7.40867e-19)
(0.911843 -0.0205776 2.06417e-19)
(0.894102 -0.029036 -7.56345e-19)
(0.745915 -0.0225864 -4.59507e-18)
(0.779573 -0.0369215 3.8455e-18)
(0.534495 -0.0199554 1.00351e-17)
(0.687432 -0.047031 5.0898e-18)
(-0.00210023 -0.091161 7.41742e-18)
(1.09325 -0.00973583 -4.63076e-20)
(1.03238 -0.0146435 -1.22221e-19)
(1.00565 -0.0201704 6.00268e-19)
(0.909766 -0.0201969 3.28257e-19)
(0.891218 -0.028495 -9.48255e-19)
(0.741657 -0.0221923 -3.12242e-18)
(0.774324 -0.0362435 3.28002e-18)
(0.526978 -0.0196192 1.02322e-17)
(0.678921 -0.0451751 5.50842e-18)
(0.00203978 -0.0892505 7.17235e-18)
(1.09289 -0.00953562 -5.22643e-20)
(1.03154 -0.0143515 3.54995e-20)
(1.00438 -0.0197668 4.55841e-19)
(0.907703 -0.0198108 4.49999e-19)
(0.888349 -0.0279454 -9.07112e-19)
(0.737424 -0.0217902 -1.69692e-18)
(0.7691 -0.0355519 3.51756e-18)
(0.519531 -0.0192754 1.07245e-17)
(0.670471 -0.0433273 6.15555e-18)
(0.00638808 -0.0874255 6.0026e-18)
(1.09253 -0.0093338 -5.97215e-20)
(1.0307 -0.0140564 -5.49998e-21)
(1.00312 -0.0193593 3.18304e-19)
(0.905655 -0.0194191 1.01618e-19)
(0.885498 -0.0273888 -8.84086e-19)
(0.733221 -0.0213795 -1.20406e-18)
(0.763906 -0.0348495 3.1516e-18)
(0.51216 -0.0189207 1.14594e-17)
(0.662093 -0.0415219 7.0657e-18)
(0.0109434 -0.0855885 4.94309e-18)
(1.09217 -0.00913035 -7.22062e-20)
(1.02987 -0.0137583 -4.53604e-20)
(1.00187 -0.0189477 1.8861e-19)
(0.903625 -0.0190221 -2.23673e-19)
(0.882666 -0.026825 -8.48386e-19)
(0.729051 -0.0209611 -6.9651e-19)
(0.758747 -0.0341368 2.77442e-18)
(0.504872 -0.0185572 1.25332e-17)
(0.653797 -0.039762 8.09936e-18)
(0.0157038 -0.0837401 4.03077e-18)
(1.09182 -0.00892526 -8.09263e-20)
(1.02906 -0.0134573 -9.68399e-20)
(1.00064 -0.018532 6.25289e-20)
(0.901614 -0.0186202 -6.22186e-19)
(0.879856 -0.0262543 -8.46853e-19)
(0.724919 -0.0205359 -1.29013e-19)
(0.753627 -0.0334144 2.53941e-18)
(0.497672 -0.0181869 1.38808e-17)
(0.645591 -0.0380473 9.41887e-18)
(0.0206666 -0.0818976 3.10271e-18)
(1.09148 -0.00871849 -9.98018e-20)
(1.02825 -0.0131533 -3.28498e-19)
(0.999419 -0.0181121 -6.15699e-20)
(0.899625 -0.0182134 -1.02159e-18)
(0.877072 -0.0256761 -8.71567e-19)
(0.720827 -0.0201043 3.44476e-19)
(0.748551 -0.0326821 2.92594e-18)
(0.490567 -0.0178118 1.451e-17)
(0.637487 -0.0363765 1.08872e-17)
(0.0258283 -0.0800661 3.14908e-18)
(1.09114 -0.0085102 -1.15826e-19)
(1.02745 -0.0128462 -3.76446e-19)
(0.998214 -0.0176875 -2.76014e-19)
(0.897658 -0.0177999 -1.44801e-18)
(0.874316 -0.0250878 -9.16165e-19)
(0.71678 -0.0196614 8.46417e-19)
(0.743524 -0.0319315 3.5138e-18)
(0.483564 -0.0174228 1.55788e-17)
(0.629492 -0.0347253 1.12692e-17)
(0.0311845 -0.0781976 3.41406e-18)
(1.13772 0.0206412 2.11521e-18)
(1.15603 0.0269112 5.24647e-18)
(1.16516 0.0138669 2.85783e-18)
(1.18835 0.0199954 4.16073e-19)
(1.19925 -0.0135327 1.2953e-18)
(1.2334 -0.0114261 -1.3248e-19)
(1.24655 -0.0873492 -6.36604e-18)
(1.30555 -0.101582 3.32541e-19)
(1.26592 -0.279741 4.24146e-18)
(0.897397 -0.199535 1.15754e-17)
(1.13788 0.0201348 2.07856e-18)
(1.15596 0.0262854 5.64104e-18)
(1.16513 0.0130624 2.2768e-18)
(1.18795 0.0187913 3.58057e-19)
(1.19882 -0.0153038 1.31074e-18)
(1.23217 -0.0142682 -1.43545e-19)
(1.24513 -0.0917621 -4.35156e-18)
(1.30109 -0.109354 2.17238e-19)
(1.25592 -0.28931 6.56144e-19)
(0.867048 -0.206429 1.08687e-17)
(1.13804 0.019635 2.05983e-18)
(1.15589 0.0256653 5.47154e-18)
(1.16509 0.0122647 2.21166e-18)
(1.18754 0.0175903 1.60672e-19)
(1.19839 -0.0170717 1.35468e-18)
(1.23092 -0.0171215 -2.1687e-19)
(1.24367 -0.0962085 -4.21882e-18)
(1.29657 -0.117179 3.77831e-19)
(1.24576 -0.29876 1.15371e-18)
(0.838037 -0.213181 1.01537e-17)
(1.1382 0.0191423 2.0555e-18)
(1.15581 0.0250518 5.40607e-18)
(1.16503 0.0114749 2.32344e-18)
(1.18709 0.0163939 -1.12277e-19)
(1.1979 -0.0188347 1.20117e-18)
(1.22958 -0.0199828 -2.74925e-19)
(1.24202 -0.100685 -3.85334e-18)
(1.29175 -0.125049 3.94752e-19)
(1.23524 -0.308151 2.02678e-18)
(0.811368 -0.21985 1.04932e-17)
(1.13835 0.0186583 2.05066e-18)
(1.15572 0.0244465 5.25814e-18)
(1.16495 0.0106951 2.71533e-18)
(1.18662 0.0152048 -1.00424e-18)
(1.19736 -0.0205891 1.34714e-18)
(1.22815 -0.0228474 -3.19018e-19)
(1.24018 -0.105186 -3.7718e-18)
(1.28666 -0.132957 5.49178e-19)
(1.22436 -0.317516 5.88394e-18)
(0.786063 -0.226449 9.27261e-18)
(1.1385 0.018187 2.03741e-18)
(1.15562 0.0238537 5.11499e-18)
(1.16486 0.00993025 2.68071e-18)
(1.18613 0.0140287 -8.969e-19)
(1.19677 -0.0223274 1.89473e-18)
(1.22665 -0.0257062 -3.00121e-19)
(1.23818 -0.109698 -3.23387e-18)
(1.28133 -0.140887 8.87043e-19)
(1.21321 -0.326857 5.44878e-18)
(0.761776 -0.232927 8.13288e-18)
(1.13864 0.0177377 2.0789e-18)
(1.15552 0.0232836 5.02672e-18)
(1.16475 0.00919267 2.58087e-18)
(1.18561 0.01288 -7.47381e-19)
(1.19614 -0.0240294 9.4744e-19)
(1.22508 -0.0285352 -1.16071e-19)
(1.23603 -0.114189 -1.40296e-18)
(1.2758 -0.148799 1.30622e-18)
(1.20188 -0.336131 5.04091e-18)
(0.738662 -0.239148 5.71231e-18)
(1.13878 0.0173341 2.26078e-18)
(1.15541 0.022762 4.98258e-18)
(1.16463 0.00851423 2.48862e-18)
(1.18507 0.0117974 -9.74253e-19)
(1.19546 -0.0256397 9.8946e-19)
(1.22344 -0.0312647 4.67421e-19)
(1.23373 -0.11855 -1.13309e-18)
(1.27004 -0.156561 1.95607e-18)
(1.19038 -0.345152 3.20761e-18)
(0.716676 -0.244809 1.25332e-18)
(1.13891 0.0170357 2.72779e-18)
(1.15528 0.022355 5.04121e-18)
(1.16448 0.0079782 2.45027e-18)
(1.18449 0.0108855 -1.40774e-18)
(1.19471 -0.0270016 9.92782e-19)
(1.22168 -0.0336863 2.21089e-18)
(1.23118 -0.122441 1.31378e-19)
(1.26387 -0.163703 4.29409e-18)
(1.17819 -0.353231 -1.01891e-18)
(0.694673 -0.249275 -5.96504e-18)
(1.13903 0.0169913 3.11081e-18)
(1.15515 0.0222318 5.41989e-18)
(1.1643 0.00780255 2.44772e-18)
(1.18388 0.0104285 -6.1468e-19)
(1.19389 -0.0276714 1.02419e-18)
(1.21981 -0.0351706 3.50877e-18)
(1.22831 -0.124763 -1.14625e-18)
(1.25708 -0.168555 4.32352e-18)
(1.16478 -0.357983 -1.33777e-18)
(0.672722 -0.251271 -5.47139e-18)
(1.13589 0.026774 2.32773e-18)
(1.15646 0.034227 5.71722e-18)
(1.16536 0.0234057 8.75443e-19)
(1.19199 0.033114 1.95957e-18)
(1.20309 0.00617283 6.11434e-19)
(1.24465 0.0173161 -8.24156e-19)
(1.25788 -0.0416344 -3.37178e-18)
(1.34347 -0.0277507 -9.64782e-18)
(1.3386 -0.175443 -1.10666e-17)
(1.1332 -0.109845 8.76794e-18)
(1.13608 0.0261308 2.79718e-18)
(1.15646 0.0334676 5.48912e-18)
(1.1654 0.022411 6.71856e-19)
(1.19175 0.0317866 1.82765e-18)
(1.20288 0.00416088 7.4618e-19)
(1.24382 0.014493 -2.70518e-18)
(1.25728 -0.0461944 -3.22319e-18)
(1.34061 -0.0348129 -8.33455e-18)
(1.33262 -0.186501 -1.06486e-17)
(1.10466 -0.119802 1.7878e-17)
(1.13628 0.0254928 3.06593e-18)
(1.15645 0.0327129 5.33234e-18)
(1.16545 0.0214228 1.03652e-19)
(1.19149 0.030461 1.67193e-18)
(1.20267 0.00215394 1.55904e-18)
(1.24298 0.0116557 -3.12935e-18)
(1.2567 -0.0507636 -1.76969e-18)
(1.33769 -0.0419558 -4.66362e-18)
(1.32663 -0.197312 -8.94456e-18)
(1.07678 -0.129476 2.47181e-17)
(1.13648 0.0248602 2.82726e-18)
(1.15643 0.0319632 5.14158e-18)
(1.16547 0.0204415 1.80943e-19)
(1.1912 0.029138 8.84297e-19)
(1.2024 0.000153097 1.22615e-18)
(1.24204 0.00880637 -4.87354e-18)
(1.25595 -0.0553397 -3.29948e-18)
(1.33451 -0.0491709 -4.40897e-18)
(1.32025 -0.207947 -4.59519e-18)
(1.0512 -0.138944 2.18971e-17)
(1.13667 0.0242331 3.1275e-18)
(1.1564 0.031219 4.97312e-18)
(1.16547 0.0194678 3.71989e-19)
(1.19087 0.0278186 1.87939e-18)
(1.20208 -0.00184024 2.24921e-19)
(1.24102 0.00594824 -5.92041e-18)
(1.25503 -0.0599188 -3.48279e-18)
(1.33105 -0.0564474 -4.47044e-18)
(1.31346 -0.218458 -4.00089e-18)
(1.02708 -0.148261 1.13236e-17)
(1.13685 0.0236117 2.98503e-18)
(1.15636 0.0304807 4.84044e-18)
(1.16546 0.0185021 1.01408e-18)
(1.19052 0.0265035 1.76438e-18)
(1.20172 -0.0038249 4.90858e-20)
(1.23993 0.00308366 -4.23117e-18)
(1.25397 -0.0644983 -4.19492e-18)
(1.32736 -0.0637773 -3.94026e-18)
(1.30636 -0.228873 -8.20018e-20)
(1.00393 -0.157453 8.92693e-18)
(1.13704 0.0229962 2.7485e-18)
(1.15631 0.0297483 4.72959e-18)
(1.16543 0.0175449 1.2587e-18)
(1.19013 0.0251931 1.36393e-18)
(1.20131 -0.00579987 3.42795e-20)
(1.23876 0.000214322 -3.9435e-18)
(1.25277 -0.069076 -6.23407e-18)
(1.32346 -0.0711548 -3.87374e-18)
(1.29899 -0.239215 1.95864e-19)
(0.981708 -0.166526 1.14708e-18)
(1.13722 0.022387 2.40746e-18)
(1.15625 0.0290221 4.6114e-18)
(1.16538 0.0165968 1.94381e-18)
(1.18972 0.0238874 3.95204e-19)
(1.20085 -0.00776422 4.19718e-19)
(1.23752 -0.00265933 -3.35944e-18)
(1.25142 -0.0736494 -7.92684e-18)
(1.31933 -0.0785755 -3.29291e-18)
(1.29136 -0.249497 6.07324e-19)
(0.960503 -0.175463 3.18525e-18)
(1.13739 0.0217846 2.40501e-18)
(1.15618 0.0283018 4.71544e-18)
(1.16532 0.0156584 2.51842e-18)
(1.18928 0.0225845 3.71639e-19)
(1.20035 -0.00971726 1.30754e-18)
(1.23619 -0.00554135 -1.4601e-18)
(1.24992 -0.0782162 -7.55187e-18)
(1.31497 -0.0860398 -2.87973e-18)
(1.28361 -0.25971 7.19046e-19)
(0.940865 -0.184169 4.53021e-18)
(1.13756 0.0211898 2.49349e-18)
(1.1561 0.0275859 5.19206e-18)
(1.16523 0.0147314 2.54223e-18)
(1.1888 0.0212768 4.47128e-19)
(1.19978 -0.011659 1.35933e-18)
(1.23477 -0.00845171 -1.77937e-19)
(1.24825 -0.0827737 -7.05652e-18)
(1.31043 -0.0935748 1.24903e-19)
(1.2761 -0.269768 1.51657e-18)
(0.923102 -0.19237 1.15367e-17)
(1.13369 0.0339826 2.77056e-18)
(1.15597 0.0426265 2.5205e-18)
(1.16456 0.0345896 8.76539e-19)
(1.19349 0.0471736 3.12084e-18)
(1.20451 0.0280553 -4.01313e-19)
(1.2507 0.0454751 -1.19352e-18)
(1.26151 0.00661599 4.11534e-18)
(1.36372 0.0375727 -1.92839e-17)
(1.37517 -0.0559499 -2.41673e-17)
(1.32605 0.00696623 1.40372e-17)
(1.13393 0.0332463 2.69547e-18)
(1.15607 0.0417671 1.99919e-18)
(1.16471 0.033441 8.34872e-19)
(1.19348 0.0457586 3.0132e-18)
(1.20453 0.0258347 -3.13956e-19)
(1.25042 0.0427229 -2.89898e-18)
(1.26155 0.00175175 1.93583e-18)
(1.3627 0.0314307 -1.52438e-17)
(1.37265 -0.0686921 -2.31148e-17)
(1.30277 -0.00569116 2.39091e-17)
(1.13416 0.0325117 2.61994e-18)
(1.15617 0.0409105 2.62288e-18)
(1.16486 0.0322961 6.42237e-19)
(1.19345 0.0443436 2.97849e-18)
(1.20456 0.0236157 -4.42059e-19)
(1.25012 0.0399529 -2.66857e-18)
(1.26165 -0.00311722 1.60058e-18)
(1.36162 0.025189 -1.54316e-17)
(1.3703 -0.0811234 -2.25691e-17)
(1.27949 -0.0180406 3.09793e-17)
(1.13439 0.0317792 2.56105e-18)
(1.15625 0.040057 2.71685e-18)
(1.16498 0.0311557 -1.27061e-19)
(1.19339 0.0429293 3.029e-18)
(1.20454 0.0213997 -3.72975e-19)
(1.24973 0.0371666 -2.12508e-18)
(1.26163 -0.00798714 9.69835e-19)
(1.36026 0.0188552 -1.63428e-17)
(1.3676 -0.0933204 -2.13232e-17)
(1.25838 -0.0301495 3.01526e-17)
(1.13462 0.0310492 2.41631e-18)
(1.15631 0.0392071 3.40978e-18)
(1.16509 0.0300203 -2.43827e-19)
(1.19329 0.0415167 3.6786e-18)
(1.20447 0.0191884 -3.36234e-19)
(1.24925 0.0343672 -3.84063e-19)
(1.26146 -0.0128526 -1.15567e-18)
(1.3586 0.0124417 -1.9089e-17)
(1.36449 -0.10535 -1.97851e-17)
(1.23879 -0.0420814 2.72081e-17)
(1.13484 0.0303219 2.07726e-18)
(1.15637 0.0383613 4.00679e-18)
(1.16518 0.0288908 -6.70929e-19)
(1.19315 0.0401067 2.46578e-18)
(1.20435 0.0169836 -2.75902e-19)
(1.24869 0.031557 -8.97262e-19)
(1.26117 -0.0177093 -1.33489e-18)
(1.3567 0.00595829 -1.82889e-17)
(1.36105 -0.117249 -1.53322e-17)
(1.22013 -0.053868 1.83607e-17)
(1.13506 0.0295978 2.42114e-18)
(1.15641 0.0375199 4.12811e-18)
(1.16525 0.0277677 -1.86887e-21)
(1.19298 0.0387 2.47456e-18)
(1.20418 0.0147865 4.75765e-20)
(1.24804 0.0287381 -2.4325e-18)
(1.26077 -0.0225532 -1.70973e-18)
(1.35455 -0.000587336 -1.42216e-17)
(1.35734 -0.129045 -1.47102e-17)
(1.20231 -0.0655281 1.76501e-17)
(1.13527 0.0288773 2.40708e-18)
(1.15644 0.0366832 4.84074e-18)
(1.1653 0.0266517 1.3674e-19)
(1.19278 0.0372968 2.32394e-18)
(1.20398 0.0125989 1.06229e-18)
(1.24731 0.0259115 -2.02644e-18)
(1.26024 -0.02738 -1.89034e-18)
(1.35217 -0.0071896 -1.14848e-17)
(1.35337 -0.140761 -1.42186e-17)
(1.18542 -0.0770697 1.65987e-17)
(1.13548 0.0281608 2.65215e-18)
(1.15646 0.0358513 5.47099e-18)
(1.16534 0.0255441 2.76617e-19)
(1.19254 0.0358966 2.16199e-18)
(1.20373 0.0104227 1.03337e-18)
(1.2465 0.0230757 -6.54875e-19)
(1.25959 -0.0321837 -3.32705e-18)
(1.34955 -0.0138491 -1.35709e-17)
(1.34922 -0.152409 -1.6925e-17)
(1.16988 -0.0884593 1.57738e-17)
(1.13569 0.0274495 2.21792e-18)
(1.15646 0.0350234 5.89697e-18)
(1.16534 0.0244474 9.45336e-19)
(1.19227 0.0344948 2.01296e-18)
(1.20341 0.00826179 1.71081e-18)
(1.24558 0.0202181 -1.98776e-18)
(1.25876 -0.03695 -1.77141e-18)
(1.34664 -0.0205988 -1.02384e-17)
(1.34498 -0.163953 -1.52789e-17)
(1.15568 -0.0995208 1.44288e-17)
(1.13115 0.0416574 3.37286e-18)
(1.15431 0.0516397 6.24157e-18)
(1.16262 0.046812 2.02137e-18)
(1.19239 0.0617478 4.5142e-18)
(1.20349 0.0512672 -6.37891e-19)
(1.25037 0.0727112 -2.77636e-18)
(1.25957 0.0570361 6.6559e-18)
(1.36385 0.094084 -1.25942e-17)
(1.38098 0.0766823 -1.58967e-17)
(1.44749 0.142192 -3.61171e-18)
(1.13142 0.0408957 3.36617e-18)
(1.15454 0.0507325 5.21496e-18)
(1.16288 0.0455801 2.46002e-18)
(1.19264 0.0602888 3.89744e-18)
(1.20374 0.0489521 -6.90276e-19)
(1.25075 0.0700429 -3.52658e-19)
(1.26006 0.0520431 8.6094e-18)
(1.36494 0.0888141 -1.23944e-17)
(1.38137 0.0628884 -1.91235e-17)
(1.43203 0.128156 -2.11059e-18)
(1.13169 0.0401312 3.65516e-18)
(1.15476 0.0498252 4.37759e-18)
(1.16315 0.0443475 1.7557e-18)
(1.19288 0.0588283 5.65479e-18)
(1.204 0.046629 -4.82614e-19)
(1.25112 0.0673593 1.38651e-18)
(1.26063 0.0470191 9.83512e-18)
(1.36596 0.0834455 -1.28585e-17)
(1.382 0.0493616 -1.89262e-17)
(1.41612 0.114339 5.57267e-18)
(1.13196 0.0393643 3.51326e-18)
(1.15496 0.0489182 4.14646e-18)
(1.16339 0.0431147 1.74712e-18)
(1.19309 0.0573667 4.53105e-18)
(1.20422 0.0442997 -2.81855e-19)
(1.25139 0.0646609 1.38357e-18)
(1.26111 0.04197 7.8002e-18)
(1.36668 0.0779825 -1.64661e-17)
(1.38238 0.036023 -2.19041e-17)
(1.40226 0.100681 7.12873e-18)
(1.13222 0.0385953 3.35078e-18)
(1.15515 0.0480119 3.84035e-18)
(1.16361 0.0418827 1.64219e-18)
(1.19325 0.0559049 5.15249e-18)
(1.20439 0.0419665 5.48803e-19)
(1.25156 0.06195 9.29802e-19)
(1.26148 0.0369033 7.20964e-18)
(1.36709 0.0724355 -1.74453e-17)
(1.38239 0.0227967 -2.23635e-17)
(1.38993 0.0871148 1.65866e-17)
(1.13248 0.0378247 3.23067e-18)
(1.15532 0.0471069 3.08267e-18)
(1.16382 0.0406522 1.42157e-18)
(1.19338 0.0544439 4.02803e-18)
(1.20452 0.0396313 -6.22768e-19)
(1.25164 0.0592288 -8.57901e-19)
(1.26174 0.0318253 6.7418e-18)
(1.36721 0.0668143 -2.37037e-17)
(1.38208 0.00964005 -2.88453e-17)
(1.37851 0.073608 1.68035e-17)
(1.13273 0.0370527 3.1531e-18)
(1.15548 0.0462035 2.99706e-18)
(1.16401 0.0394238 6.37936e-19)
(1.19347 0.0529844 3.94388e-18)
(1.20461 0.0372959 -5.81499e-19)
(1.25163 0.0564987 -7.99204e-19)
(1.26191 0.0267419 6.64068e-18)
(1.36707 0.0611267 -2.30956e-17)
(1.3815 -0.00347773 -2.71413e-17)
(1.36788 0.0601386 1.79631e-17)
(1.13298 0.03628 3.09964e-18)
(1.15562 0.0453022 2.85155e-18)
(1.16417 0.0381985 1.34813e-19)
(1.19353 0.0515267 3.74426e-18)
(1.20466 0.0349624 -4.24768e-19)
(1.25154 0.0537609 -7.23455e-19)
(1.262 0.0216594 7.82936e-18)
(1.36666 0.0553791 -2.23865e-17)
(1.38066 -0.0165867 -2.38387e-17)
(1.35811 0.0466878 2.30793e-17)
(1.13322 0.0355071 3.00467e-18)
(1.15575 0.0444031 2.76092e-18)
(1.16432 0.0369775 8.5791e-19)
(1.19355 0.0500711 3.57365e-18)
(1.20466 0.0326336 -6.54176e-19)
(1.25135 0.0510153 -7.21775e-19)
(1.26197 0.0165867 7.26028e-18)
(1.36599 0.049574 -2.14078e-17)
(1.37961 -0.0297121 -2.70158e-17)
(1.34956 0.0332523 2.09283e-17)
(1.13346 0.0347353 2.86075e-18)
(1.15586 0.0435062 2.65821e-18)
(1.16444 0.0357643 8.39457e-19)
(1.19352 0.0486157 3.21595e-18)
(1.20459 0.0303157 -4.90282e-19)
(1.25105 0.0482559 -7.97962e-19)
(1.26177 0.0115442 4.98464e-18)
(1.36496 0.0436905 -2.05278e-17)
(1.37826 -0.0428552 -2.59899e-17)
(1.34198 0.0199087 1.19625e-17)
(1.12825 0.049071 4.67538e-18)
(1.15141 0.0606749 4.82349e-18)
(1.15943 0.0592685 3.74817e-18)
(1.18884 0.0763363 2.48354e-18)
(1.19984 0.074418 6.07593e-19)
(1.24408 0.0991219 3.64835e-18)
(1.25265 0.106104 -6.6891e-18)
(1.34382 0.143937 -7.80403e-18)
(1.35998 0.210971 -2.04326e-17)
(1.48032 0.278707 5.27945e-18)
(1.12856 0.0483559 4.79178e-18)
(1.15176 0.0597806 4.67873e-18)
(1.15982 0.0580331 3.66117e-18)
(1.18933 0.0748859 2.44955e-18)
(1.20034 0.072151 5.55889e-19)
(1.24506 0.0965168 3.4364e-18)
(1.25356 0.101424 -6.56716e-18)
(1.34699 0.139258 -7.50243e-18)
(1.36282 0.197748 -2.02664e-17)
(1.47402 0.265319 1.08057e-17)
(1.12887 0.0476338 4.3868e-18)
(1.15211 0.0588833 4.46103e-18)
(1.16021 0.0567931 3.73591e-18)
(1.18981 0.0734319 2.701e-18)
(1.20085 0.0698671 -3.72356e-19)
(1.24602 0.0939005 2.93648e-18)
(1.25455 0.096671 -5.94744e-18)
(1.35008 0.134494 -8.29989e-18)
(1.36595 0.18463 -2.32953e-17)
(1.46709 0.251989 1.89007e-18)
(1.12918 0.046905 4.57784e-18)
(1.15244 0.057983 4.03037e-18)
(1.16058 0.0555491 4.18452e-18)
(1.19026 0.0719746 3.91097e-18)
(1.20133 0.0675678 6.76322e-19)
(1.2469 0.0912734 2.29089e-18)
(1.25547 0.0918517 -5.32706e-18)
(1.35288 0.129647 -1.20729e-17)
(1.36886 0.171536 -2.15892e-17)
(1.46224 0.238655 -6.58863e-18)
(1.12947 0.04617 4.41785e-18)
(1.15276 0.0570805 5.16059e-18)
(1.16093 0.0543016 3.81889e-18)
(1.19067 0.070515 5.6753e-18)
(1.20175 0.0652551 3.80147e-19)
(1.24768 0.0886378 -1.77652e-19)
(1.25629 0.0869739 -3.28051e-18)
(1.35536 0.124726 -1.55445e-17)
(1.37146 0.158391 -1.7281e-17)
(1.45889 0.225251 -7.09349e-18)
(1.12977 0.0454291 3.8959e-18)
(1.15305 0.0561761 5.06082e-18)
(1.16125 0.0530514 3.10973e-18)
(1.19104 0.069054 4.49806e-18)
(1.20214 0.0629311 -6.9052e-19)
(1.24837 0.0859951 -2.07746e-18)
(1.25703 0.0820451 -2.69301e-18)
(1.35754 0.119739 -1.87323e-17)
(1.3738 0.145151 -1.61952e-17)
(1.45639 0.211745 -1.38657e-17)
(1.13005 0.0446827 3.85607e-18)
(1.15333 0.0552702 5.07596e-18)
(1.16156 0.0517991 3.01217e-18)
(1.19138 0.0675921 4.7611e-18)
(1.20249 0.0605978 -5.21122e-19)
(1.24896 0.0833464 -2.62192e-18)
(1.25771 0.0770727 -5.34009e-19)
(1.35942 0.114692 -1.55082e-17)
(1.37593 0.131787 -1.26236e-17)
(1.45462 0.198119 -1.2348e-17)
(1.13033 0.0439311 3.96072e-18)
(1.1536 0.0543631 5.69398e-18)
(1.16186 0.0505457 2.97537e-18)
(1.19169 0.0661298 5.76357e-18)
(1.2028 0.0582575 5.60834e-19)
(1.24946 0.0806922 -4.12941e-18)
(1.25836 0.0720653 2.3658e-19)
(1.36097 0.109592 -1.82623e-17)
(1.37787 0.118266 -1.20829e-17)
(1.45368 0.184349 -3.82632e-18)
(1.13061 0.0431751 3.57269e-18)
(1.15385 0.0534553 6.16161e-18)