/*--------------------------------*- C++ -*----------------------------------*\
  =========                 |
  \\      /  F ield         | OpenFOAM: The Open Source CFD Toolbox
   \\    /   O peration     | Website:  https://openfoam.org
    \\  /    A nd           | Version:  7
     \\/     M anipulation  |
\*---------------------------------------------------------------------------*/
FoamFile
{
    version     2.0;
    format      ascii;
    class       volScalarField;
    location    "92";
    object      p;
}
// * * * * * * * * * * * * * * * * * * * * * * * * * * * * * * * * * * * * * //

dimensions      [0 2 -2 0 0 0 0];

internalField   nonuniform List<scalar> 
4000
(
0.0087494
0.0186946
0.0222283
0.028377
0.0316834
0.0354864
0.0376118
0.0396057
0.0397214
0.0395277
0.0360455
0.0328517
0.0222894
0.0139653
-0.0111788
-0.0392752
-0.102184
-0.215844
-0.380254
-0.899435
-0.0011316
0.00844318
0.0117235
0.0172286
0.0200265
0.0230616
0.0243876
0.0252017
0.0239379
0.0217615
0.0161026
0.00921868
-0.00554952
-0.0232633
-0.0568063
-0.0916414
-0.146928
-0.16102
-0.245721
-0.0246388
-0.0103818
-0.000949512
0.00210536
0.00718753
0.00946247
0.0117875
0.0121398
0.0116114
0.00865472
0.00401919
-0.00457999
-0.016457
-0.0368602
-0.0632146
-0.10336
-0.144413
-0.198913
-0.250859
-0.299413
-0.43938
-0.0192344
-0.0100353
-0.00727829
-0.00264854
-0.000973406
0.000537216
-0.000194187
-0.00215834
-0.0068115
-0.0139348
-0.0258692
-0.0425734
-0.0678102
-0.0993363
-0.139269
-0.17248
-0.208468
-0.20515
-0.262871
-0.148106
-0.0278324
-0.0189845
-0.0165967
-0.0124776
-0.0114342
-0.0107475
-0.0125032
-0.0158122
-0.0221758
-0.0317623
-0.0467852
-0.0676023
-0.0965867
-0.130532
-0.166514
-0.190832
-0.213999
-0.239622
-0.243864
-0.264724
-0.0361745
-0.0277409
-0.0257569
-0.0221957
-0.0218281
-0.0220385
-0.024872
-0.0297155
-0.0382524
-0.0506556
-0.0687236
-0.0926937
-0.123212
-0.155562
-0.182891
-0.196384
-0.215262
-0.208528
-0.228644
-0.178897
-0.0442243
-0.036241
-0.0346675
-0.0316819
-0.0319724
-0.0330357
-0.036868
-0.0429588
-0.052911
-0.06695
-0.0867242
-0.112411
-0.143144
-0.172288
-0.192144
-0.202005
-0.213248
-0.217994
-0.21496
-0.206919
-0.0519541
-0.0444545
-0.0432921
-0.0409156
-0.0418662
-0.0437926
-0.0487829
-0.0564819
-0.0685267
-0.085087
-0.107232
-0.134432
-0.163799
-0.187363
-0.200489
-0.206766
-0.213294
-0.202768
-0.20424
-0.177617
-0.05936
-0.0523887
-0.0516184
-0.0498772
-0.0514261
-0.0541593
-0.0599885
-0.068483
-0.0809859
-0.0974267
-0.118633
-0.144274
-0.171723
-0.19206
-0.203135
-0.207109
-0.208139
-0.200033
-0.195718
-0.178928
-0.0664148
-0.0600198
-0.0596007
-0.0585404
-0.060656
-0.0642719
-0.0710628
-0.080894
-0.0953055
-0.114284
-0.138471
-0.167472
-0.196407
-0.217114
-0.223967
-0.21708
-0.205951
-0.189614
-0.182892
-0.160634
0.111879
0.129573
0.136104
0.151054
0.161123
0.17615
0.189492
0.206476
0.224457
0.246453
0.271486
0.302246
0.337261
0.380969
0.428531
0.489197
0.545369
0.631361
0.677118
0.819148
0.101636
0.118874
0.124834
0.139101
0.14815
0.162096
0.17392
0.189122
0.204653
0.223737
0.244829
0.271388
0.300582
0.338526
0.375815
0.431704
0.469566
0.5559
0.571783
0.708573
0.0914616
0.107974
0.113484
0.126751
0.134881
0.147518
0.157876
0.171275
0.184585
0.201187
0.219144
0.242639
0.267902
0.303686
0.337397
0.393354
0.430008
0.515865
0.536986
0.656882
0.0813368
0.0970674
0.102199
0.114533
0.121847
0.133287
0.142302
0.154044
0.165248
0.179411
0.194024
0.213985
0.233811
0.265351
0.290194
0.343452
0.366074
0.456404
0.462957
0.594835
0.0711216
0.0860638
0.0908246
0.102258
0.108777
0.119028
0.126693
0.136726
0.145729
0.157273
0.168298
0.184443
0.19876
0.225583
0.243328
0.290661
0.309155
0.386304
0.402146
0.509534
0.0607804
0.0749198
0.0793224
0.0898462
0.095598
0.104643
0.11099
0.119316
0.126151
0.135079
0.142609
0.154856
0.163915
0.185609
0.196299
0.238356
0.246996
0.328945
0.331322
0.484669
0.0503674
0.0636856
0.0677712
0.0773806
0.0824278
0.0902854
0.0954101
0.102082
0.106878
0.113173
0.117364
0.125492
0.129283
0.144346
0.148165
0.178264
0.180952
0.227468
0.240203
0.313778
0.0399267
0.0524088
0.0562393
0.0649522
0.0693919
0.0761052
0.0801483
0.0852703
0.0882464
0.0924029
0.0936958
0.0985156
0.0970208
0.107372
0.103106
0.132428
0.123818
0.203628
0.182952
0.425579
0.0295202
0.0411581
0.0448173
0.0526466
0.0565758
0.0621961
0.0653335
0.0690739
0.0707127
0.0730474
0.0719893
0.0733808
0.0674551
0.0699304
0.0570642
0.0659764
0.0439727
0.031372
-0.00574271
-0.056922
0.019115
0.0299002
0.0334799
0.0404624
0.0440289
0.0486414
0.0511073
0.0537945
0.0544352
0.0553171
0.052507
0.0516626
0.042874
0.0426133
0.0276129
0.0446022
0.0439857
0.137556
0.144297
0.477284
0.019115
0.0299002
0.0334799
0.0404624
0.0440289
0.0486414
0.0511073
0.0537945
0.0544351
0.055317
0.052507
0.0516626
0.042874
0.0426133
0.0276129
0.0446022
0.0439857
0.137556
0.144297
0.477284
0.0295202
0.0411581
0.0448173
0.0526466
0.0565758
0.0621961
0.0653335
0.0690739
0.0707127
0.0730474
0.0719893
0.0733808
0.0674551
0.0699304
0.0570642
0.0659764
0.0439726
0.031372
-0.00574272
-0.0569221
0.0399267
0.0524088
0.0562393
0.0649522
0.0693919
0.0761052
0.0801483
0.0852703
0.0882464
0.0924029
0.0936958
0.0985156
0.0970208
0.107372
0.103106
0.132428
0.123818
0.203628
0.182952
0.425579
0.0503674
0.0636856
0.0677711
0.0773806
0.0824278
0.0902854
0.0954101
0.102082
0.106878
0.113173
0.117364
0.125492
0.129283
0.144346
0.148165
0.178264
0.180952
0.227468
0.240203
0.313778
0.0607804
0.0749198
0.0793223
0.0898462
0.095598
0.104643
0.11099
0.119316
0.126151
0.135079
0.142609
0.154856
0.163915
0.185609
0.196299
0.238356
0.246996
0.328945
0.331322
0.484669
0.0711216
0.0860638
0.0908245
0.102258
0.108777
0.119028
0.126693
0.136726
0.145729
0.157273
0.168298
0.184443
0.19876
0.225583
0.243328
0.290661
0.309155
0.386304
0.402146
0.509534
0.0813368
0.0970674
0.102199
0.114533
0.121847
0.133287
0.142302
0.154044
0.165248
0.179411
0.194024
0.213985
0.233811
0.265351
0.290194
0.343452
0.366074
0.456404
0.462957
0.594835
0.0914615
0.107974
0.113484
0.126751
0.134881
0.147518
0.157876
0.171275
0.184585
0.201187
0.219144
0.242639
0.267902
0.303686
0.337397
0.393354
0.430008
0.515865
0.536986
0.656882
0.101636
0.118874
0.124834
0.139101
0.14815
0.162096
0.17392
0.189122
0.204653
0.223737
0.244829
0.271388
0.300582
0.338526
0.375815
0.431704
0.469566
0.5559
0.571783
0.708573
0.111879
0.129573
0.136104
0.151054
0.161123
0.17615
0.189492
0.206476
0.224457
0.246453
0.271486
0.302246
0.337261
0.380969
0.428531
0.489197
0.545369
0.631361
0.677118
0.819148
-0.0664148
-0.0600198
-0.0596007
-0.0585404
-0.060656
-0.0642719
-0.0710628
-0.080894
-0.0953055
-0.114284
-0.138471
-0.167472
-0.196407
-0.217114
-0.223967
-0.21708
-0.205951
-0.189614
-0.182892
-0.160634
-0.05936
-0.0523887
-0.0516184
-0.0498772
-0.0514261
-0.0541593
-0.0599885
-0.068483
-0.0809859
-0.0974268
-0.118633
-0.144274
-0.171723
-0.19206
-0.203135
-0.207109
-0.208139
-0.200033
-0.195718
-0.178928
-0.0519541
-0.0444545
-0.0432921
-0.0409156
-0.0418662
-0.0437926
-0.0487829
-0.056482
-0.0685267
-0.0850871
-0.107232
-0.134432
-0.163799
-0.187363
-0.200489
-0.206766
-0.213294
-0.202768
-0.20424
-0.177617
-0.0442242
-0.036241
-0.0346675
-0.0316819
-0.0319724
-0.0330357
-0.036868
-0.0429588
-0.052911
-0.06695
-0.0867242
-0.112411
-0.143144
-0.172288
-0.192144
-0.202005
-0.213248
-0.217994
-0.21496
-0.20692
-0.0361745
-0.0277409
-0.0257569
-0.0221957
-0.0218281
-0.0220385
-0.024872
-0.0297155
-0.0382524
-0.0506556
-0.0687236
-0.0926937
-0.123212
-0.155562
-0.182891
-0.196384
-0.215262
-0.208528
-0.228644
-0.178897
-0.0278324
-0.0189845
-0.0165967
-0.0124776
-0.0114342
-0.0107475
-0.0125032
-0.0158122
-0.0221758
-0.0317623
-0.0467852
-0.0676023
-0.0965867
-0.130532
-0.166514
-0.190832
-0.213999
-0.239622
-0.243864
-0.264724
-0.0192344
-0.0100353
-0.00727829
-0.00264854
-0.00097341
0.000537211
-0.000194194
-0.00215835
-0.00681151
-0.0139348
-0.0258692
-0.0425734
-0.0678102
-0.0993363
-0.139269
-0.17248
-0.208468
-0.20515
-0.262871
-0.148106
-0.0103818
-0.000949512
0.00210536
0.00718753
0.00946247
0.0117875
0.0121398
0.0116114
0.00865471
0.00401918
-0.00458
-0.016457
-0.0368602
-0.0632146
-0.10336
-0.144413
-0.198913
-0.250859
-0.299413
-0.43938
-0.0011316
0.00844318
0.0117235
0.0172286
0.0200265
0.0230616
0.0243876
0.0252017
0.0239378
0.0217615
0.0161026
0.00921867
-0.00554954
-0.0232633
-0.0568064
-0.0916415
-0.146928
-0.16102
-0.245721
-0.0246388
0.0087494
0.0186946
0.0222283
0.028377
0.0316834
0.0354864
0.0376118
0.0396057
0.0397214
0.0395277
0.0360455
0.0328516
0.0222894
0.0139653
-0.0111788
-0.0392752
-0.102184
-0.215844
-0.380254
-0.899435
0.144795
0.16304
0.171643
0.186232
0.198893
0.213717
0.229132
0.246269
0.265219
0.286519
0.310619
0.338227
0.370009
0.406662
0.448216
0.49494
0.544911
0.599391
0.649546
0.698452
0.187971
0.204285
0.21291
0.226753
0.239835
0.254858
0.27117
0.289136
0.308835
0.330442
0.354025
0.379606
0.407053
0.436126
0.466374
0.497218
0.527083
0.55684
0.57864
0.600243
0.224304
0.238648
0.246197
0.258091
0.269222
0.281644
0.294783
0.308824
0.323812
0.339793
0.356772
0.374685
0.393414
0.412705
0.432206
0.451223
0.469282
0.484885
0.497137
0.504737
0.251626
0.263548
0.270058
0.280317
0.290018
0.300833
0.312227
0.324257
0.336858
0.34994
0.363384
0.377038
0.390696
0.404113
0.416963
0.428925
0.439475
0.448296
0.454564
0.458154
0.272538
0.281846
0.28684
0.294669
0.30195
0.309977
0.318331
0.32704
0.336053
0.345299
0.354689
0.364106
0.373409
0.382412
0.390912
0.398639
0.40536
0.410737
0.414565
0.416568
0.288338
0.295777
0.299823
0.306168
0.312085
0.318583
0.325286
0.332195
0.339235
0.346322
0.353365
0.360262
0.366898
0.373153
0.378891
0.383983
0.388278
0.391658
0.393985
0.395181
0.299661
0.305057
0.30798
0.312556
0.316808
0.321455
0.326229
0.331127
0.336098
0.341081
0.346012
0.35082
0.355426
0.359742
0.363679
0.367143
0.370048
0.372309
0.373863
0.374655
0.308328
0.312602
0.314913
0.318531
0.321874
0.325512
0.329218
0.332988
0.33677
0.340516
0.344171
0.347684
0.350998
0.354058
0.356809
0.3592
0.36118
0.362708
0.363746
0.364273
0.314332
0.317302
0.318921
0.321453
0.323802
0.326357
0.328961
0.331611
0.334271
0.336906
0.339477
0.341948
0.344279
0.346429
0.348361
0.350036
0.351421
0.352487
0.353212
0.353579
0.318984
0.321346
0.322617
0.324606
0.326432
0.32841
0.33041
0.33243
0.334441
0.336415
0.338324
0.340142
0.34184
0.343393
0.344777
0.345969
0.346948
0.347698
0.348206
0.348462
0.322141
0.323741
0.324611
0.325978
0.327241
0.328614
0.330007
0.331419
0.332828
0.334215
0.335559
0.336842
0.338043
0.339143
0.340124
0.34097
0.341665
0.342198
0.342558
0.34274
0.324625
0.32591
0.326598
0.327675
0.32866
0.329724
0.330796
0.331874
0.332942
0.333986
0.334992
0.335944
0.33683
0.337637
0.338353
0.338967
0.33947
0.339854
0.340113
0.340244
0.326277
0.327132
0.327594
0.328326
0.328998
0.32973
0.330471
0.33122
0.331966
0.332698
0.333405
0.334077
0.334704
0.335277
0.335786
0.336224
0.336582
0.336857
0.337042
0.337136
0.327604
0.328304
0.328676
0.32926
0.329792
0.330365
0.330942
0.33152
0.332092
0.332649
0.333185
0.333691
0.334161
0.334588
0.334966
0.335289
0.335554
0.335756
0.335892
0.335961
0.328464
0.328925
0.329169
0.329565
0.329923
0.330317
0.330714
0.331115
0.331513
0.331904
0.332281
0.332639
0.332973
0.333277
0.333547
0.333779
0.333968
0.334113
0.334211
0.334261
0.329177
0.329565
0.329769
0.330092
0.330383
0.330699
0.331015
0.331333
0.331646
0.331951
0.332244
0.332521
0.332778
0.333011
0.333217
0.333393
0.333537
0.333647
0.333721
0.333758
0.329617
0.329874
0.330006
0.330229
0.330426
0.330646
0.330867
0.331091
0.331314
0.331533
0.331743
0.331944
0.33213
0.3323
0.332451
0.33258
0.332686
0.332767
0.332822
0.332849
0.329982
0.330207
0.330325
0.330515
0.330685
0.330872
0.331059
0.331247
0.331433
0.331614
0.331788
0.331953
0.332106
0.332245
0.332367
0.332472
0.332558
0.332624
0.332668
0.33269
0.330171
0.330321
0.330394
0.330531
0.330647
0.330785
0.33092
0.331062
0.331202
0.331341
0.331475
0.331603
0.331723
0.331833
0.33193
0.332014
0.332082
0.332135
0.33217
0.332188
0.330361
0.330501
0.330583
0.330714
0.330837
0.330972
0.331111
0.331251
0.331391
0.331529
0.331661
0.331787
0.331904
0.332011
0.332106
0.332187
0.332253
0.332303
0.332337
0.332355
-0.000585647
-0.000978947
-0.001141
-0.0011031
-0.000867781
-0.000376228
0.000428133
0.00159246
0.00315714
0.00514788
0.00756768
0.0103926
0.0135689
0.0170142
0.020618
0.0242377
0.0276894
0.0307337
0.0330656
0.0343509
-0.00253007
-0.00348611
-0.00404571
-0.00444618
-0.00478189
-0.00505184
-0.00525848
-0.0054064
-0.00548876
-0.00548392
-0.00535758
-0.00506619
-0.00456263
-0.0038053
-0.00277116
-0.00146689
5.00807e-05
0.00163669
0.00303015
0.00386875
-0.00525807
-0.0066195
-0.00729294
-0.00759976
-0.00754896
-0.0070579
-0.00606804
-0.00453646
-0.0024318
0.000254548
0.0035008
0.00724467
0.0113808
0.0157626
0.020206
0.0244951
0.0283912
0.0316446
0.0340084
0.0352662
-0.00888905
-0.0109642
-0.0121355
-0.0130618
-0.0137441
-0.0141204
-0.0141649
-0.0138508
-0.0131433
-0.0120098
-0.0104308
-0.00840709
-0.00596896
-0.00318598
-0.000171428
0.0029162
0.00587307
0.00845342
0.0103971
0.0114316
-0.0135113
-0.016252
-0.0176648
-0.0187632
-0.0194419
-0.0195816
-0.0191401
-0.0180812
-0.0163823
-0.0140486
-0.0111234
-0.00769062
-0.00387019
0.000187049
0.00430373
0.0082825
0.0119077
0.0149658
0.017185
0.0183834
-0.0193683
-0.0231354
-0.0251595
-0.0270506
-0.0285805
-0.0296401
-0.0301946
-0.0301935
-0.0295847
-0.028339
-0.0264598
-0.0239922
-0.0210303
-0.017715
-0.0142295
-0.0107919
-0.0076454
-0.00502391
-0.00312699
-0.00214693
-0.0265316
-0.0313369
-0.0338364
-0.0363301
-0.0383577
-0.0398157
-0.0406661
-0.040852
-0.0403334
-0.0391056
-0.0372005
-0.0346912
-0.0316856
-0.0283225
-0.024768
-0.0212188
-0.0178834
-0.0150575
-0.0129492
-0.0118112
-0.0351737
-0.0412582
-0.0444501
-0.0479267
-0.0509255
-0.0533787
-0.0552321
-0.056385
-0.0567611
-0.0563287
-0.0551017
-0.0531489
-0.0505924
-0.0475988
-0.0443686
-0.0411372
-0.0381203
-0.0355588
-0.0337088
-0.03273
-0.0453187
-0.0526887
-0.0565163
-0.0609341
-0.0647881
-0.0680625
-0.0706919
-0.0725501
-0.0735609
-0.0737007
-0.0729901
-0.0714976
-0.0693327
-0.0666402
-0.0636008
-0.0604227
-0.0573898
-0.0547338
-0.0527501
-0.0516819
-0.0569749
-0.0657031
-0.0702449
-0.0757603
-0.0806376
-0.0849139
-0.0884927
-0.0911965
-0.0929295
-0.0936646
-0.093429
-0.0923116
-0.0904497
-0.0880172
-0.0852125
-0.0822729
-0.0794089
-0.0769048
-0.075027
-0.0740141
-0.0700378
-0.08002
-0.0852012
-0.0917369
-0.0975142
-0.102652
-0.107021
-0.110419
-0.11276
-0.114031
-0.11427
-0.113568
-0.112055
-0.109894
-0.107289
-0.104449
-0.101656
-0.0991811
-0.0973115
-0.0963002
-0.0843433
-0.0954626
-0.101242
-0.108747
-0.115341
-0.121239
-0.126261
-0.13019
-0.132958
-0.134571
-0.135096
-0.134644
-0.133362
-0.131418
-0.129015
-0.126358
-0.123708
-0.121336
-0.119531
-0.118549
-0.0995948
-0.11161
-0.117852
-0.126131
-0.133316
-0.139749
-0.145205
-0.149482
-0.152541
-0.15441
-0.155171
-0.154945
-0.153876
-0.152131
-0.149894
-0.147391
-0.144867
-0.142597
-0.140863
-0.139919
-0.115427
-0.128075
-0.134641
-0.143473
-0.151013
-0.157739
-0.163382
-0.16778
-0.170927
-0.172883
-0.173749
-0.173654
-0.172739
-0.171169
-0.169117
-0.166793
-0.164431
-0.162295
-0.16066
-0.159768
-0.131387
-0.144353
-0.151061
-0.160173
-0.167804
-0.174579
-0.180195
-0.18455
-0.187664
-0.189623
-0.190536
-0.190532
-0.189747
-0.188329
-0.186446
-0.184295
-0.182095
-0.180099
-0.178569
-0.177733
-0.146997
-0.159981
-0.166658
-0.175787
-0.183266
-0.189867
-0.195269
-0.199426
-0.202393
-0.204269
-0.20517
-0.205216
-0.204533
-0.203259
-0.201547
-0.199575
-0.197551
-0.195709
-0.194294
-0.193522
-0.161783
-0.174509
-0.18099
-0.189899
-0.19703
-0.203291
-0.208355
-0.212227
-0.214986
-0.21674
-0.217597
-0.21767
-0.217074
-0.215926
-0.21437
-0.212568
-0.210712
-0.209021
-0.207721
-0.207012
-0.175318
-0.187571
-0.193725
-0.202232
-0.20887
-0.21468
-0.219328
-0.22286
-0.225377
-0.226982
-0.227778
-0.227863
-0.227336
-0.226306
-0.224897
-0.223256
-0.221562
-0.220016
-0.218827
-0.218179
-0.187251
-0.198885
-0.204617
-0.212608
-0.218672
-0.223982
-0.22818
-0.231361
-0.233629
-0.23508
-0.235807
-0.235894
-0.235424
-0.234494
-0.233213
-0.231717
-0.23017
-0.228758
-0.227672
-0.22708
-0.19732
-0.208271
-0.213525
-0.220953
-0.22641
-0.231215
-0.234961
-0.237803
-0.239829
-0.241132
-0.241789
-0.241872
-0.24145
-0.240606
-0.239439
-0.238073
-0.236658
-0.235365
-0.234373
-0.233831
-0.20535
-0.215637
-0.220396
-0.227277
-0.232136
-0.236472
-0.239792
-0.242326
-0.24413
-0.245297
-0.245887
-0.245961
-0.245575
-0.244804
-0.243733
-0.242479
-0.241179
-0.23999
-0.23908
-0.238584
-0.211254
-0.220973
-0.225247
-0.231652
-0.235946
-0.239876
-0.242807
-0.245072
-0.246678
-0.247724
-0.248253
-0.248317
-0.247959
-0.24725
-0.246256
-0.2451
-0.243897
-0.242803
-0.241963
-0.241506
-0.215017
-0.224335
-0.228149
-0.234204
-0.237974
-0.241591
-0.24417
-0.246213
-0.247643
-0.248587
-0.249057
-0.249108
-0.248771
-0.248108
-0.247187
-0.246109
-0.244991
-0.243974
-0.243195
-0.242771
-0.216675
-0.225828
-0.229212
-0.235088
-0.238364
-0.241789
-0.244028
-0.245924
-0.247178
-0.248048
-0.248458
-0.248498
-0.248177
-0.247551
-0.246687
-0.245677
-0.244632
-0.243683
-0.242957
-0.242564
-0.216266
-0.225581
-0.228558
-0.234484
-0.237275
-0.240663
-0.242541
-0.244396
-0.245442
-0.246272
-0.246624
-0.246648
-0.246338
-0.245743
-0.244928
-0.243977
-0.242997
-0.242109
-0.241433
-0.241066
-0.213768
-0.223713
-0.226293
-0.232589
-0.234853
-0.238409
-0.239873
-0.241758
-0.242628
-0.243406
-0.24371
-0.243717
-0.243415
-0.242847
-0.242076
-0.241181
-0.240262
-0.239432
-0.238801
-0.23846
-0.209152
-0.220468
-0.222548
-0.229656
-0.231264
-0.235195
-0.236267
-0.238159
-0.238899
-0.239615
-0.239877
-0.239865
-0.239568
-0.239027
-0.238299
-0.237459
-0.236602
-0.23583
-0.235245
-0.234929
-0.202883
-0.216379
-0.217702
-0.225878
-0.226965
-0.231075
-0.23197
-0.23376
-0.234426
-0.235057
-0.235283
-0.235251
-0.23496
-0.234447
-0.233766
-0.232986
-0.232193
-0.231483
-0.230946
-0.230657
-0.196982
-0.211501
-0.212863
-0.221214
-0.222334
-0.22626
-0.22715
-0.228749
-0.229371
-0.229903
-0.230092
-0.230041
-0.229759
-0.22928
-0.228651
-0.227937
-0.227216
-0.226572
-0.226087
-0.225826
-0.191199
-0.206184
-0.20785
-0.216061
-0.217366
-0.221009
-0.221927
-0.223316
-0.223889
-0.224323
-0.224474
-0.224406
-0.224137
-0.223698
-0.22313
-0.222491
-0.221849
-0.221279
-0.22085
-0.220621
-0.185494
-0.200761
-0.202716
-0.210703
-0.212185
-0.215532
-0.216457
-0.217644
-0.218151
-0.218494
-0.218602
-0.218522
-0.218273
-0.217881
-0.217383
-0.216827
-0.216273
-0.215782
-0.215416
-0.215219
-0.179816
-0.195285
-0.197478
-0.205265
-0.206885
-0.209978
-0.210885
-0.211893
-0.212323
-0.212582
-0.21265
-0.212562
-0.21234
-0.212004
-0.211584
-0.21112
-0.21066
-0.210255
-0.209953
-0.209791
-0.174295
-0.189907
-0.192293
-0.199901
-0.201628
-0.204502
-0.205372
-0.206223
-0.20657
-0.206757
-0.206786
-0.206697
-0.206508
-0.206233
-0.205898
-0.205531
-0.20517
-0.204853
-0.204618
-0.204492
-0.169073
-0.184705
-0.187266
-0.194697
-0.196528
-0.199216
-0.200053
-0.20077
-0.201041
-0.201163
-0.201163
-0.201079
-0.200928
-0.20072
-0.200473
-0.200206
-0.199944
-0.199716
-0.199547
-0.199457
-0.164364
-0.179831
-0.182559
-0.189778
-0.191722
-0.194244
-0.195058
-0.195662
-0.195868
-0.195937
-0.195915
-0.195842
-0.195732
-0.195593
-0.195434
-0.195265
-0.195101
-0.194959
-0.194854
-0.194798
-0.160336
-0.175385
-0.17828
-0.185227
-0.187298
-0.189671
-0.190479
-0.190996
-0.191152
-0.191182
-0.191148
-0.191091
-0.191025
-0.190953
-0.190878
-0.190802
-0.19073
-0.190667
-0.190621
-0.190597
-0.15715
-0.1715
-0.174546
-0.181139
-0.183343
-0.185575
-0.186392
-0.186854
-0.186973
-0.186978
-0.18694
-0.186903
-0.18688
-0.186871
-0.186874
-0.186882
-0.186891
-0.1869
-0.186906
-0.18691
-0.154887
-0.168256
-0.171421
-0.177576
-0.179904
-0.182003
-0.182846
-0.183274
-0.183378
-0.183372
-0.183338
-0.183323
-0.183341
-0.183389
-0.183458
-0.183538
-0.183618
-0.183687
-0.183737
-0.183764
-0.153587
-0.16573
-0.16896
-0.174598
-0.177017
-0.178988
-0.179868
-0.180282
-0.180389
-0.180385
-0.180363
-0.180371
-0.180424
-0.180519
-0.180643
-0.180782
-0.180917
-0.181034
-0.18112
-0.181165
-0.153213
-0.163948
-0.167169
-0.17223
-0.174687
-0.176539
-0.177454
-0.177873
-0.177999
-0.178011
-0.178006
-0.178037
-0.178119
-0.17825
-0.178416
-0.178597
-0.178773
-0.178925
-0.179036
-0.179095
-0.153685
-0.162908
-0.166033
-0.170482
-0.172907
-0.174647
-0.175586
-0.176027
-0.176185
-0.176222
-0.176241
-0.176294
-0.1764
-0.176556
-0.176749
-0.176958
-0.17716
-0.177334
-0.177461
-0.177529
-0.154866
-0.162558
-0.165502
-0.169328
-0.171648
-0.173283
-0.174229
-0.174701
-0.174899
-0.174972
-0.175018
-0.175092
-0.175214
-0.175385
-0.175591
-0.175813
-0.176027
-0.176211
-0.176345
-0.176416
-0.156596
-0.162819
-0.165504
-0.168724
-0.170877
-0.172401
-0.173338
-0.173845
-0.174089
-0.174206
-0.174286
-0.174383
-0.174517
-0.174694
-0.174903
-0.175126
-0.17534
-0.175524
-0.175658
-0.175729
-0.158693
-0.163571
-0.165942
-0.168599
-0.170539
-0.171941
-0.172855
-0.173392
-0.173686
-0.173848
-0.173963
-0.17408
-0.174223
-0.174399
-0.174601
-0.174813
-0.175017
-0.17519
-0.175318
-0.175385
-0.160975
-0.164679
-0.166706
-0.168865
-0.170564
-0.171838
-0.172719
-0.173284
-0.17363
-0.173847
-0.174007
-0.174154
-0.174311
-0.174485
-0.174676
-0.174873
-0.17506
-0.175219
-0.175336
-0.175397
-0.16326
-0.165984
-0.167673
-0.169407
-0.170865
-0.172014
-0.172859
-0.173444
-0.173839
-0.174106
-0.174303
-0.174468
-0.174625
-0.174795
-0.174969
-0.175143
-0.175305
-0.175442
-0.175542
-0.175595
-0.165384
-0.167328
-0.168706
-0.170098
-0.171347
-0.172389
-0.173208
-0.173823
-0.174279
-0.174618
-0.174881
-0.175102
-0.1753
-0.175469
-0.175631
-0.175786
-0.175927
-0.176044
-0.176129
-0.176173
-0.167193
-0.168546
-0.169661
-0.170797
-0.17189
-0.172859
-0.173671
-0.174318
-0.174824
-0.175211
-0.1755
-0.175719
-0.175888
-0.17605
-0.176195
-0.176323
-0.176434
-0.176524
-0.176589
-0.176622
-0.168546
-0.169471
-0.170385
-0.171355
-0.172363
-0.17332
-0.174181
-0.174913
-0.175528
-0.176041
-0.176459
-0.176799
-0.177075
-0.177277
-0.17742
-0.177537
-0.17763
-0.177701
-0.17775
-0.177775
-0.169295
-0.169924
-0.170701
-0.171592
-0.172594
-0.173606
-0.174569
-0.175408
-0.176106
-0.17666
-0.17707
-0.177353
-0.177541
-0.177678
-0.177801
-0.177885
-0.177942
-0.17798
-0.178004
-0.178016
-0.16927
-0.169707
-0.170427
-0.171326
-0.172418
-0.173591
-0.174781
-0.175881
-0.176855
-0.177696
-0.178401
-0.178961
-0.179392
-0.179709
-0.179849
-0.179942
-0.179989
-0.180011
-0.18002
-0.180023
-0.16828
-0.168608
-0.169332
-0.170301
-0.171558
-0.172965
-0.174447
-0.17583
-0.176997
-0.17789
-0.17852
-0.178908
-0.179125
-0.179201
-0.179305
-0.179337
-0.17933
-0.179305
-0.179277
-0.179261
-0.166128
-0.16636
-0.167143
-0.168252
-0.169785
-0.171583
-0.173586
-0.175588
-0.177441
-0.179036
-0.180359
-0.181392
-0.182142
-0.182668
-0.182908
-0.182976
-0.182969
-0.182918
-0.182865
-0.182831
-0.162476
-0.162581
-0.163454
-0.164734
-0.166587
-0.168817
-0.171362
-0.173923
-0.176215
-0.17796
-0.179121
-0.179781
-0.18007
-0.180131
-0.180129
-0.18011
-0.180004
-0.179872
-0.179752
-0.179681
-0.156887
-0.156853
-0.157876
-0.159403
-0.161713
-0.164594
-0.168046
-0.171799
-0.175566
-0.178951
-0.181733
-0.183871
-0.185365
-0.186303
-0.186821
-0.186823
-0.186699
-0.186454
-0.186232
-0.186085
-0.148875
-0.148585
-0.149736
-0.151452
-0.154177
-0.157627
-0.161809
-0.166359
-0.170848
-0.174603
-0.177184
-0.178597
-0.179221
-0.179387
-0.179274
-0.179297
-0.17907
-0.178747
-0.178426
-0.178206
-0.138046
-0.137323
-0.138548
-0.14041
-0.143678
-0.148075
-0.153723
-0.160362
-0.167646
-0.174862
-0.181171
-0.186011
-0.189393
-0.191346
-0.19234
-0.192252
-0.191688
-0.190696
-0.189803
-0.18908
-0.123863
-0.12242
-0.123526
-0.125196
-0.128507
-0.133058
-0.139028
-0.146147
-0.154012
-0.161597
-0.167566
-0.171178
-0.172816
-0.173737
-0.174268
-0.174811
-0.174979
-0.174452
-0.173738
-0.172914
-0.105662
-0.103261
-0.10441
-0.106226
-0.110285
-0.11618
-0.124313
-0.134647
-0.147119
-0.161121
-0.175461
-0.187991
-0.19681
-0.201643
-0.203437
-0.202808
-0.2006
-0.195993
-0.192163
-0.187489
-0.0826771
-0.0779691
-0.0781301
-0.0786625
-0.0818039
-0.0870634
-0.0949056
-0.105093
-0.117244
-0.129803
-0.13927
-0.143126
-0.142987
-0.14524
-0.15248
-0.159084
-0.164308
-0.166526
-0.167382
-0.164877
0.330361
0.330501
0.330583
0.330714
0.330837
0.330972
0.331111
0.331251
0.331391
0.331529
0.331661
0.331787
0.331904
0.332011
0.332106
0.332187
0.332253
0.332303
0.332337
0.332355
0.330171
0.330321
0.330394
0.330531
0.330647
0.330785
0.33092
0.331062
0.331202
0.331341
0.331475
0.331603
0.331723
0.331833
0.33193
0.332014
0.332082
0.332135
0.33217
0.332188
0.329982
0.330207
0.330325
0.330515
0.330685
0.330872
0.331059
0.331247
0.331433
0.331614
0.331788
0.331953
0.332106
0.332245
0.332367
0.332472
0.332558
0.332624
0.332668
0.33269
0.329617
0.329874
0.330006
0.330229
0.330426
0.330646
0.330867
0.331091
0.331314
0.331533
0.331743
0.331944
0.33213
0.3323
0.332451
0.33258
0.332686
0.332767
0.332822
0.332849
0.329177
0.329565
0.329769
0.330092
0.330383
0.330699
0.331015
0.331333
0.331646
0.331951
0.332244
0.332521
0.332778
0.333011
0.333217
0.333393
0.333537
0.333647
0.333721
0.333758
0.328464
0.328925
0.329169
0.329565
0.329923
0.330317
0.330714
0.331115
0.331513
0.331904
0.332281
0.332639
0.332973
0.333277
0.333547
0.333779
0.333968
0.334113
0.334211
0.334261
0.327604
0.328304
0.328676
0.32926
0.329792
0.330365
0.330942
0.33152
0.332092
0.332649
0.333185
0.333691
0.334161
0.334588
0.334966
0.335289
0.335554
0.335756
0.335892
0.335961
0.326277
0.327132
0.327594
0.328326
0.328998
0.32973
0.330471
0.33122
0.331966
0.332698
0.333405
0.334077
0.334704
0.335277
0.335786
0.336224
0.336582
0.336857
0.337042
0.337136
0.324625
0.32591
0.326598
0.327675
0.32866
0.329724
0.330796
0.331874
0.332942
0.333986
0.334992
0.335944
0.33683
0.337637
0.338353
0.338967
0.33947
0.339854
0.340113
0.340244
0.322141
0.323741
0.324611
0.325978
0.327241
0.328614
0.330007
0.331419
0.332828
0.334215
0.335559
0.336842
0.338043
0.339143
0.340124
0.34097
0.341665
0.342198
0.342558
0.34274
0.318984
0.321346
0.322617
0.324606
0.326432
0.32841
0.33041
0.33243
0.334441
0.336415
0.338324
0.340142
0.34184
0.343393
0.344777
0.345969
0.346948
0.347698
0.348206
0.348462
0.314332
0.317302
0.318921
0.321453
0.323802
0.326357
0.328961
0.331611
0.334271
0.336906
0.339477
0.341948
0.344279
0.346429
0.348361
0.350036
0.351421
0.352487
0.353212
0.353579
0.308328
0.312602
0.314913
0.318531
0.321874
0.325512
0.329218
0.332988
0.33677
0.340516
0.344171
0.347684
0.350998
0.354058
0.356809
0.3592
0.36118
0.362708
0.363746
0.364273
0.299661
0.305057
0.30798
0.312556
0.316808
0.321455
0.326229
0.331127
0.336098
0.341081
0.346012
0.35082
0.355426
0.359742
0.363679
0.367143
0.370048
0.372309
0.373863
0.374655
0.288338
0.295777
0.299823
0.306168
0.312085
0.318583
0.325286
0.332195
0.339235
0.346322
0.353365
0.360262
0.366898
0.373153
0.378891
0.383983
0.388278
0.391658
0.393985
0.395181
0.272538
0.281846
0.28684
0.294669
0.30195
0.309977
0.318331
0.32704
0.336053
0.345299
0.354689
0.364106
0.373409
0.382412
0.390912
0.398639
0.40536
0.410737
0.414565
0.416568
0.251626
0.263548
0.270058
0.280317
0.290018
0.300833
0.312227
0.324257
0.336858
0.34994
0.363384
0.377038
0.390696
0.404113
0.416963
0.428925
0.439475
0.448296
0.454564
0.458154
0.224304
0.238648
0.246197
0.258091
0.269222
0.281644
0.294783
0.308824
0.323812
0.339793
0.356772
0.374685
0.393414
0.412705
0.432206
0.451223
0.469282
0.484885
0.497137
0.504737
0.187971
0.204285
0.21291
0.226753
0.239835
0.254858
0.27117
0.289136
0.308835
0.330442
0.354025
0.379606
0.407053
0.436126
0.466374
0.497218
0.527083
0.55684
0.57864
0.600243
0.144795
0.16304
0.171643
0.186232
0.198893
0.213717
0.229132
0.246269
0.265219
0.286519
0.310619
0.338227
0.370009
0.406662
0.448216
0.49494
0.544911
0.599391
0.649546
0.698452
-0.0826771
-0.0779691
-0.0781302
-0.0786625
-0.0818039
-0.0870634
-0.0949056
-0.105093
-0.117244
-0.129802
-0.13927
-0.143126
-0.142987
-0.14524
-0.15248
-0.159084
-0.164308
-0.166526
-0.167382
-0.164877
-0.105662
-0.103261
-0.10441
-0.106226
-0.110285
-0.11618
-0.124313
-0.134647
-0.147119
-0.161121
-0.175461
-0.187991
-0.19681
-0.201643
-0.203437
-0.202808
-0.2006
-0.195993
-0.192163
-0.187489
-0.123863
-0.12242
-0.123526
-0.125196
-0.128507
-0.133058
-0.139028
-0.146147
-0.154012
-0.161597
-0.167566
-0.171178
-0.172816
-0.173737
-0.174268
-0.174811
-0.174979
-0.174452
-0.173738
-0.172914
-0.138046
-0.137323
-0.138548
-0.14041
-0.143678
-0.148075
-0.153723
-0.160362
-0.167646
-0.174862
-0.181171
-0.186011
-0.189393
-0.191346
-0.19234
-0.192252
-0.191688
-0.190696
-0.189803
-0.18908
-0.148875
-0.148585
-0.149736
-0.151452
-0.154177
-0.157627
-0.161809
-0.166359
-0.170848
-0.174603
-0.177184
-0.178597
-0.179221
-0.179387
-0.179274
-0.179296
-0.17907
-0.178747
-0.178426
-0.178206
-0.156887
-0.156853
-0.157877
-0.159403
-0.161713
-0.164594
-0.168046
-0.171799
-0.175566
-0.178951
-0.181733
-0.183871
-0.185365
-0.186303
-0.186821
-0.186823
-0.186699
-0.186454
-0.186232
-0.186085
-0.162476
-0.162581
-0.163454
-0.164734
-0.166588
-0.168817
-0.171362
-0.173923
-0.176215
-0.17796
-0.179121
-0.179781
-0.18007
-0.180131
-0.180129
-0.18011
-0.180004
-0.179872
-0.179752
-0.179681
-0.166128
-0.16636
-0.167143
-0.168253
-0.169785
-0.171583
-0.173586
-0.175588
-0.177441
-0.179036
-0.180359
-0.181392
-0.182142
-0.182668
-0.182908
-0.182976
-0.182969
-0.182918
-0.182865
-0.182831
-0.16828
-0.168608
-0.169332
-0.170301
-0.171558
-0.172965
-0.174448
-0.17583
-0.176997
-0.17789
-0.17852
-0.178909
-0.179125
-0.179201
-0.179305
-0.179337
-0.17933
-0.179305
-0.179277
-0.179261
-0.16927
-0.169707
-0.170427
-0.171326
-0.172418
-0.173591
-0.174781
-0.175881
-0.176855
-0.177696
-0.178401
-0.178961
-0.179392
-0.179709
-0.179849
-0.179942
-0.179989
-0.180011
-0.18002
-0.180023
-0.169295
-0.169924
-0.170701
-0.171593
-0.172594
-0.173606
-0.174569
-0.175408
-0.176106
-0.17666
-0.17707
-0.177353
-0.177541
-0.177678
-0.177802
-0.177885
-0.177942
-0.17798
-0.178004
-0.178016
-0.168546