/*--------------------------------*- C++ -*----------------------------------*\
  =========                 |
  \\      /  F ield         | OpenFOAM: The Open Source CFD Toolbox
   \\    /   O peration     | Website:  https://openfoam.org
    \\  /    A nd           | Version:  7
     \\/     M anipulation  |
\*---------------------------------------------------------------------------*/
FoamFile
{
    version     2.0;
    format      ascii;
    class       surfaceScalarField;
    location    "92";
    object      phi;
}
// * * * * * * * * * * * * * * * * * * * * * * * * * * * * * * * * * * * * * //

dimensions      [0 3 -1 0 0 0 0];

internalField   nonuniform List<scalar> 
7840
(
-0.00147439
0.00976863
-0.00939945
-0.00183921
0.00973247
-0.00936765
-0.00220386
0.00967599
-0.00931134
-0.00256804
0.00963177
-0.00926759
-0.00293341
0.00958256
-0.00921719
-0.00329994
0.00954113
-0.0091746
-0.00366954
0.00949738
-0.00912778
-0.00404316
0.00945871
-0.00908509
-0.0044227
0.00941975
-0.00904022
-0.00480931
0.00938725
-0.00900064
-0.00520853
0.00935335
-0.00895413
-0.00562091
0.00933478
-0.0089224
-0.00606284
0.00930882
-0.00886689
-0.00652485
0.009324
-0.00886199
-0.00700843
0.00927332
-0.00878974
-0.00733763
0.00914941
-0.00882021
-0.00719712
0.00843702
-0.00857753
-0.00579249
0.00698159
-0.00838622
-0.00317786
0.00401697
-0.0066316
0.00109059
-0.00426845
-0.0015006
0.0101388
-0.00186791
0.0100998
-0.00223553
0.0100436
-0.00260332
0.00999956
-0.00297263
0.00995188
-0.00334406
0.00991255
-0.00371929
0.00987262
-0.00409998
0.00983939
-0.0044887
0.00980847
-0.00488798
0.00978653
-0.00530431
0.00976968
-0.00574242
0.00977288
-0.00621133
0.00977773
-0.00666781
0.00978048
-0.00698622
0.00959172
-0.00683411
0.0089973
-0.00585937
0.00746228
-0.00382413
0.00494635
-0.00144303
0.00163587
-0.000352441
-0.00152572
0.0105102
-0.00189505
0.0104691
-0.00226533
0.0104139
-0.00263634
0.0103706
-0.00300983
0.0103254
-0.00338654
0.0102893
-0.00376845
0.0102545
-0.00415715
0.0102281
-0.00455548
0.0102068
-0.00496673
0.0101978
-0.00539699
0.0101999
-0.00584483
0.0102207
-0.00627985
0.0102127
-0.0065732
0.0100738
-0.00647544
0.00949396
-0.00563154
0.0081534
-0.00390707
0.00573782
-0.00162714
0.00266642
-9.16272e-05
0.00010036
-0.000444068
-0.00154966
0.0108828
-0.0019208
0.0108403
-0.00229329
0.0107864
-0.00266696
0.0107442
-0.00304348
0.0107019
-0.00342355
0.0106693
-0.00380923
0.0106402
-0.00420286
0.0106217
-0.0046085
0.0106124
-0.00503031
0.0106196
-0.00546788
0.0106375
-0.0058931
0.0106459
-0.00621353
0.0105332
-0.00622332
0.0100836
-0.0056441
0.00891474
-0.00427787
0.00678717
-0.00236137
0.00382132
-0.000731889
0.00103694
-5.84198e-05
-0.00057311
-0.000502488
-0.0015722
0.0112564
-0.001945
0.0112131
-0.00231951
0.0111609
-0.00269593
0.0111207
-0.00307607
0.011082
-0.00346129
0.0110546
-0.00385416
0.0110331
-0.00425685
0.0110244
-0.00467122
0.0110268
-0.00509549
0.0110439
-0.00551217
0.0110542
-0.00585537
0.0109892
-0.0059734
0.0106512
-0.00562327
0.0097335
-0.0045884
0.00787987
-0.00292239
0.00512116
-0.00122274
0.00212167
-0.000163246
-2.25608e-05
0.000113873
-0.000850229
-0.000388615
-0.00159343
0.0116309
-0.00196778
0.0115874
-0.00234409
0.0115372
-0.00272275
0.0114993
-0.00310517
0.0114645
-0.00349237
0.0114418
-0.0038859
0.0114266
-0.00428761
0.0114261
-0.00469887
0.0114381
-0.00511127
0.0114563
-0.00548259
0.0114255
-0.00569912
0.0112057
-0.00556331
0.0105154
-0.0048524
0.0090226
-0.00350516
0.00653263
-0.00187374
0.00348974
-0.000627302
0.00087523
-6.67563e-05
-0.000583107
6.20388e-06
-0.000923189
-0.000382411
-0.00161315
0.012006
-0.0019887
0.011963
-0.00236649
0.011915
-0.00274734
0.0118802
-0.00313277
0.0118499
-0.00352468
0.0118337
-0.00392527
0.0118272
-0.004336
0.0118369
-0.00475096
0.011853
-0.00513969
0.011845
-0.0054218
0.0117076
-0.0054476
0.0112315
-0.00502078
0.0100886
-0.00400144
0.00800326
-0.00253129
0.00506248
-0.00115335
0.00211179
-0.000342106
6.39888e-05
-3.44854e-05
-0.000890727
6.90864e-06
-0.000964583
-0.000375503
-0.00163169
0.0123819
-0.00200849
0.0123398
-0.00238774
0.0122942
-0.00277045
0.0122629
-0.00315737
0.0122368
-0.0035494
0.0122257
-0.0039461
0.0122239
-0.00434395
0.0122347
-0.00472755
0.0122366
-0.00505066
0.0121681
-0.00521132
0.0118683
-0.0050422
0.0110624
-0.00436523
0.0094116
-0.0031579
0.00679592
-0.00176668
0.00367127
-0.000732386
0.00107749
-0.000212853
-0.000455545
-3.82771e-05
-0.0010653
-2.17503e-05
-0.00098111
-0.000397253
-0.00164853
0.012758
-0.00202597
0.0127172
-0.00240587
0.0126741
-0.00279006
0.0126471
-0.00317874
0.0126255
-0.00357382
0.0126208
-0.00397533
0.0126254
-0.00437804
0.0126374
-0.00475486
0.0126134
-0.00502922
0.0124425
-0.00505673
0.0118958
-0.00465819
0.0106638
-0.00373461
0.00848802
-0.00244137
0.00550268
-0.00123215
0.00246204
-0.000461968
0.000307317
-0.000101662
-0.000815851
5.23958e-06
-0.0011722
5.41623e-06
-0.000981286
-0.000391837
-0.00166415
0.0131338
-0.0020436
0.0130967
-0.00242484
0.0130554
-0.00281107
0.0130333
-0.00320059
0.013015
-0.00359426
0.0130144
-0.003986
0.0130171
-0.00435752
0.0130089
-0.00465773
0.0129136
-0.00478497
0.0125697
-0.0045982
0.011709
-0.00398113
0.0100467
-0.00294987
0.00745677
-0.00175393
0.00430675
-0.000787074
0.00149518
-0.000223438
-0.000256318
2.59459e-05
-0.00106524
5.88817e-05
-0.00120514
1.40723e-05
-0.000936477
-0.000377765
-0.000617937
0.0115516
-0.011774
-0.000403548
0.0114581
-0.0116725
-0.00019412
0.0113586
-0.011568
3.49952e-06
0.0112312
-0.0114288
0.00019209
0.0111128
-0.0113014
0.000366351
0.0109644
-0.0111387
0.000526636
0.0108157
-0.010976
0.000668577
0.0106355
-0.0107775
0.000789256
0.0104368
-0.0105575
0.000884443
0.0101969
-0.0102921
0.000948894
0.00991811
-0.00998256
0.000977738
0.00957482
-0.00960367
0.000962406
0.00917089
-0.00915556
0.000905168
0.00866945
-0.00861221
0.000796645
0.00811515
-0.00800662
0.000644157
0.00740953
-0.00725704
0.000441445
0.00670862
-0.00650591
0.000178102
0.00574891
-0.00548556
-6.71945e-06
0.00458921
-0.00440438
0.00218184
-0.00218856
-0.000642666
0.0113261
-0.000425966
0.0112414
-0.000213948
0.0111466
-1.35266e-05
0.0110307
0.000178027
0.0109213
0.000355356
0.0107871
0.000518713
0.0106523
0.000663668
0.0104906
0.000787508
0.010313
0.000885708
0.0100987
0.000953162
0.00985065
0.000985049
0.00954293
0.000974849
0.00918109
0.00092105
0.00872324
0.000821113
0.00821508
0.000667721
0.00756292
0.000485128
0.00689122
0.000229991
0.00600404
7.37461e-05
0.00474545
0.00225559
-0.00066733
0.0110978
-0.000447434
0.0110215
-0.000232479
0.0109316
-2.86723e-05
0.0108269
0.000166474
0.0107261
0.000347671
0.0106059
0.000515063
0.0104849
0.000664135
0.0103415
0.00079201
0.0101851
0.000893652
0.00999704
0.000963357
0.00978095
0.000995234
0.00951106
0.000981094
0.00919523
0.000916702
0.00878764
0.000798777
0.00833301
0.000618973
0.00774273
0.00040383
0.00710636
0.000120127
0.00628775
-3.6549e-05
0.00490213
0.00221904
-0.000691457
0.0108664
-0.000468031
0.010798
-0.000249715
0.0107133
-4.20679e-05
0.0106193
0.000157099
0.010527
0.000342757
0.0104202
0.000514927
0.0103128
0.000669138
0.0101873
0.000802568
0.0100517
0.000910015
0.00988959
0.000985998
0.00970497
0.00102376
0.0094733
0.00101652
0.00920247
0.000954705
0.00884945
0.000841896
0.00844582
0.000650196
0.00793443
0.000434258
0.0073223
0.00015489
0.00656711
-1.62657e-05
0.00507328
0.00220277
-0.00071523
0.0106317
-0.00048804
0.0105709
-0.000266093
0.0104913
-5.42559e-05
0.0104074
0.000149334
0.0103234
0.000340001
0.0102295
0.000517752
0.010135
0.000678301
0.0100268
0.000819028
0.00991093
0.000934553
0.00977407
0.00101969
0.00961983
0.00106651
0.00942648
0.00106906
0.00919992
0.00101537
0.00890313
0.000909625
0.00855156
0.000732686
0.00811137
0.000506552
0.00754843
0.000230496
0.00684317
2.60828e-05
0.00527769
0.00222886
-0.000738141
0.0103933
-0.000506712
0.0103394
-0.000280519
0.0102651
-6.37517e-05
0.0101907
0.000145158
0.0101145
0.000341972
0.0100327
0.000526807
0.00995017
0.000695582
0.00985798
0.00084615
0.00976036
0.000972936
0.00964728
0.00107169
0.00952108
0.00113201
0.00936616
0.00115081
0.00918112
0.00110609
0.00894785
0.00100807
0.00864958
0.00080136
0.00831808
0.000564161
0.00778563
0.000241754
0.00716558
2.51043e-05
0.00549434
0.00225396
-0.000760984
0.0101512
-0.000525365
0.0101038
-0.000294961
0.0100347
-7.33329e-05
0.00996905
0.000140864
0.00990027
0.000343735
0.00982986
0.000535586
0.00975832
0.00071275
0.00968081
0.000873437
0.00959967
0.00101188
0.00950884
0.00112414
0.00940882
0.00119976
0.00929055
0.00123606
0.00914482
0.00121564
0.00896826
0.00114832
0.0087169
0.00102509
0.00844132
0.000822979
0.00798774
0.000569
0.00741956
0.000226237
0.00583711
0.0024802
-0.000782128
0.00990485
-0.000541466
0.00986314
-0.000305633
0.0097989
-7.77699e-05
0.00974118
0.000143317
0.00967919
0.000354243
0.00961893
0.000555709
0.00955685
0.000744325
0.0094922
0.000918712
0.00942528
0.00107329
0.00935426
0.00120592
0.00927619
0.00130503
0.00919144
0.0013683
0.00908155
0.0013678
0.00896876
0.00130458
0.00878012
0.00110855
0.00863736
0.000846898
0.00824939
0.000434743
0.00783171
0.000160967
0.00611088
0.00264116
-0.000804559
0.00965466
-0.000560045
0.00961863
-0.000320191
0.00955905
-8.7778e-05
0.00950877
0.000138372
0.00945304
0.000354918
0.00940239
0.000562873
0.0093489
0.000758774
0.00929629
0.000941639
0.00924242
0.00110663
0.00918927
0.0012519
0.00913092
0.00136726
0.00907607
0.00145175
0.00899706
0.00148938
0.00893113
0.00149553
0.00877397
0.00148265
0.00865023
0.00142156
0.00831048
0.00126897
0.0079843
0.000772566
0.00660729
0.00341373
-0.000822696
-0.000571715
-0.000324003
-8.28205e-05
0.000153029
0.000380815
0.00060193
0.000813137
0.00101534
0.00120396
0.00138076
0.00153443
0.0016646
0.00173375
0.00171798
0.001548
0.00128095
0.00087903
0.000854724
-0.000822696
-0.00965466
0.00939945
-0.000571715
-0.00961863
0.00936765
-0.000324003
-0.00955905
0.00931134
-8.28204e-05
-0.00950877
0.00926759
0.000153029
-0.00945304
0.00921719
0.000380815
-0.00940239
0.0091746
0.00060193
-0.0093489
0.00912778
0.000813137
-0.00929629
0.00908509
0.00101534
-0.00924242
0.00904022
0.00120396
-0.00918927
0.00900064
0.00138076
-0.00913092
0.00895413
0.00153443
-0.00907607
0.0089224
0.00166461
-0.00899706
0.00886689
0.00173375
-0.00893113
0.00886199
0.00171798
-0.00877397
0.00878974
0.001548
-0.00865023
0.00882021
0.00128095
-0.00831048
0.00857753
0.00087903
-0.0079843
0.00838622
0.000854724
-0.00660729
0.0066316
-0.00341373
0.00426845
-0.000804559
-0.00990485
-0.000560045
-0.00986314
-0.000320191
-0.0097989
-8.7778e-05
-0.00974118
0.000138372
-0.00967919
0.000354918
-0.00961893
0.000562873
-0.00955685
0.000758774
-0.0094922
0.000941639
-0.00942528
0.00110663
-0.00935426
0.0012519
-0.00927619
0.00136726
-0.00919144
0.00145175
-0.00908155
0.00148938
-0.00896876
0.00149553
-0.00878012
0.00148265
-0.00863736
0.00142156
-0.00824939
0.00126897
-0.00783171
0.000772566
-0.00611088
-0.00264116
-0.000782128
-0.0101512
-0.000541465
-0.0101038
-0.000305633
-0.0100347
-7.77699e-05
-0.00996905
0.000143317
-0.00990027
0.000354243
-0.00982986
0.000555709
-0.00975832
0.000744325
-0.00968081
0.000918712
-0.00959967
0.00107329
-0.00950884
0.00120592
-0.00940882
0.00130503
-0.00929055
0.0013683
-0.00914482
0.0013678
-0.00896826
0.00130458
-0.0087169
0.00110855
-0.00844132
0.000846898
-0.00798774
0.000434743
-0.00741956
0.000160967
-0.00583711
-0.0024802
-0.000760984
-0.0103933
-0.000525365
-0.0103394
-0.00029496
-0.0102651
-7.33328e-05
-0.0101907
0.000140864
-0.0101145
0.000343735
-0.0100327
0.000535586
-0.00995017
0.00071275
-0.00985798
0.000873437
-0.00976036
0.00101188
-0.00964728
0.00112414
-0.00952108
0.00119976
-0.00936616
0.00123606
-0.00918112
0.00121564
-0.00894785
0.00114832
-0.00864958
0.00102509
-0.00831808
0.000822979
-0.00778563
0.000569
-0.00716558
0.000226237
-0.00549435
-0.00225396
-0.000738141
-0.0106317
-0.000506712
-0.0105709
-0.000280519
-0.0104913
-6.37517e-05
-0.0104074
0.000145158
-0.0103234
0.000341972
-0.0102295
0.000526807
-0.010135
0.000695582
-0.0100268
0.00084615
-0.00991093
0.000972936
-0.00977407
0.00107169
-0.00961983
0.00113201
-0.00942648
0.00115081
-0.00919992
0.00110609
-0.00890313
0.00100807
-0.00855156
0.00080136
-0.00811137
0.000564161
-0.00754843
0.000241755
-0.00684317
2.51043e-05
-0.00527769
-0.00222886
-0.00071523
-0.0108664
-0.000488039
-0.010798
-0.000266092
-0.0107133
-5.42558e-05
-0.0106193
0.000149334
-0.010527
0.000340001
-0.0104202
0.000517752
-0.0103128
0.000678301
-0.0101873
0.000819028
-0.0100517
0.000934553
-0.00988959
0.00101969
-0.00970497
0.00106651
-0.0094733
0.00106906
-0.00920247
0.00101537
-0.00884945
0.000909625
-0.00844582
0.000732686
-0.00793443
0.000506552
-0.0073223
0.000230496
-0.00656711
2.60828e-05
-0.00507328
-0.00220277
-0.000691457
-0.0110978
-0.000468031
-0.0110215
-0.000249715
-0.0109316
-4.20679e-05
-0.0108269
0.000157099
-0.0107261
0.000342757
-0.0106059
0.000514927
-0.0104849
0.000669139
-0.0103415
0.000802568
-0.0101851
0.000910015
-0.00999704
0.000985998
-0.00978095
0.00102376
-0.00951106
0.00101652
-0.00919523
0.000954705
-0.00878764
0.000841896
-0.00833301
0.000650196
-0.00774273
0.000434258
-0.00710636
0.00015489
-0.00628775
-1.62657e-05
-0.00490213
-0.00221904
-0.00066733
-0.0113261
-0.000447433
-0.0112414
-0.000232479
-0.0111466
-2.86722e-05
-0.0110307
0.000166474
-0.0109213
0.000347672
-0.0107871
0.000515063
-0.0106523
0.000664135
-0.0104906
0.00079201
-0.010313
0.000893652
-0.0100987
0.000963357
-0.00985065
0.000995234
-0.00954293
0.000981094
-0.00918109
0.000916702
-0.00872324
0.000798777
-0.00821508
0.000618973
-0.00756292
0.00040383
-0.00689122
0.000120127
-0.00600404
-3.6549e-05
-0.00474545
-0.00225559
-0.000642666
-0.0115516
-0.000425966
-0.0114581
-0.000213948
-0.0113586
-1.35266e-05
-0.0112312
0.000178028
-0.0111128
0.000355356
-0.0109644
0.000518713
-0.0108157
0.000663669
-0.0106355
0.000787508
-0.0104368
0.000885708
-0.0101969
0.000953162
-0.00991811
0.000985049
-0.00957482
0.000974849
-0.00917089
0.00092105
-0.00866945
0.000821113
-0.00811515
0.000667721
-0.00740953
0.000485128
-0.00670862
0.000229991
-0.00574891
7.37461e-05
-0.00458921
-0.00218184
-0.000617937
-0.011774
-0.000403548
-0.0116725
-0.00019412
-0.011568
3.49955e-06
-0.0114288
0.00019209
-0.0113014
0.000366351
-0.0111387
0.000526636
-0.010976
0.000668577
-0.0107775
0.000789256
-0.0105575
0.000884443
-0.0102921
0.000948894
-0.00998256
0.000977738
-0.00960367
0.000962406
-0.00915556
0.000905168
-0.00861221
0.000796645
-0.00800662
0.000644157
-0.00725704
0.000441445
-0.00650591
0.000178102
-0.00548556
-6.71945e-06
-0.00440438
-0.00218856
-0.00166415
-0.012758
0.0131338
-0.0020436
-0.0127172
0.0130967
-0.00242484
-0.0126741
0.0130554
-0.00281107
-0.0126471
0.0130333
-0.00320059
-0.0126255
0.013015
-0.00359426
-0.0126208
0.0130144
-0.003986
-0.0126254
0.0130171
-0.00435752
-0.0126374
0.0130089
-0.00465773
-0.0126134
0.0129137
-0.00478497
-0.0124425
0.0125697
-0.0045982
-0.0118958
0.011709
-0.00398113
-0.0106638
0.0100467
-0.00294987
-0.00848802
0.00745677
-0.00175393
-0.00550268
0.00430675
-0.000787074
-0.00246204
0.00149518
-0.000223439
-0.000307317
-0.000256318
2.59459e-05
0.000815851
-0.00106524
5.88817e-05
0.0011722
-0.00120514
1.40722e-05
0.000981286
-0.000936477
0.000391837
-0.000377765
-0.00164853
-0.0123819
-0.00202597
-0.0123398
-0.00240587
-0.0122942
-0.00279006
-0.0122629
-0.00317874
-0.0122368
-0.00357382
-0.0122257
-0.00397533
-0.0122239
-0.00437804
-0.0122347
-0.00475486
-0.0122366
-0.00502922
-0.0121681
-0.00505673
-0.0118683
-0.00465819
-0.0110624
-0.00373461
-0.0094116
-0.00244137
-0.00679592
-0.00123215
-0.00367127
-0.000461968
-0.00107749
-0.000101662
0.000455545
5.23954e-06
0.0010653
5.41622e-06
0.00098111
0.000397253
-0.00163169
-0.012006
-0.00200849
-0.011963
-0.00238774
-0.011915
-0.00277045
-0.0118802
-0.00315737
-0.0118499
-0.0035494
-0.0118337
-0.0039461
-0.0118272
-0.00434395
-0.0118369
-0.00472755
-0.011853
-0.00505066
-0.011845
-0.00521132
-0.0117076
-0.0050422
-0.0112315
-0.00436523
-0.0100886
-0.0031579
-0.00800326
-0.00176668
-0.00506248
-0.000732386
-0.00211179
-0.000212853
-6.39888e-05
-3.82771e-05
0.000890727
-2.17503e-05
0.000964583
0.000375503
-0.00161315
-0.0116309
-0.0019887
-0.0115874
-0.00236649
-0.0115372
-0.00274734
-0.0114993
-0.00313277
-0.0114645
-0.00352468
-0.0114418
-0.00392527
-0.0114266
-0.004336
-0.0114261
-0.00475096
-0.0114381
-0.00513969
-0.0114563
-0.0054218
-0.0114255
-0.0054476
-0.0112057
-0.00502078
-0.0105154
-0.00400144
-0.0090226
-0.00253129
-0.00653263
-0.00115335
-0.00348974
-0.000342106
-0.00087523
-3.44854e-05
0.000583107
6.90862e-06
0.000923189
0.000382411
-0.00159343
-0.0112564
-0.00196778
-0.0112131
-0.00234409
-0.0111609
-0.00272275
-0.0111207
-0.00310517
-0.011082
-0.00349237
-0.0110546
-0.0038859
-0.0110331
-0.00428761
-0.0110244
-0.00469887
-0.0110268
-0.00511127
-0.0110439
-0.00548259
-0.0110542
-0.00569912
-0.0109892
-0.00556331
-0.0106512
-0.0048524
-0.0097335
-0.00350516
-0.00787987
-0.00187374
-0.00512116
-0.000627302
-0.00212167
-6.67564e-05
2.25608e-05
6.20387e-06
0.000850229
0.000388615
-0.0015722
-0.0108828
-0.001945
-0.0108403
-0.00231951
-0.0107864
-0.00269593
-0.0107442
-0.00307607
-0.0107019
-0.00346129
-0.0106693
-0.00385416
-0.0106402
-0.00425685
-0.0106217
-0.00467122
-0.0106124
-0.00509549
-0.0106196
-0.00551217
-0.0106375
-0.00585537
-0.010646
-0.0059734
-0.0105332
-0.00562327
-0.0100836
-0.0045884
-0.00891474
-0.00292239
-0.00678717
-0.00122274
-0.00382132
-0.000163246
-0.00103694
0.000113873
0.00057311
0.000502488
-0.00154966
-0.0105102
-0.0019208
-0.0104691
-0.00229329
-0.0104139
-0.00266696
-0.0103706
-0.00304348
-0.0103254
-0.00342355
-0.0102893
-0.00380923
-0.0102545
-0.00420286
-0.0102281
-0.0046085
-0.0102068
-0.00503031
-0.0101978
-0.00546788
-0.0101999
-0.0058931
-0.0102207
-0.00621353
-0.0102127
-0.00622332
-0.0100738
-0.0056441
-0.00949396
-0.00427787
-0.0081534
-0.00236137
-0.00573782
-0.000731889
-0.00266642
-5.84198e-05
-0.00010036
0.000444068
-0.00152572
-0.0101388
-0.00189505
-0.0100998
-0.00226533
-0.0100436
-0.00263634
-0.00999956
-0.00300983
-0.00995188
-0.00338654
-0.00991255
-0.00376845
-0.00987262
-0.00415715
-0.00983939
-0.00455548
-0.00980847
-0.00496673
-0.00978653
-0.00539699
-0.00976968
-0.00584483
-0.00977288
-0.00627985
-0.00977773
-0.0065732
-0.00978048
-0.00647544
-0.00959172
-0.00563154
-0.0089973
-0.00390707
-0.00746228
-0.00162714
-0.00494635
-9.16272e-05
-0.00163587
0.000352441
-0.0015006
-0.00976863
-0.00186791
-0.00973247
-0.00223553
-0.00967599
-0.00260332
-0.00963177
-0.00297263
-0.00958256
-0.00334406
-0.00954113
-0.00371929
-0.00949738
-0.00409998
-0.00945871
-0.0044887
-0.00941975
-0.00488798
-0.00938725
-0.00530431
-0.00935335
-0.00574242
-0.00933478
-0.00621133
-0.00930882
-0.00666781
-0.009324
-0.00698622
-0.00927332
-0.00683411
-0.00914941
-0.00585937
-0.00843702
-0.00382413
-0.00698159
-0.00144303
-0.00401697
-0.00109059
-0.00147439
-0.00183921
-0.00220386
-0.00256804
-0.00293341
-0.00329994
-0.00366954
-0.00404316
-0.0044227
-0.00480931
-0.00520853
-0.00562091
-0.00606284
-0.00652485
-0.00700843
-0.00733763
-0.00719712
-0.00579249
-0.00317786
-0.0045342
-0.0113782
-0.00493187
-0.0112748
-0.00533762
-0.0111622
-0.00573726
-0.0110291
-0.00614885
-0.0108898
-0.0065525
-0.010735
-0.00696055
-0.0105679
-0.00735366
-0.0103844
-0.00772725
-0.0101839
-0.00806272
-0.0099566
-0.00834427
-0.00970102
-0.00853517
-0.00941277
-0.00860319
-0.00908753
-0.00849766
-0.00871774
-0.00820223
-0.00830205
-0.00761875
-0.00784052
-0.00678093
-0.00734373
-0.0054544
-0.00681209
-0.0035268
-0.00633198
-0.00571536
2.68679e-11
-0.00350718
-0.0110697
-0.00380067
-0.0109813
-0.00408292
-0.01088
-0.00435275
-0.0107593
-0.00461386
-0.0106287
-0.00486168
-0.0104872
-0.0050967
-0.0103329
-0.00531554
-0.0101655
-0.00551602
-0.0099834
-0.00568628
-0.00978633
-0.00581352
-0.00957378
-0.00587957
-0.00934672
-0.00586061
-0.00910649
-0.00572165
-0.00885671
-0.00542365
-0.00860004
-0.0049225
-0.00834168
-0.00417688
-0.00808935
-0.00313876
-0.00785022
-0.00181624
-0.0076545
-0.0075316
2.87436e-11
-0.00288269
-0.0108022
-0.00313758
-0.0107264
-0.00337499
-0.0106426
-0.00359123
-0.0105431
-0.00378104
-0.0104389
-0.00394228
-0.0103259
-0.00407038
-0.0102048
-0.00416079
-0.0100751
-0.00420707
-0.00993712
-0.0042031
-0.00979031
-0.00414189
-0.00963499
-0.00401695
-0.00947166
-0.00382164
-0.0093018
-0.00355043
-0.00912791
-0.0031958
-0.00895467
-0.00274922
-0.00878826
-0.00220321
-0.00863535
-0.00154958
-0.00850386
-0.00079913
-0.00840495
-0.00833073
3.46285e-11
-0.00208041
-0.0106007
-0.0022679
-0.0105389
-0.00244012
-0.0104704
-0.00259558
-0.0103876
-0.00273451
-0.0103
-0.00285451
-0.0102059
-0.00295268
-0.0101066
-0.00302519
-0.0100026
-0.00306775
-0.00989456
-0.00307455
-0.00978351
-0.00303898
-0.00967055
-0.00295357
-0.00955707
-0.00281074
-0.00944463
-0.00260356
-0.00933509
-0.00232776
-0.00923047
-0.00198256
-0.00913346
-0.0015704
-0.00904752
-0.00109697
-0.00897728
-0.000574533
-0.00892739
-0.00890527
3.41052e-11
-0.00167615
-0.0104444
-0.00181649
-0.0103986
-0.00193972
-0.0103471
-0.00204233
-0.010285
-0.00212285
-0.0102195
-0.00217943
-0.0101494
-0.00221036
-0.0100757
-0.0022142
-0.00999878
-0.00218963
-0.00991913
-0.00213585
-0.00983729
-0.0020523
-0.0097541
-0.0019387
-0.00967067
-0.00179481
-0.00958852
-0.00162038
-0.00950952
-0.00141494
-0.00943592
-0.00117844
-0.00936996
-0.000912265
-0.00931369
-0.000620951
-0.0092686
-0.000311982
-0.00923635
-0.00921725
3.38714e-11
-0.0011664
-0.0103244
-0.00127788
-0.0102871
-0.00137839
-0.0102466
-0.00146601
-0.0101974
-0.00153956
-0.0101459
-0.00159748
-0.0100915
-0.00163808
-0.0100351
-0.00165944
-0.00997742
-0.00165946
-0.00991911
-0.00163587
-0.00986088
-0.0015865
-0.00980347
-0.00150957
-0.00974761
-0.00140401
-0.00969408
-0.00126985
-0.00964368
-0.00110845
-0.00959732
-0.000922343
-0.00955606
-0.000714911
-0.00952113
-0.000489521
-0.00949399
-0.00025013
-0.00947575
-0.00946738
3.19113e-11
-0.000922953
-0.0102392
-0.000996371
-0.0102137
-0.00105847
-0.0101845
-0.00110669
-0.0101491
-0.00114072
-0.0101119
-0.00115982
-0.0100724
-0.00116368
-0.0100312
-0.00115225
-0.00998885
-0.00112567
-0.00994569
-0.00108434
-0.00990221
-0.00102877
-0.00985904
-0.000959496
-0.00981688
-0.000877004
-0.00977657
-0.000781668
-0.00973902
-0.00067387
-0.00970512
-0.000554308
-0.00967562
-0.000424323
-0.00965111
-0.000286396
-0.00963191
-0.00014371
-0.00961843
-0.00961109
2.9953e-11
-0.000637826
-0.0101712
-0.000701261
-0.0101503
-0.000757886
-0.0101279
-0.000806404
-0.0101006
-0.000845836
-0.0100725
-0.000875257
-0.0100429
-0.000893714
-0.0100128
-0.000900256
-0.00998231
-0.000893953
-0.00995199
-0.000873979
-0.00992219
-0.000839745
-0.00989327
-0.000791033
-0.00986559
-0.000728119
-0.00983948
-0.000651837
-0.0098153
-0.000563529
-0.00979342
-0.000464851
-0.0097743
-0.000357544
-0.00975842
-0.000243166
-0.00974629
-0.000123336
-0.00973826
-0.00973442
2.69773e-11
-0.000491061
-0.0101261
-0.0005288
-0.0101125
-0.000559815
-0.0100969
-0.000582551
-0.0100779
-0.000597126
-0.0100579
-0.000603324
-0.0100367
-0.000601263
-0.0100148
-0.000591188
-0.00999238
-0.00057347
-0.00996971
-0.000548564
-0.0099471
-0.000516936
-0.0099249
-0.000479006
-0.00990352
-0.000435108
-0.00988338
-0.000385503
-0.00986491
-0.000330464
-0.00984846
-0.00027043
-0.00983433
-0.000206148
-0.0098227
-0.000138774
-0.00981367
-6.96523e-05
-0.00980738
-0.00980408
2.48606e-11
-0.000345674
-0.0100886
-0.000380903
-0.0100773
-0.000412343
-0.0100654
-0.000439224
-0.010051
-0.00046086
-0.0100363
-0.000476684
-0.0100209
-0.000486136
-0.0100054
-0.0004887
-0.00998982
-0.000483921
-0.00997449
-0.000471467
-0.00995955
-0.000451184
-0.00994518
-0.000423166
-0.00993154
-0.000387783
-0.00991877
-0.000345673
-0.00990702
-0.000297673
-0.00989646
-0.0002447
-0.00988731
-0.000187631
-0.00987977
-0.000127248
-0.00987405
-6.43577e-05
-0.00987027
-0.00986843
2.13936e-11
-0.00025394
-0.0100651
-0.000273142
-0.0100581
-0.000288524
-0.0100501
-0.000299228
-0.0100403
-0.000305446
-0.01003
-0.000307176
-0.0100192
-0.000304605
-0.0100079
-0.000297986
-0.00999644
-0.000287626
-0.00998485
-0.000273846
-0.00997333
-0.000256946
-0.00996208
-0.000237167
-0.00995132
-0.000214678
-0.00994125
-0.000189602
-0.00993209
-0.000162068
-0.009924
-0.000132295
-0.00991708
-0.000100657
-0.0099114
-6.76899e-05
-0.00990702
-3.39782e-05
-0.00990398
-0.00990241
1.93426e-11
-0.000186977
-0.0100446
-0.00020643
-0.0100386
-0.000223897
-0.0100326
-0.000238929
-0.0100253
-0.00025109
-0.0100179
-0.000260015
-0.0100103
-0.00026536
-0.0100026
-0.000266814
-0.00999499
-0.000264124
-0.00998754
-0.000257124
-0.00998033
-0.000245771
-0.00997343
-0.000230171
-0.00996692
-0.000210589
-0.00996084
-0.000187424
-0.00995526
-0.00016116
-0.00995026
-0.0001323
-0.00994594
-0.000101312
-0.00994239
-6.86175e-05
-0.00993971
-3.46603e-05
-0.00993794
-0.00993707
1.61033e-11
-0.000126559
-0.0100324
-0.000136241
-0.0100289
-0.000143784
-0.010025
-0.000148748
-0.0100203
-0.000151298
-0.0100153
-0.000151506
-0.01001
-0.000149537
-0.0100046
-0.000145588
-0.00999894
-0.000139873
-0.00999325
-0.000132601
-0.0099876
-0.000123947
-0.00998209
-0.000114037
-0.00997683
-0.000102947
-0.00997193
-9.07188e-05
-0.00996749
-7.73986e-05
-0.00996358
-6.30816e-05
-0.00996026
-4.79407e-05
-0.00995753
-3.22186e-05
-0.00995543
-1.61716e-05
-0.00995399
-0.00995324
1.40491e-11
-0.000100862
-0.0100211
-0.000111646
-0.0100182
-0.000121434
-0.0100153
-0.000129959
-0.0100118
-0.000136959
-0.0100083
-0.000142189
-0.0100048
-0.000145433
-0.0100013
-0.000146492
-0.00999788
-0.00014521
-0.00999453
-0.000141487
-0.00999132
-0.000135305
-0.00998827
-0.000126737
-0.0099854
-0.000115946
-0.00998272
-0.00010317
-0.00998026
-8.86866e-05
-0.00997806
-7.27781e-05
-0.00997616
-5.57042e-05
-0.00997461
-3.77046e-05
-0.00997343
-1.90339e-05
-0.00997266
-0.00997228
1.15343e-11
-5.86823e-05
-0.0100149
-6.35041e-05
-0.0100133
-6.71226e-05
-0.0100116
-6.93432e-05
-0.0100096
-7.02812e-05
-0.0100074
-7.00322e-05
-0.0100051
-6.87204e-05
-0.0100026
-6.649e-05
-0.0100001
-6.34866e-05
-0.00999754
-5.98413e-05
-0.00999497
-5.56564e-05
-0.00999246
-5.09959e-05
-0.00999006
-4.58874e-05
-0.00998783
-4.03356e-05
-0.00998581
-3.43459e-05
-0.00998405
-2.79489e-05
-0.00998256
-2.12148e-05
-0.00998134
-1.42457e-05
-0.0099804
-7.14757e-06
-0.00997976
-0.00997943
9.20984e-12
-5.34114e-05
-0.0100087
-5.9414e-05
-0.0100073
-6.49436e-05
-0.0100061
-6.98304e-05
-0.0100047
-7.39353e-05
-0.0100033
-7.7085e-05
-0.0100019
-7.91488e-05
-0.0100006
-7.9993e-05
-0.00999926
-7.95158e-05
-0.00999802
-7.76526e-05
-0.00999683
-7.43898e-05
-0.00999572
-6.97699e-05
-0.00999468
-6.38896e-05
-0.00999371
-5.6887e-05
-0.00999282
-4.89218e-05
-0.00999202
-4.01544e-05
-0.00999133
-3.07335e-05
-0.00999076
-2.07984e-05
-0.00999034
-1.04966e-05
-0.00999006
-0.00998992
6.83941e-12
-2.23751e-05
-0.0100057
-2.46592e-05
-0.0100051
-2.62512e-05
-0.0100045
-2.71156e-05
-0.0100038
-2.73132e-05
-0.0100031
-2.69548e-05
-0.0100023
-2.61216e-05
-0.0100014
-2.49239e-05
-0.0100005
-2.34589e-05
-0.00999948
-2.18111e-05
-0.00999848
-2.00403e-05
-0.00999749
-1.8178e-05
-0.00999654
-1.62291e-05
-0.00999566
-1.41816e-05
-0.00999486
-1.20215e-05
-0.00999418
-9.74685e-06
-0.0099936
-7.37546e-06
-0.00999313
-4.94003e-06
-0.00999277
-2.47434e-06
-0.00999252
-0.0099924
4.71621e-12
-2.61863e-05
-0.0100023
-2.93853e-05
-0.0100019
-3.24089e-05
-0.0100015
-3.51207e-05
-0.0100011
-3.74849e-05
-0.0100007
-3.93586e-05
-0.0100004
-4.06804e-05
-0.0100001
-4.13507e-05
-0.00999979
-4.13075e-05
-0.00999952
-4.05049e-05
-0.00999928
-3.89312e-05
-0.00999906
-3.66076e-05
-0.00999886
-3.35883e-05
-0.00999867
-2.99505e-05
-0.0099985
-2.57838e-05
-0.00999835
-2.11775e-05
-0.00999821
-1.62149e-05
-0.0099981
-1.09746e-05
-0.00999801
-5.53864e-06
-0.00999796
-0.00999794
2.43339e-12
-2.28506e-06
-0.0100013
-2.98594e-06
-0.0100012
-3.29868e-06
-0.0100012
-3.32426e-06
-0.0100011
-3.03403e-06
-0.010001
-2.58466e-06
-0.0100008
-1.99504e-06
-0.0100007
-1.37273e-06
-0.0100004
-7.71388e-07
-0.0100001
-2.52117e-07
-0.0099998
1.53599e-07
-0.00999947
4.31584e-07
-0.00999914
5.90953e-07
-0.00999883
6.52446e-07
-0.00999856
6.41912e-07
-0.00999833
5.80123e-07
-0.00999815
4.79183e-07
-0.009998
3.44318e-07
-0.00999788
1.80825e-07
-0.0099978
-0.00999775
1.10943e-12
-9.80515e-06
-1.09618e-05
-1.21431e-05
-1.32181e-05
-1.42341e-05
-1.50818e-05
-1.57459e-05
-1.61574e-05
-1.6282e-05
-1.60846e-05
-1.55535e-05
-1.46931e-05
-1.35271e-05
-1.20908e-05
-1.04257e-05
-8.57261e-06
-6.56869e-06
-4.44798e-06
-2.24541e-06
1.38107e-13
0.00513699
-0.00677074
0.00515749
-0.00675833
0.00517661
-0.00673625
0.00519142
-0.00670401
0.0051989
-0.00666005
0.00519534
-0.00660196
0.00517583
-0.00652561
0.00513385
-0.00642469
0.00506124
-0.00629107
0.0049486
-0.00611581
0.00478597
-0.00589064
0.00456368
-0.00560932
0.004273
-0.00526844
0.00390656
-0.00486775
0.00345843
-0.00440996
0.00292428
-0.0039015
0.00230229
-0.00335793
0.00159589
-0.00281826
0.000818797
-0.00236048
-0.00209086
2.92597e-09
0.00513171
-0.00680673
0.00516678
-0.00679339
0.00520016
-0.00676964
0.00522971
-0.00673356
0.00525245
-0.0066828
0.00526411
-0.00661362
0.00525824
-0.00651973
0.00522585
-0.00639231
0.00515593
-0.00622115
0.00503658
-0.00599646
0.0048565
-0.00571056
0.00460636
-0.00535918
0.00427972
-0.0049418
0.00387336
-0.00446139
0.00338719
-0.0039238
0.00282423
-0.00333853
0.00219096
-0.00272467
0.00149815
-0.00212545
0.000761137
-0.00162347
-0.00132973
3.98072e-09
0.00511104
-0.00685122
0.0051502
-0.00683255
0.00518252
-0.00680196
0.00520527
-0.00675631
0.00521479
-0.00669232
0.00520566
-0.00660449
0.00517005
-0.00648413
0.00509818
-0.00632043
0.00497951
-0.00610248
0.00480447
-0.00582142
0.00456591
-0.005472
0.00426004
-0.00505331
0.00388672
-0.00456847
0.00344924
-0.0040239
0.00295395
-0.00342851
0.00241007
-0.00279465
0.00182959
-0.00214419
0.00122659
-0.00152245
0.000614115
-0.001011
-0.000715616
3.67142e-09
0.00508682
-0.0069117
0.00514555
-0.00689128
0.00520206
-0.00685847
0.0052542
-0.00680844
0.00529788
-0.006736
0.00532623
-0.00663284
0.0053293
-0.00648719
0.0052951
-0.00628623
0.00521138
-0.00601876