/*--------------------------------*- C++ -*----------------------------------*\
  =========                 |
  \\      /  F ield         | OpenFOAM: The Open Source CFD Toolbox
   \\    /   O peration     | Website:  https://openfoam.org
    \\  /    A nd           | Version:  7
     \\/     M anipulation  |
\*---------------------------------------------------------------------------*/
FoamFile
{
    version     2.0;
    format      ascii;
    class       volVectorField;
    location    "92";
    object      U;
}
// * * * * * * * * * * * * * * * * * * * * * * * * * * * * * * * * * * * * * //

dimensions      [0 1 -1 0 0 0 0];

internalField   nonuniform List<vector> 
4000
(
(1.25701 0.22211 4.55208e-18)
(1.25267 0.240248 1.62688e-18)
(1.24534 0.247959 -1.92598e-20)
(1.23965 0.262054 -1.85128e-18)
(1.23316 0.27349 7.68513e-19)
(1.22776 0.287589 1.88474e-18)
(1.22192 0.301451 7.54038e-18)
(1.21663 0.317206 5.79091e-18)
(1.2111 0.334343 8.55841e-18)
(1.20613 0.352765 1.32847e-17)
(1.20047 0.374909 7.6439e-18)
(1.19611 0.397725 6.06313e-18)
(1.18973 0.42916 -2.11524e-18)
(1.18843 0.459865 5.43803e-18)
(1.18194 0.505414 9.30354e-18)
(1.18766 0.536457 1.5213e-17)
(1.14822 0.551111 5.64457e-18)
(1.06561 0.472772 3.35413e-18)
(0.717402 0.246716 9.17774e-19)
(0.397533 0.00318107 2.87153e-18)
(1.26428 0.227122 3.64191e-18)
(1.25974 0.245053 1.0831e-18)
(1.25273 0.253093 -1.18719e-19)
(1.24731 0.267318 5.96127e-19)
(1.24119 0.279064 1.02867e-18)
(1.23611 0.293512 2.61482e-18)
(1.23069 0.307896 6.45883e-18)
(1.22591 0.3243 5.26554e-18)
(1.22119 0.342212 8.08864e-18)
(1.2172 0.361979 9.88733e-18)
(1.21325 0.38548 6.11246e-18)
(1.21114 0.410957 2.75543e-18)
(1.20964 0.444158 1.47576e-18)
(1.21269 0.477287 8.53077e-18)
(1.20443 0.513385 7.45924e-18)
(1.16845 0.516645 1.07108e-17)
(1.03314 0.476091 5.11945e-18)
(0.755734 0.340807 -5.7417e-18)
(0.335887 0.226976 -3.9345e-17)
(-0.0932918 0.0981557 -2.99678e-18)
(1.27102 0.231887 2.73545e-18)
(1.26623 0.249689 1.00968e-18)
(1.25951 0.257936 4.39111e-19)
(1.25426 0.272291 6.69354e-19)
(1.24859 0.28435 1.15802e-18)
(1.244 0.299194 2.78358e-18)
(1.23943 0.314131 5.7969e-18)
(1.23576 0.331159 5.30118e-18)
(1.23242 0.349701 8.26652e-18)
(1.23003 0.370379 8.48887e-18)
(1.22831 0.394546 4.94205e-18)
(1.22912 0.421037 4.04986e-18)
(1.22998 0.452034 1.79303e-18)
(1.22537 0.475574 2.87869e-18)
(1.18445 0.481229 -4.07252e-18)
(1.06893 0.431718 5.58066e-18)
(0.819265 0.322612 -1.68632e-17)
(0.460716 0.158979 -4.15725e-17)
(0.0619062 0.0133993 -2.21787e-17)
(-0.00566837 -0.0273731 -1.33599e-17)
(1.27744 0.23642 2.57855e-18)
(1.27253 0.254127 4.06121e-19)
(1.26613 0.262484 -7.3882e-19)
(1.2611 0.276918 5.06237e-19)
(1.25585 0.289139 1.37841e-18)
(1.25167 0.304135 3.51103e-18)
(1.24761 0.319232 5.0087e-18)
(1.24441 0.336494 4.70296e-18)
(1.2417 0.355427 5.6588e-18)
(1.24068 0.376867 4.09025e-18)
(1.24155 0.401445 1.03693e-18)
(1.24416 0.426925 -2.30805e-18)
(1.23976 0.450199 -9.3795e-19)
(1.209 0.454693 5.02965e-18)
(1.10854 0.425024 -2.77792e-18)
(0.899013 0.336204 -6.94294e-20)
(0.565543 0.212535 -2.29883e-17)
(0.191457 0.0795279 -2.60576e-17)
(-0.0384783 0.0816038 -5.44508e-17)
(-0.0934399 0.06406 -1.30181e-17)
(1.28363 0.240696 8.63163e-19)
(1.27875 0.258296 7.66473e-19)
(1.2727 0.266694 2.29892e-18)
(1.26798 0.281196 1.21234e-18)
(1.26326 0.293587 1.76876e-18)
(1.25973 0.308873 2.04917e-18)
(1.25668 0.324453 4.39639e-18)
(1.25501 0.342372 4.33624e-18)
(1.25456 0.361765 6.93231e-18)
(1.25602 0.383011 6.66237e-18)
(1.25796 0.405511 2.66548e-18)
(1.25563 0.425241 8.65281e-18)
(1.23177 0.434304 1.18093e-17)
(1.15534 0.413796 -5.77019e-18)
(0.980562 0.350736 -7.68429e-18)
(0.689675 0.237583 -6.83439e-18)
(0.327366 0.118627 -1.76044e-17)
(0.0457818 0.0550185 -9.16564e-18)
(-0.097927 0.0550682 -1.25932e-17)
(-0.0314735 0.0229943 -3.64057e-17)
(1.28962 0.244726 3.62475e-18)
(1.28482 0.262208 4.49807e-19)
(1.27913 0.270609 -9.06349e-19)
(1.27476 0.285132 -5.69486e-19)
(1.27053 0.297541 5.46889e-19)
(1.2675 0.312788 5.38434e-18)
(1.26488 0.328128 4.1448e-18)
(1.2635 0.345491 5.10147e-18)
(1.26319 0.364012 2.4236e-18)
(1.26422 0.384104 2.94775e-18)
(1.26322 0.403668 1.90501e-18)
(1.24928 0.415364 -8.75845e-18)
(1.19487 0.406708 -7.79246e-18)
(1.06133 0.361047 3.49753e-18)
(0.813899 0.274859 7.83403e-18)
(0.475854 0.160679 2.90999e-17)
(0.15342 0.0890835 1.7487e-17)
(-0.0508772 0.0708188 -4.51368e-18)
(-0.0980642 0.0908629 4.77285e-18)
(-0.0529652 0.0495242 -4.50289e-18)
(1.29537 0.248493 3.61149e-18)
(1.29071 0.2658 3.17804e-19)
(1.28539 0.274128 -9.84669e-20)
(1.28142 0.288629 -1.47013e-18)
(1.27774 0.301065 7.35117e-19)
(1.27541 0.316492 2.1476e-18)
(1.27396 0.3322 3.02404e-18)
(1.2745 0.350109 2.93459e-19)
(1.27674 0.368885 8.61221e-18)
(1.27886 0.38733 7.14712e-18)
(1.27179 0.400064 -6.63456e-18)
(1.23547 0.397308 2.22887e-18)
(1.13544 0.367531 1.15925e-17)
(0.937399 0.301197 -3.90722e-18)
(0.633027 0.20544 -1.36476e-17)
(0.295322 0.112508 2.05747e-17)
(0.0393297 0.0824122 -2.49255e-18)
(-0.0816454 0.0893305 -2.79322e-17)
(-0.105866 0.0926247 2.81489e-17)
(-0.0349053 0.0380617 3.29332e-18)
(1.30088 0.252038 9.93364e-19)
(1.29639 0.269174 -9.20398e-20)
(1.29144 0.277451 -2.11701e-18)
(1.28789 0.291928 1.82946e-18)
(1.2847 0.304276 1.35336e-18)
(1.28291 0.319455 1.08029e-18)
(1.28192 0.334403 1.94307e-18)
(1.28222 0.350625 4.84153e-18)
(1.28197 0.366139 6.98935e-18)
(1.27646 0.379026 -2.19497e-19)
(1.25219 0.383 -6.02668e-18)
(1.18437 0.367929 -6.65247e-18)
(1.03732 0.322664 -4.16007e-18)
(0.78608 0.243751 -6.34308e-18)
(0.456935 0.15247 -2.93843e-18)
(0.158378 0.0936002 1.85072e-17)
(-0.026197 0.0952094 1.64689e-18)
(-0.108955 0.103081 -8.55479e-18)
(-0.101631 0.102005 1.89271e-18)
(-0.0439585 0.0442285 -1.39927e-18)
(1.30613 0.255309 4.80882e-18)
(1.30189 0.272173 -1.55321e-19)
(1.29732 0.280244 4.15225e-18)
(1.29423 0.294567 -4.36982e-18)
(1.29155 0.306777 -3.6543e-19)
(1.29044 0.321872 3.2472e-18)
(1.29037 0.336902 4.66241e-18)
(1.2918 0.353439 -2.90877e-18)
(1.29212 0.36897 2.92868e-18)
(1.28314 0.379452 7.01136e-18)
(1.24431 0.374518 -4.1217e-18)
(1.14291 0.341779 1.58821e-17)
(0.944531 0.276146 2.38179e-17)
(0.647128 0.189376 1.53154e-17)
(0.318136 0.1164 5.76034e-18)
(0.0692244 0.0888116 4.35616e-17)
(-0.0690366 0.0968889 2.43293e-17)
(-0.116964 0.100951 -2.6385e-17)
(-0.103782 0.0954704 -7.7093e-18)
(-0.0411069 0.0396884 -3.83777e-19)
(1.31115 0.258386 5.90906e-18)
(1.30717 0.275046 1.19464e-18)
(1.30288 0.283097 -1.59598e-18)
(1.30028 0.297423 -8.226e-19)
(1.29803 0.309499 5.21886e-18)
(1.2975 0.324198 2.01204e-19)
(1.29756 0.338032 5.63553e-18)
(1.2973 0.351572 7.22657e-19)
(1.29031 0.360384 1.32992e-17)
(1.26215 0.358298 4.33806e-18)
(1.18653 0.335427 2.77733e-18)
(1.03328 0.286407 1.38605e-17)
(0.785138 0.216456 -4.48788e-18)
(0.472077 0.144028 1.20878e-17)
(0.181134 0.0975775 2.34633e-18)
(-0.00786591 0.0849017 8.76617e-18)
(-0.0993257 0.0889944 -1.5489e-18)
(-0.121788 0.0879926 -5.61534e-18)
(-0.0954995 0.0836555 -1.33772e-17)
(-0.0375578 0.0366097 -2.99112e-18)
(1.18039 0.16929 1.9348e-17)
(1.17034 0.193395 7.58775e-18)
(1.15969 0.201989 -2.34997e-18)
(1.14592 0.220488 -1.60381e-17)
(1.13323 0.233868 -8.104e-18)
(1.11713 0.25081 3.8556e-17)
(1.10103 0.266789 1.21648e-17)
(1.08138 0.28439 3.94008e-17)
(1.05961 0.302281 1.70536e-18)
(1.03328 0.320968 7.36624e-18)
(1.00259 0.340053 2.29829e-17)
(0.965045 0.358974 -2.5436e-17)
(0.920773 0.377703 -5.4941e-17)
(0.866135 0.394668 -5.77258e-18)
(0.805482 0.409509 5.00852e-17)
(0.728939 0.418206 1.22421e-16)
(0.653261 0.426841 1.6153e-16)
(0.547624 0.412985 9.86699e-17)
(0.431205 0.398031 1.20132e-17)
(0.192137 0.19603 2.1467e-17)
(1.18809 0.174792 1.68739e-17)
(1.17862 0.198666 6.73235e-18)
(1.16828 0.207321 -2.131e-19)
(1.15535 0.22576 -1.51779e-17)
(1.14337 0.239245 -7.47906e-18)
(1.12842 0.256441 1.57666e-17)
(1.11353 0.272678 1.21318e-17)
(1.09552 0.290927 1.28978e-17)
(1.07577 0.309668 2.05767e-17)
(1.05196 0.32965 3.00162e-17)
(1.0244 0.350634 -4.26415e-18)
(0.990475 0.371923 -1.69067e-17)
(0.950676 0.394044 -3.46995e-18)
(0.901394 0.414338 -1.47107e-18)
(0.846867 0.43572 -4.06606e-18)
(0.77832 0.448262 9.24929e-17)
(0.708421 0.469448 1.12395e-16)
(0.618475 0.45778 1.48996e-17)
(0.495329 0.450913 8.14289e-17)
(0.245577 0.220054 2.04328e-17)
(1.1957 0.180287 1.09019e-17)
(1.18695 0.203809 4.24642e-18)
(1.17687 0.212459 -6.27782e-18)
(1.16494 0.230724 -7.01394e-18)
(1.15362 0.244238 -3.19433e-18)
(1.13993 0.26154 1.1042e-17)
(1.12622 0.277915 5.09444e-18)
(1.10983 0.296595 1.55866e-17)
(1.0919 0.315995 1.97958e-17)
(1.07028 0.337016 1.93909e-17)
(1.04523 0.359703 9.94087e-19)
(1.01407 0.383211 -2.18648e-17)
(0.977255 0.408913 -2.05987e-17)
(0.930348 0.433098 -1.2115e-17)
(0.87775 0.460942 -2.72946e-18)
(0.809996 0.479139 5.77996e-17)
(0.738808 0.508447 6.17223e-17)
(0.64533 0.500908 3.39733e-17)
(0.504327 0.48516 5.61785e-17)
(0.229306 0.224327 7.35535e-18)
(1.20326 0.18573 1.63349e-17)
(1.19521 0.208792 3.45994e-18)
(1.18541 0.217389 8.08547e-18)
(1.17441 0.235361 -1.64335e-17)
(1.16373 0.248825 -6.74215e-18)
(1.1512 0.266079 1.3322e-17)
(1.13863 0.282461 1.88451e-17)
(1.1238 0.301339 7.49105e-19)
(1.10769 0.321157 1.03398e-17)
(1.08837 0.342836 3.24219e-17)
(1.06612 0.366796 3.68054e-18)
(1.03845 0.391797 5.32102e-18)
(1.00577 0.420538 2.03214e-17)
(0.964063 0.447281 2.21074e-17)
(0.916264 0.481853 2.07289e-18)
(0.85689 0.504053 8.40355e-17)
(0.787203 0.546956 8.5618e-17)
(0.706809 0.542431 -1.6053e-17)
(0.544827 0.520926 3.123e-17)
(0.246011 0.235298 9.60309e-18)
(1.21088 0.191146 1.36547e-17)
(1.20349 0.213667 5.47474e-18)
(1.19401 0.222193 -5.67659e-18)
(1.18388 0.23979 -1.32138e-17)
(1.17385 0.253148 4.84386e-18)
(1.16248 0.270236 -4.95081e-19)
(1.15109 0.286523 1.30103e-17)
(1.13789 0.30541 -2.43735e-18)
(1.12369 0.32542 2.18921e-17)
(1.10685 0.347417 2.63246e-17)
(1.08758 0.372285 5.12527e-18)
(1.06364 0.398285 5.52364e-18)
(1.03507 0.429509 -9.01698e-18)
(0.998499 0.45836 1.51671e-17)
(0.954881 0.497448 4.84093e-18)
(0.90115 0.523117 6.33627e-17)
(0.833254 0.566561 6.06302e-17)
(0.745068 0.565314 2.74311e-18)
(0.57553 0.528722 1.72511e-17)
(0.236439 0.230402 4.70084e-18)
(1.21857 0.196456 1.02638e-17)
(1.21182 0.218315 -2.84414e-18)
(1.20271 0.226695 2.49604e-18)
(1.19345 0.243777 -1.05849e-17)
(1.18411 0.25689 3.35823e-18)
(1.17393 0.273604 5.5192e-19)
(1.16373 0.28958 1.34835e-17)
(1.15221 0.308142 1.2529e-17)
(1.13997 0.327983 1.77002e-17)
(1.12581 0.349782 2.08604e-17)
(1.10959 0.374978 4.88743e-18)
(1.08995 0.401184 3.91509e-18)
(1.06541 0.434248 -5.82736e-19)
(1.0357 0.464421 1.1093e-17)
(0.995512 0.509289 5.1261e-18)
(0.953556 0.540891 4.82789e-17)
(0.885046 0.604467 4.29759e-17)
(0.824404 0.614546 8.38845e-18)
(0.622288 0.588816 1.35733e-17)
(0.279315 0.255457 1.74993e-18)
(1.22629 0.201771 8.58481e-18)
(1.22014 0.222938 -1.26406e-18)
(1.21139 0.231201 1.79374e-18)
(1.20295 0.24776 -7.10981e-18)
(1.19426 0.260635 2.30328e-18)
(1.18521 0.276953 8.36082e-19)
(1.17613 0.292621 2.02475e-18)
(1.16621 0.310817 1.02752e-17)
(1.15585 0.330373 1.46434e-17)
(1.1442 0.351865 1.81546e-17)
(1.1309 0.377139 6.83441e-18)
(1.1151 0.403512 4.27417e-18)
(1.09502 0.437586 -1.19392e-17)
(1.071 0.468966 7.30346e-18)
(1.03717 0.514378 6.46835e-18)
(1.00024 0.545583 3.67765e-17)
(0.941234 0.591036 3.15503e-17)
(0.849845 0.593372 1.23464e-17)
(0.660134 0.53269 7.77857e-18)
(0.237797 0.225046 5.90267e-18)
(1.23399 0.206837 5.05899e-18)
(1.22844 0.227139 -2.53296e-18)
(1.2201 0.235098 3.67334e-19)
(1.21249 0.250872 -7.80427e-18)
(1.20449 0.26323 1.24071e-18)
(1.19658 0.278783 5.11394e-19)
(1.18862 0.293732 -9.8374e-19)
(1.18036 0.310972 8.90536e-18)
(1.1718 0.329623 1.17839e-17)
(1.16259 0.349931 1.23555e-17)
(1.15207 0.374322 2.67309e-18)
(1.1406 0.399191 5.82267e-19)
(1.12501 0.433161 -1.03668e-17)
(1.10846 0.463972 1.24336e-18)
(1.0797 0.514564 1.15773e-18)
(1.05482 0.554601 2.84823e-17)
(1.00032 0.640457 2.5006e-17)
(0.965685 0.680414 1.27418e-17)
(0.761753 0.699213 7.71148e-18)
(0.380715 0.314355 -4.53173e-18)
(1.24168 0.212078 7.19576e-18)
(1.2366 0.23168 2.59887e-18)
(1.22858 0.239588 1.25731e-18)
(1.22165 0.254855 2.55631e-19)
(1.21419 0.266983 1.04856e-18)
(1.20723 0.282128 1.03357e-18)
(1.20015 0.296771 5.37967e-18)
(1.19315 0.313615 6.11965e-18)
(1.18583 0.331959 9.45975e-18)
(1.17832 0.351869 1.72528e-17)
(1.16991 0.37592 1.11466e-17)
(1.16133 0.400495 8.81936e-18)
(1.14959 0.434237 -6.34068e-18)
(1.13867 0.465239 8.79908e-18)
(1.11809 0.512532 9.61365e-18)
(1.10026 0.543323 2.07741e-17)
(1.05286 0.578236 1.56224e-17)
(0.970845 0.56356 1.33901e-17)
(0.743933 0.464222 9.83451e-18)
(0.252946 0.175404 -2.96384e-19)
(1.24924 0.21669 5.80263e-18)
(1.24482 0.235146 2.10286e-18)
(1.23725 0.242382 -1.13571e-18)
(1.23115 0.256344 -1.73589e-18)
(1.22438 0.267443 5.84506e-19)
(1.21852 0.28116 5.29967e-19)
(1.21244 0.294417 6.01964e-18)
(1.20681 0.309432 9.23328e-18)
(1.20092 0.325911 7.60108e-18)
(1.19583 0.343141 1.65494e-17)
(1.18976 0.364496 1.11393e-17)
(1.18588 0.384842 8.88765e-18)
(1.17773 0.414904 -2.76735e-18)
(1.17445 0.440946 2.22321e-18)
(1.15512 0.490718 4.8272e-18)
(1.14712 0.53853 1.72636e-17)
(1.11042 0.641796 1.54812e-17)
(1.12277 0.729512 1.59396e-17)
(0.993063 0.819662 -1.38373e-18)
(0.668377 0.394542 7.6957e-19)
(1.24924 -0.21669 6.32981e-18)
(1.24482 -0.235146 6.60473e-18)
(1.23725 -0.242382 2.70029e-18)
(1.23115 -0.256344 3.32111e-18)
(1.22438 -0.267443 -2.18897e-18)
(1.21852 -0.28116 -4.78481e-18)
(1.21244 -0.294417 7.33857e-19)
(1.20681 -0.309432 -2.04581e-18)
(1.20092 -0.325911 -7.09405e-18)
(1.19583 -0.343141 -1.18412e-17)
(1.18976 -0.364496 -1.10246e-18)
(1.18588 -0.384842 3.50056e-18)
(1.17773 -0.414904 -9.22282e-18)
(1.17445 -0.440946 -6.1646e-18)
(1.15512 -0.490718 -5.46611e-18)
(1.14712 -0.53853 -2.46649e-17)
(1.11042 -0.641796 -1.17993e-17)
(1.12277 -0.729512 -1.06166e-17)
(0.993063 -0.819662 3.09385e-19)
(0.668377 -0.394542 -6.14109e-19)
(1.24168 -0.212078 5.68272e-18)
(1.2366 -0.23168 7.12646e-18)
(1.22858 -0.239588 3.46116e-18)
(1.22165 -0.254855 4.88754e-18)
(1.21419 -0.266983 -3.27859e-18)
(1.20723 -0.282128 -4.91209e-18)
(1.20015 -0.296771 6.58296e-19)
(1.19315 -0.313615 -1.57744e-18)
(1.18583 -0.331959 -9.81474e-18)
(1.17832 -0.351869 -1.39515e-17)
(1.16991 -0.37592 3.14575e-18)
(1.16133 -0.400495 2.73393e-18)
(1.14959 -0.434237 -1.71663e-17)
(1.13867 -0.465239 -8.8346e-18)
(1.11809 -0.512532 -7.41202e-18)
(1.10026 -0.543323 -2.73065e-17)
(1.05286 -0.578236 -6.90549e-18)
(0.970845 -0.56356 -1.34095e-17)
(0.743933 -0.464222 -1.03794e-17)
(0.252946 -0.175404 6.90804e-18)
(1.23399 -0.206837 7.14121e-18)
(1.22844 -0.227139 9.1271e-18)
(1.2201 -0.235098 3.34029e-18)
(1.21249 -0.250872 6.41371e-18)
(1.20449 -0.26323 -1.19967e-17)
(1.19658 -0.278783 -6.30052e-18)
(1.18862 -0.293732 1.6192e-18)
(1.18036 -0.310972 -1.81077e-18)
(1.1718 -0.329623 -1.2163e-17)
(1.16259 -0.349931 -1.79964e-17)
(1.15207 -0.374322 4.99066e-18)
(1.1406 -0.399191 4.50229e-18)
(1.12501 -0.433161 -2.22425e-17)
(1.10846 -0.463972 -7.39549e-18)
(1.0797 -0.514564 -8.51504e-18)
(1.05482 -0.554601 -2.80862e-17)
(1.00032 -0.640457 6.60283e-19)
(0.965685 -0.680414 -1.85158e-17)
(0.761753 -0.699213 -1.01265e-17)
(0.380715 -0.314355 5.47635e-18)
(1.22629 -0.201771 2.66092e-18)
(1.22014 -0.222938 1.12146e-17)
(1.21139 -0.231201 3.3443e-18)
(1.20295 -0.24776 1.04497e-18)
(1.19426 -0.260635 -1.30687e-17)
(1.18521 -0.276953 -7.13644e-18)
(1.17613 -0.292621 -8.02682e-18)
(1.16621 -0.310817 -1.50414e-18)
(1.15585 -0.330373 -3.42836e-18)
(1.1442 -0.351865 -2.35538e-17)
(1.1309 -0.377139 9.85688e-18)
(1.1151 -0.403512 4.03988e-18)
(1.09502 -0.437586 -1.67213e-17)
(1.071 -0.468966 8.5417e-18)
(1.03717 -0.514378 -9.57564e-18)
(1.00024 -0.545583 -4.08119e-17)
(0.941234 -0.591036 1.46015e-18)
(0.849845 -0.593372 -2.22111e-17)
(0.660134 -0.53269 -1.38795e-17)
(0.237797 -0.225046 -1.86373e-18)
(1.21857 -0.196456 4.36598e-18)
(1.21182 -0.218315 1.43006e-17)
(1.20271 -0.226695 4.0003e-18)
(1.19345 -0.243777 -4.60439e-18)
(1.18411 -0.25689 -1.7748e-17)
(1.17393 -0.273604 -7.73524e-18)
(1.16373 -0.28958 -5.94472e-18)
(1.15221 -0.308142 -1.37313e-17)
(1.13997 -0.327983 -8.62157e-18)
(1.12581 -0.349782 -1.60579e-17)
(1.10959 -0.374978 5.97508e-19)
(1.08995 -0.401184 5.35685e-18)
(1.06541 -0.434248 -2.93881e-17)
(1.0357 -0.464421 7.8283e-18)
(0.995512 -0.509289 -1.5718e-17)
(0.953556 -0.540891 -5.19422e-17)
(0.885046 -0.604467 9.26706e-18)
(0.824404 -0.614546 -3.0278e-17)
(0.622288 -0.588816 -2.03291e-17)
(0.279315 -0.255457 -1.93387e-18)
(1.21088 -0.191146 3.26111e-18)
(1.20349 -0.213667 1.75372e-17)
(1.19401 -0.222193 4.98377e-18)
(1.18388 -0.23979 -2.52597e-18)
(1.17385 -0.253148 -9.64275e-18)
(1.16248 -0.270236 -2.19871e-17)
(1.15109 -0.286523 -7.92219e-18)
(1.13789 -0.30541 -1.23141e-17)
(1.12369 -0.32542 -7.0904e-18)
(1.10685 -0.347416 -8.38783e-18)
(1.08758 -0.372285 -1.14387e-17)
(1.06364 -0.398285 2.93823e-17)
(1.03507 -0.429509 -3.96841e-17)
(0.998499 -0.45836 1.92845e-17)
(0.954881 -0.497448 -2.16213e-17)
(0.90115 -0.523117 -3.64768e-17)
(0.833254 -0.566561 2.38486e-17)
(0.745068 -0.565314 -4.18406e-17)
(0.57553 -0.528722 -3.14525e-17)
(0.236439 -0.230402 3.23265e-18)
(1.20326 -0.18573 2.90366e-18)
(1.19521 -0.208792 1.16793e-17)
(1.18541 -0.217389 5.65228e-18)
(1.17441 -0.235361 -4.09197e-18)
(1.16373 -0.248825 -2.79417e-18)
(1.1512 -0.266079 -7.88082e-18)
(1.13863 -0.282461 8.84365e-18)
(1.1238 -0.301339 -1.61377e-17)
(1.10769 -0.321157 -9.73129e-18)
(1.08837 -0.342836 5.17085e-18)
(1.06612 -0.366796 -1.01141e-17)
(1.03845 -0.391797 3.50569e-17)
(1.00577 -0.420538 -3.27681e-17)
(0.964063 -0.447281 -1.5328e-18)
(0.916264 -0.481853 4.43558e-18)
(0.85689 -0.504053 -1.14061e-17)
(0.787203 -0.546956 3.66788e-17)
(0.706809 -0.542431 8.73574e-18)
(0.544827 -0.520926 -4.5881e-17)
(0.246011 -0.235298 1.36453e-17)
(1.1957 -0.180287 2.86016e-18)
(1.18695 -0.203809 1.8611e-17)
(1.17687 -0.212459 7.18073e-18)
(1.16494 -0.230724 -5.17729e-18)
(1.15362 -0.244238 -6.72997e-18)
(1.13993 -0.26154 -1.80528e-17)
(1.12622 -0.277915 -1.22395e-17)
(1.10983 -0.296595 -1.28511e-18)
(1.0919 -0.315995 -1.10674e-17)
(1.07028 -0.337016 -2.18921e-17)
(1.04523 -0.359703 -1.6373e-17)
(1.01407 -0.383211 2.34371e-17)
(0.977255 -0.408913 -2.63956e-17)
(0.930348 -0.433098 1.31212e-17)
(0.87775 -0.460942 -5.10505e-17)
(0.809996 -0.479139 -2.59095e-17)
(0.738808 -0.508447 5.04715e-17)
(0.64533 -0.500907 1.9741e-18)
(0.504327 -0.48516 1.48902e-17)
(0.229306 -0.224327 5.05091e-17)
(1.18809 -0.174792 1.94854e-18)
(1.17862 -0.198666 2.23631e-17)
(1.16828 -0.207321 9.90096e-18)
(1.15535 -0.22576 -4.6902e-18)
(1.14337 -0.239245 -6.96649e-18)
(1.12842 -0.256441 -1.96477e-17)
(1.11353 -0.272678 -5.28345e-18)
(1.09552 -0.290927 -5.10871e-18)
(1.07577 -0.309668 -1.44411e-17)
(1.05196 -0.32965 -1.78998e-17)
(1.0244 -0.350634 -1.69785e-17)
(0.990475 -0.371923 4.0279e-17)
(0.950676 -0.394044 -4.41445e-17)
(0.901394 -0.414338 1.64899e-17)
(0.846867 -0.43572 -5.0018e-17)
(0.77832 -0.448262 -2.17275e-17)
(0.708421 -0.469448 7.43525e-17)
(0.618475 -0.45778 1.16343e-17)
(0.495329 -0.450913 1.32473e-17)
(0.245577 -0.220054 8.94664e-17)
(1.18039 -0.16929 1.203e-17)
(1.17034 -0.193395 4.12027e-17)
(1.15969 -0.201989 -2.5836e-18)
(1.14592 -0.220488 9.65245e-18)
(1.13323 -0.233868 -8.3757e-18)
(1.11713 -0.25081 -2.57654e-17)
(1.10103 -0.266789 -8.85867e-18)
(1.08138 -0.28439 -2.55319e-17)
(1.05961 -0.302281 -4.38103e-17)
(1.03328 -0.320968 1.93883e-18)
(1.00259 -0.340053 1.02548e-17)
(0.965045 -0.358974 5.39177e-17)
(0.920773 -0.377703 -2.48477e-17)
(0.866135 -0.394668 -1.67149e-17)
(0.805482 -0.409509 -8.27871e-17)
(0.728939 -0.418206 -2.25463e-17)
(0.653261 -0.426841 1.06371e-16)
(0.547624 -0.412985 1.22222e-17)
(0.431205 -0.398031 1.12463e-18)
(0.192137 -0.19603 1.07115e-17)
(1.31115 -0.258386 -1.55415e-19)
(1.30717 -0.275046 4.31876e-18)
(1.30288 -0.283097 5.17995e-19)
(1.30028 -0.297423 -2.13578e-18)
(1.29803 -0.309499 -3.86979e-18)
(1.2975 -0.324198 -3.21278e-19)
(1.29756 -0.338032 -2.89003e-18)
(1.2973 -0.351572 -4.05737e-18)
(1.29031 -0.360384 -1.04899e-18)
(1.26215 -0.358298 -8.81829e-18)
(1.18653 -0.335427 -3.24684e-18)
(1.03328 -0.286407 7.39911e-18)
(0.785138 -0.216456 -2.67702e-17)
(0.472077 -0.144028 2.79399e-17)
(0.181134 -0.0975775 -3.47768e-17)
(-0.0078659 -0.0849017 -4.47734e-17)
(-0.0993257 -0.0889944 -4.11294e-18)
(-0.121788 -0.0879927 -3.93452e-17)
(-0.0954995 -0.0836555 -1.15771e-17)
(-0.0375578 -0.0366097 -7.87708e-19)
(1.30613 -0.255309 -8.60669e-19)
(1.30189 -0.272173 -7.36825e-19)
(1.29732 -0.280244 1.33707e-18)
(1.29423 -0.294567 -1.82577e-18)
(1.29155 -0.306777 1.12063e-18)
(1.29044 -0.321872 -7.47249e-20)
(1.29037 -0.336902 4.73341e-18)
(1.2918 -0.353439 -4.652e-18)
(1.29212 -0.36897 4.87575e-19)
(1.28314 -0.379452 2.15467e-18)
(1.24431 -0.374517 -8.34352e-18)
(1.14291 -0.341779 -2.55601e-18)
(0.944531 -0.276146 -1.70315e-17)
(0.647128 -0.189376 6.60307e-18)
(0.318136 -0.1164 1.50832e-17)
(0.0692244 -0.0888116 -1.52077e-17)
(-0.0690366 -0.0968889 -2.70339e-19)
(-0.116964 -0.100951 -2.15729e-17)
(-0.103782 -0.0954704 -3.43431e-17)
(-0.0411069 -0.0396884 -2.08281e-18)
(1.30088 -0.252038 -6.75824e-19)
(1.29639 -0.269174 1.42303e-18)
(1.29144 -0.277451 1.79037e-18)
(1.28789 -0.291928 -2.65349e-18)
(1.2847 -0.304276 -1.34872e-18)
(1.28291 -0.319455 -1.30187e-18)
(1.28192 -0.334403 -2.60585e-18)
(1.28222 -0.350625 2.89573e-18)
(1.28197 -0.366139 -2.22328e-18)
(1.27646 -0.379026 -1.02204e-17)
(1.25219 -0.383 -7.00308e-18)
(1.18437 -0.367929 -1.19519e-17)
(1.03732 -0.322664 -8.87539e-18)
(0.78608 -0.243751 4.05863e-18)
(0.456935 -0.15247 -1.40794e-17)
(0.158378 -0.0936002 -2.69164e-18)
(-0.026197 -0.0952094 3.57141e-18)
(-0.108955 -0.103081 -1.20758e-17)
(-0.101631 -0.102005 -1.28289e-17)
(-0.0439585 -0.0442285 6.7166e-18)
(1.29537 -0.248493 -1.12989e-18)
(1.29071 -0.2658 4.48261e-19)
(1.28539 -0.274128 2.84432e-18)
(1.28142 -0.288629 -2.42409e-18)
(1.27774 -0.301065 -8.42021e-19)
(1.27541 -0.316492 -5.37748e-19)
(1.27396 -0.3322 -6.09713e-19)
(1.2745 -0.350109 3.2183e-19)
(1.27674 -0.368885 2.77318e-18)
(1.27886 -0.38733 -6.03559e-18)
(1.27179 -0.400064 -7.82105e-18)
(1.23547 -0.397308 -1.01864e-17)
(1.13544 -0.367531 -2.10796e-17)
(0.937399 -0.301197 8.31615e-18)
(0.633027 -0.20544 -1.39556e-17)
(0.295322 -0.112508 2.19692e-18)
(0.0393297 -0.0824122 1.03016e-17)
(-0.0816454 -0.0893305 -7.60896e-18)
(-0.105866 -0.0926247 -1.2179e-18)
(-0.0349053 -0.0380617 2.68178e-17)
(1.28962 -0.244726 3.6281e-18)
(1.28482 -0.262208 4.75979e-18)
(1.27913 -0.270609 3.68642e-20)
(1.27476 -0.285132 4.70462e-19)
(1.27053 -0.297541 -1.76649e-18)
(1.2675 -0.312788 -1.07441e-18)
(1.26488 -0.328128 -2.33761e-18)
(1.2635 -0.345491 -4.0647e-18)
(1.26319 -0.364012 -2.58428e-18)
(1.26422 -0.384104 5.23553e-19)
(1.26322 -0.403668 -7.24598e-18)
(1.24928 -0.415364 -8.2692e-18)
(1.19487 -0.406708 -1.30478e-17)
(1.06133 -0.361047 -1.52009e-17)
(0.813899 -0.274859 -2.04437e-17)
(0.475854 -0.160679 5.70006e-18)
(0.15342 -0.0890835 2.06619e-17)
(-0.0508772 -0.0708188 -8.44426e-18)
(-0.0980642 -0.0908629 -6.89511e-18)
(-0.0529652 -0.0495242 5.14134e-18)
(1.28363 -0.240696 1.71221e-18)
(1.27875 -0.258296 1.31241e-18)
(1.2727 -0.266694 1.66606e-18)
(1.26798 -0.281196 -3.97251e-19)
(1.26326 -0.293587 -1.69264e-18)
(1.25973 -0.308873 -7.14547e-19)
(1.25668 -0.324453 -1.18937e-18)
(1.25501 -0.342372 -2.64828e-18)
(1.25456 -0.361765 -1.90674e-18)
(1.25602 -0.383011 -4.80977e-19)
(1.25796 -0.405511 -7.17622e-18)
(1.25563 -0.425241 -8.41238e-18)
(1.23177 -0.434304 -2.79902e-18)
(1.15534 -0.413796 -5.60742e-18)
(0.980562 -0.350736 -5.26896e-18)
(0.689675 -0.237583 -8.33372e-19)
(0.327366 -0.118627 -3.74445e-17)
(0.0457819 -0.0550185 -1.99521e-17)
(-0.097927 -0.0550682 -4.14505e-17)
(-0.0314735 -0.0229943 -3.61348e-18)
(1.27744 -0.23642 3.20455e-18)
(1.27253 -0.254127 3.38832e-18)
(1.26613 -0.262484 1.68862e-18)
(1.2611 -0.276918 4.97587e-19)
(1.25585 -0.289139 -2.31509e-18)
(1.25167 -0.304135 -1.05869e-18)
(1.24761 -0.319232 -1.4766e-18)
(1.24441 -0.336494 -2.16953e-18)
(1.2417 -0.355427 -3.46519e-18)
(1.24068 -0.376867 -1.38817e-18)
(1.24155 -0.401445 -8.1394e-19)
(1.24416 -0.426925 -4.08786e-18)
(1.23976 -0.450199 -9.8257e-18)
(1.209 -0.454692 -1.09873e-17)
(1.10854 -0.425024 -1.65094e-17)
(0.899013 -0.336204 -1.83149e-17)
(0.565543 -0.212535 -6.54914e-18)
(0.191457 -0.0795279 -2.5386e-17)
(-0.0384783 -0.0816038 -1.11107e-17)
(-0.0934399 -0.06406 7.18991e-20)
(1.27102 -0.231887 3.07839e-18)
(1.26623 -0.249689 2.1896e-18)
(1.25951 -0.257936 2.45048e-18)
(1.25426 -0.272291 1.02166e-18)
(1.24859 -0.28435 -2.65315e-18)
(1.244 -0.299194 -1.14257e-18)
(1.23943 -0.314131 -1.33546e-18)
(1.23576 -0.331159 -2.29562e-18)
(1.23242 -0.349701 -4.1188e-18)
(1.23003 -0.370379 -2.08923e-18)
(1.22831 -0.394546 3.33136e-19)
(1.22912 -0.421037 -3.16474e-18)
(1.22998 -0.452034 -5.6937e-18)
(1.22537 -0.475574 -7.43778e-18)
(1.18445 -0.481229 -1.26583e-17)
(1.06893 -0.431718 -1.84811e-17)
(0.819265 -0.322612 -1.39409e-17)
(0.460716 -0.158979 -3.87915e-17)
(0.0619062 -0.0133993 8.89453e-19)
(-0.00566837 0.0273731 1.04373e-17)
(1.26428 -0.227122 4.0377e-18)
(1.25974 -0.245053 3.1473e-18)
(1.25273 -0.253093 2.97874e-18)
(1.24731 -0.267318 2.12838e-18)
(1.24119 -0.279064 -1.91152e-18)
(1.23611 -0.293512 -1.50105e-18)
(1.23069 -0.307896 -1.33336e-18)
(1.22591 -0.3243 -1.96205e-18)
(1.22119 -0.342212 -6.46776e-18)
(1.2172 -0.361979 -3.92211e-18)
(1.21325 -0.38548 8.89625e-19)
(1.21114 -0.410957 -4.38633e-18)
(1.20964 -0.444158 -7.23463e-18)
(1.21269 -0.477287 -7.63084e-18)
(1.20443 -0.513385 -1.10401e-17)
(1.16845 -0.516645 -2.15257e-17)
(1.03314 -0.476091 -1.04203e-17)
(0.755734 -0.340807 3.57694e-18)
(0.335887 -0.226976 4.17154e-18)
(-0.0932918 -0.0981557 1.46626e-17)
(1.25701 -0.22211 4.6495e-18)
(1.25267 -0.240248 3.36201e-18)
(1.24534 -0.247959 3.64227e-18)
(1.23965 -0.262054 3.32932e-18)
(1.23316 -0.27349 -2.4212e-18)
(1.22776 -0.287589 -1.77498e-18)
(1.22192 -0.301451 -1.41703e-18)
(1.21663 -0.317206 -6.76944e-19)
(1.2111 -0.334343 -6.93407e-18)
(1.20613 -0.352765 -6.9272e-18)
(1.20047 -0.374909 2.33945e-18)
(1.19611 -0.397725 -1.5175e-18)
(1.18973 -0.42916 -6.96768e-18)
(1.18843 -0.459865 -3.5013e-18)
(1.18194 -0.505414 -6.49208e-18)
(1.18766 -0.536457 -1.3273e-17)
(1.14822 -0.551111 -7.34755e-18)
(1.06561 -0.472772 -1.30817e-17)
(0.717402 -0.246716 -2.0622e-18)
(0.397533 -0.00318107 5.43899e-17)
(1.15538 -0.151644 -4.18661e-18)
(1.14426 -0.176006 1.33703e-17)
(1.13251 -0.18431 5.10503e-18)
(1.11808 -0.202684 2.24184e-18)
(1.10366 -0.215449 -1.58874e-17)
(1.0868 -0.231196 -4.50824e-17)
(1.06903 -0.245817 -4.76855e-18)
(1.0485 -0.260508 -1.48532e-17)
(1.02559 -0.274625 -5.07971e-17)
(0.999028 -0.287652 -8.51199e-18)
(0.968534 -0.299118 -1.62828e-17)
(0.932846 -0.308119 -1.69094e-17)
(0.891486 -0.313013 2.13205e-17)
(0.842503 -0.31272 1.93605e-17)
(0.786474 -0.305511 3.17515e-17)
(0.722669 -0.290335 -1.08101e-17)
(0.653843 -0.264275 -3.20834e-17)
(0.576029 -0.227478 3.05631e-18)
(0.509734 -0.169928 2.95461e-18)
(0.391061 -0.0841359 1.61826e-17)
(1.12153 -0.117273 -2.08494e-18)
(1.11227 -0.136088 -3.70406e-18)
(1.10175 -0.141612 4.32241e-18)
(1.08944 -0.154437 3.6587e-17)
(1.07614 -0.162726 -5.77156e-18)
(1.0617 -0.172553 -1.49227e-17)
(1.04587 -0.181222 -1.49969e-17)
(1.02884 -0.18952 -1.62871e-17)
(1.01036 -0.197191 -1.83343e-17)
(0.990604 -0.20404 -9.64943e-18)
(0.969439 -0.209532 -2.26411e-18)
(0.946954 -0.213162 -2.35835e-19)
(0.923022 -0.214281 -9.7085e-18)
(0.897797 -0.211703 1.62471e-18)
(0.870837 -0.204137 1.01663e-17)
(0.842265 -0.18982 -6.58736e-19)
(0.812656 -0.168516 2.01496e-18)
(0.783421 -0.134219 -1.11442e-18)
(0.758234 -0.0949552 7.89187e-18)
(0.74757 -0.0359696 2.58064e-18)
(1.09177 -0.0959084 -3.85493e-18)
(1.08329 -0.112288 -3.72073e-18)
(1.07379 -0.116987 -9.74956e-18)
(1.06245 -0.127718 -2.04704e-17)
(1.05036 -0.133935 -2.10457e-17)
(1.03701 -0.140814 -6.9334e-17)
(1.02252 -0.146016 -3.50427e-17)
(1.00657 -0.150057 -4.61425e-17)
(0.989099 -0.152591 -9.38525e-17)
(0.969876 -0.153383 -3.24736e-17)
(0.948924 -0.152239 -2.15272e-17)
(0.926333 -0.148899 -7.67989e-18)
(0.902477 -0.143096 -1.29339e-17)
(0.877906 -0.134664 1.00629e-17)
(0.853592 -0.123293 5.83006e-17)
(0.830452 -0.108932 -1.69251e-17)
(0.809403 -0.0906583 -9.53067e-18)
(0.790651 -0.0693348 -1.82558e-17)
(0.776114 -0.0431106 1.05502e-17)
(0.762048 -0.0147255 1.03754e-16)
(1.06941 -0.0689518 -7.80801e-18)
(1.06272 -0.0812302 -5.61631e-18)
(1.05537 -0.0845479 -8.84084e-18)
(1.04657 -0.0923283 -8.57407e-18)
(1.03731 -0.0968059 -9.0786e-18)
(1.02752 -0.10187 -1.77468e-17)
(1.01737 -0.10578 -6.96542e-17)
(1.00703 -0.108906 -6.83263e-17)
(0.996577 -0.111039 -7.77764e-17)
(0.986157 -0.111988 -7.82675e-17)
(0.975805 -0.11152 -6.03765e-17)
(0.96553 -0.109381 -1.13613e-17)
(0.955262 -0.105297 -6.17323e-17)
(0.944942 -0.0989715 -1.25348e-17)
(0.934536 -0.0902343 -7.61508e-17)
(0.924319 -0.0788753 -7.17606e-17)
(0.914778 -0.0651834 -1.35023e-17)
(0.907061 -0.0488302 -7.66091e-17)
(0.901831 -0.0308917 -1.70445e-17)
(0.900738 -0.0107617 -8.0149e-17)
(1.05119 -0.0557676 -2.07726e-17)
(1.04568 -0.0652428 -1.12149e-17)
(1.03951 -0.0675294 -2.85315e-17)
(1.03201 -0.0730775 -3.51109e-17)
(1.02399 -0.0757406 -3.13201e-17)
(1.01522 -0.0784938 -6.09664e-17)
(1.00573 -0.0800372 3.26139e-18)
(0.995498 -0.0806753 3.0989e-17)
(0.984538 -0.0803051 -4.03481e-17)
(0.972914 -0.0788807 1.1685e-17)
(0.960803 -0.0763827 4.71396e-17)
(0.94847 -0.0727956 2.43608e-17)
(0.936295 -0.0681094 5.27438e-17)
(0.924704 -0.0623277 3.90621e-17)
(0.914133 -0.0554119 1.32325e-16)
(0.904865 -0.0474 6.31202e-17)
(0.89707 -0.0381988 2.7635e-17)
(0.890614 -0.0280767 5.54592e-17)
(0.885685 -0.0170122 3.84062e-17)
(0.882237 -0.00563637 1.40236e-16)
(1.03797 -0.0384215 -5.61432e-17)
(1.03391 -0.0457433 -1.56778e-17)
(1.02957 -0.0476911 -7.14747e-17)
(1.02437 -0.052203 -8.81436e-17)
(1.01906 -0.05463 -6.23237e-17)
(1.01359 -0.0572115 -4.3113e-18)
(1.00814 -0.0589707 -4.84609e-17)
(1.00281 -0.0601133 6.98019e-17)