/*--------------------------------*- C++ -*----------------------------------*\
  =========                 |
  \\      /  F ield         | OpenFOAM: The Open Source CFD Toolbox
   \\    /   O peration     | Website:  https://openfoam.org
    \\  /    A nd           | Version:  7
     \\/     M anipulation  |
\*---------------------------------------------------------------------------*/
FoamFile
{
    version     2.0;
    format      ascii;
    class       volScalarField;
    location    "20";
    object      p;
}
// * * * * * * * * * * * * * * * * * * * * * * * * * * * * * * * * * * * * * //

dimensions      [0 2 -2 0 0 0 0];

internalField   nonuniform List<scalar> 
225
(
-0.017612
0.0270642
-0.028692
0.0412908
-0.0486603
0.0595432
-0.0815108
0.0785111
-0.144179
-0.0176253
0.0270874
-0.0287093
0.0413306
-0.0486983
0.0596218
-0.0815712
0.0786608
-0.144012
-0.0176376
0.0271097
-0.0287239
0.0413692
-0.0487298
0.0596975
-0.0816173
0.0788008
-0.143813
-0.0176499
0.0271319
-0.0287389
0.0414081
-0.0487617
0.0597739
-0.081664
0.0789414
-0.143616
-0.0176621
0.0271539
-0.0287542
0.0414469
-0.0487945
0.0598502
-0.0817125
0.0790809
-0.0176742
-0.017449
0.0267867
-0.0284657
0.0407943
-0.0482001
0.0585516
-0.0808188
0.0764429
-0.146791
-0.0174668
0.0268195
-0.0284866
0.04085
-0.0482368
0.0586563
-0.0808613
0.0766409
-0.146052
-0.0174854
0.0268504
-0.0285129
0.0409072
-0.0482898
0.0587724
-0.0809408
0.0769025
-0.145829
-0.0175021
0.0268782
-0.0285358
0.0409574
-0.0483371
0.0588737
-0.081013
0.0771255
-0.145644
-0.0175183
0.0269055
-0.0285577
0.0410061
-0.0483819
0.0589712
-0.0810801
0.0773331
-0.145408
-0.0175344
0.0269328
-0.0285797
0.0410552
-0.0484268
0.0590693
-0.0811474
0.0775395
-0.145167
-0.0175504
0.02696
-0.0286019
0.0411044
-0.0484721
0.0591676
-0.0812151
0.077744
-0.144938
-0.0175664
0.0269872
-0.0286243
0.0411538
-0.0485175
0.0592663
-0.0812823
0.0779465
-0.144711
-0.0175824
0.0270143
-0.0286472
0.0412034
-0.0485641
0.0593651
-0.0813517
0.0781473
-0.144496
-0.0175976
0.0270398
-0.0286703
0.041249
-0.048613
0.059457
-0.0814307
0.0783355
-0.144335
-0.0161461
0.0241778
-0.0275916
0.0384347
-0.0457799
0.0523265
-0.0711159
0.0479756
-0.0941056
-0.0161942
0.0243415
-0.0278066
0.038521
-0.0463293
0.0526443
-0.0733365
0.0490709
-0.106608
-0.016282
0.0245236
-0.0279507
0.0386512
-0.0466278
0.0530714
-0.0742784
0.0510491
-0.11095
-0.0163992
0.0247391
-0.0281012
0.0388131
-0.0470015
0.0535771
-0.0758679
0.0527361
-0.121397
-0.0165419
0.0249943
-0.02824
0.0390261
-0.047325
0.054261
-0.0770589
0.0563077
-0.127324
-0.0167047
0.0252845
-0.0283615
0.0392774
-0.047624
0.0549801
-0.0782779
0.0590256
-0.137549
-0.0168753
0.0256063
-0.0284497
0.0395916
-0.0478701
0.0558738
-0.0792871
0.0637618
-0.141147
-0.0170488
0.0259216
-0.0284852
0.0398614
-0.0480306
0.0566271
-0.0800849
0.0678213
-0.152351
-0.0172127
0.0263416
-0.0285387
0.040364
-0.0481978
0.0576779
-0.0806291
0.0721843
-0.146651
-0.0172808
0.0264276
-0.0283183
0.0403464
-0.048011
0.0579323
-0.0807137
0.0761613
-0.158163
)
;

boundaryField
{
    inlet
    {
        type            zeroGradient;
    }
    outlet
    {
        type            fixedValue;
        value           uniform 0;
    }
    polygon
    {
        type            zeroGradient;
    }
    top
    {
        type            symmetryPlane;
    }
    bottom
    {
        type            symmetryPlane;
    }
    outside
    {
        type            slip;
    }
    procBoundary15to10
    {
        type            processor;
        value           nonuniform List<scalar> 
19
(
0.0346515
0.0343956
0.0342429
0.0340732
0.0385662
0.0372478
0.0371604
0.0370222
0.0367181
0.036397
0.0360935
0.0358006
0.0355011
0.0351197
-0.0633552
-0.0601635
-0.0249952
-0.00931545
0.0715928
)
;
    }
    procBoundary15to11
    {
        type            processor;
        value           nonuniform List<scalar> 
11
(
-0.143429
0.0271756
-0.0287698
0.0414854
-0.0488276
0.0599259
-0.0817613
-0.143429
0.0792181
0.0271756
-0.0176861
)
;
    }
    procBoundary15to14
    {
        type            processor;
        value           nonuniform List<scalar> 5(-0.0694684 -0.0702953 -0.071264 -0.0713456 -0.0715269);
    }
}


// ************************************************************************* //
