/*--------------------------------*- C++ -*----------------------------------*\
  =========                 |
  \\      /  F ield         | OpenFOAM: The Open Source CFD Toolbox
   \\    /   O peration     | Website:  https://openfoam.org
    \\  /    A nd           | Version:  7
     \\/     M anipulation  |
\*---------------------------------------------------------------------------*/
FoamFile
{
    version     2.0;
    format      ascii;
    class       volScalarField;
    location    "10";
    object      p;
}
// * * * * * * * * * * * * * * * * * * * * * * * * * * * * * * * * * * * * * //

dimensions      [0 2 -2 0 0 0 0];

internalField   nonuniform List<scalar> 
50
(
-0.00316771
-0.00305221
-0.0029609
-0.0029003
-0.00287107
0.0199614
0.0204442
0.0208753
0.0212071
0.0213897
-0.00499424
-0.0044811
-0.00401444
-0.00365033
-0.00344795
0.0455558
0.0468904
0.0481258
0.0490899
0.0496181
-0.0257493
-0.0250251
-0.0241958
-0.0234187
-0.0229467
0.0554036
0.0587156
0.0616638
0.0638119
0.0648529
-0.0978979
-0.0988229
-0.0982717
-0.0964465
-0.095098
-0.0392897
-0.0353944
-0.0328743
-0.0299541
-0.0297962
-0.321513
-0.336692
-0.338268
-0.328331
-0.318064
-0.48567
-0.519152
-0.536055
-0.543227
-0.524165
)
;

boundaryField
{
    inlet
    {
        type            zeroGradient;
    }
    outlet
    {
        type            fixedValue;
        value           uniform 0;
    }
    polygon
    {
        type            zeroGradient;
    }
    top
    {
        type            symmetryPlane;
    }
    bottom
    {
        type            symmetryPlane;
    }
    outside
    {
        type            slip;
    }
    procBoundary7to3
    {
        type            processor;
        value           nonuniform List<scalar> 10(-0.00329652 0.0194673 -0.00550182 0.0442904 -0.0262226 0.0525297 -0.0949038 -0.0407285 -0.296112 -0.450998);
    }
    procBoundary7to6
    {
        type            processor;
        value           nonuniform List<scalar> 5(-0.376272 -0.468089 -0.507846 -0.562144 -0.441326);
    }
    procBoundary7to11
    {
        type            processor;
        value           nonuniform List<scalar> 10(-0.00287107 0.0213897 -0.00344795 0.0496181 -0.0229467 0.0648529 -0.095098 -0.0297962 -0.318064 -0.524165);
    }
}


// ************************************************************************* //
