/*--------------------------------*- C++ -*----------------------------------*\
  =========                 |
  \\      /  F ield         | OpenFOAM: The Open Source CFD Toolbox
   \\    /   O peration     | Website:  https://openfoam.org
    \\  /    A nd           | Version:  7
     \\/     M anipulation  |
\*---------------------------------------------------------------------------*/
FoamFile
{
    version     2.0;
    format      ascii;
    class       volScalarField;
    location    "120";
    object      p;
}
// * * * * * * * * * * * * * * * * * * * * * * * * * * * * * * * * * * * * * //

dimensions      [0 2 -2 0 0 0 0];

internalField   nonuniform List<scalar> 
250
(
-0.20958
-0.218524
-0.220868
-0.226473
-0.228503
-0.231596
-0.232852
-0.234435
-0.235143
-0.23577
-0.205043
-0.215302
-0.217246
-0.223631
-0.225129
-0.228575
-0.22947
-0.231088
-0.231661
-0.232238
-0.198827
-0.211292
-0.212655
-0.220188
-0.22113
-0.224916
-0.225584
-0.22717
-0.227657
-0.228169
-0.192839
-0.2068
-0.208039
-0.216102
-0.216977
-0.220741
-0.221378
-0.222834
-0.223276
-0.223708
-0.18717
-0.201984
-0.203461
-0.211627
-0.212679
-0.216267
-0.216948
-0.218237
-0.218648
-0.218996
-0.181791
-0.197156
-0.198949
-0.207049
-0.208317
-0.211684
-0.212412
-0.213532
-0.213904
-0.214175
-0.176652
-0.192399
-0.194484
-0.20248
-0.20395
-0.207111
-0.207871
-0.208841
-0.209168
-0.209371
-0.171825
-0.18783
-0.190166
-0.198044
-0.199689
-0.202668
-0.203447
-0.204286
-0.204564
-0.204709
-0.167405
-0.183499
-0.186062
-0.1938
-0.195613
-0.198434
-0.199231
-0.199961
-0.200193
-0.200293
-0.163556
-0.179517
-0.182292
-0.189838
-0.191819
-0.194495
-0.195317
-0.195956
-0.196152
-0.196216
-0.160408
-0.175959
-0.178932
-0.186213
-0.188366
-0.190908
-0.191764
-0.192337
-0.192507
-0.192547
-0.158088
-0.172925
-0.176075
-0.182996
-0.185317
-0.187727
-0.188625
-0.189156
-0.189312
-0.189339
-0.156655
-0.170478
-0.173764
-0.180232
-0.182702
-0.184982
-0.185928
-0.186441
-0.186595
-0.186622
-0.156127
-0.168681
-0.172041
-0.177969
-0.180546
-0.182696
-0.183692
-0.1842
-0.184368
-0.184404
-0.156455
-0.167551
-0.170905
-0.176228
-0.17885
-0.180873
-0.181912
-0.182428
-0.182622
-0.182677
-0.157553
-0.167083
-0.17034
-0.175018
-0.177607
-0.179506
-0.18057
-0.181108
-0.181335
-0.181418
-0.15928
-0.167227
-0.170293
-0.174318
-0.176793
-0.178573
-0.179638
-0.180204
-0.180469
-0.180587
-0.161476
-0.167904
-0.1707
-0.174087
-0.176382
-0.178037
-0.179083
-0.179676
-0.179984
-0.180143
-0.163964
-0.169002
-0.17147
-0.174265
-0.17633
-0.177846
-0.178858
-0.179474
-0.179825
-0.180027
-0.166566
-0.170392
-0.172502
-0.174772
-0.176577
-0.177949
-0.178916
-0.179549
-0.179946
-0.180197
-0.16911
-0.171924
-0.17368
-0.175503
-0.177048
-0.178279
-0.179197
-0.179841
-0.18028
-0.180577
-0.171437
-0.173447
-0.174879
-0.176339
-0.177658
-0.178767
-0.179648
-0.180311
-0.180803
-0.181167
-0.173405
-0.174804
-0.175961
-0.177148
-0.178297
-0.179319
-0.18018
-0.180868
-0.181404
-0.181811
-0.174879
-0.175836
-0.176781
-0.17779
-0.17884
-0.179839
-0.180739
-0.181503
-0.182143
-0.182672
-0.175719
-0.17637
-0.17717
-0.178089
-0.179122
-0.180166
-0.181159
-0.182025
-0.182742
-0.183309
)
;

boundaryField
{
    inlet
    {
        type            zeroGradient;
    }
    outlet
    {
        type            fixedValue;
        value           nonuniform 0();
    }
    polygon
    {
        type            zeroGradient;
    }
    top
    {
        type            symmetryPlane;
    }
    bottom
    {
        type            symmetryPlane;
    }
    outside
    {
        type            slip;
    }
    procBoundary2to1
    {
        type            processor;
        value           nonuniform List<scalar> 9(-0.175762 -0.176212 -0.176949 -0.177868 -0.178983 -0.18018 -0.181393 -0.182514 -0.183503);
    }
    procBoundary2to3
    {
        type            processor;
        value           nonuniform List<scalar> 10(-0.212282 -0.220578 -0.223253 -0.228488 -0.230959 -0.233897 -0.235511 -0.23707 -0.237944 -0.238619);
    }
    procBoundary2to5
    {
        type            processor;
        value           uniform -0.184355;
    }
    procBoundary2to6
    {
        type            processor;
        value           nonuniform List<scalar> 
25
(
-0.236005
-0.232428
-0.228322
-0.223828
-0.219086
-0.214234
-0.209401
-0.204714
-0.200279
-0.19619
-0.192517
-0.189313
-0.186605
-0.184403
-0.182696
-0.181461
-0.180658
-0.180247
-0.180164
-0.180377
-0.180791
-0.181445
-0.182112
-0.1831
-0.183726
)
;
    }
}


// ************************************************************************* //
