/*--------------------------------*- C++ -*----------------------------------*\
  =========                 |
  \\      /  F ield         | OpenFOAM: The Open Source CFD Toolbox
   \\    /   O peration     | Website:  https://openfoam.org
    \\  /    A nd           | Version:  7
     \\/     M anipulation  |
\*---------------------------------------------------------------------------*/
FoamFile
{
    version     2.0;
    format      ascii;
    class       surfaceScalarField;
    location    "36";
    object      phi;
}
// * * * * * * * * * * * * * * * * * * * * * * * * * * * * * * * * * * * * * //

dimensions      [0 3 -1 0 0 0 0];

internalField   nonuniform List<scalar> 
15760
(
-0.00105627
0.00265699
-0.00288976
-0.000826212
0.00249682
-0.00272688
-0.00060281
0.00215833
-0.00238173
-0.000382671
0.00223049
-0.00245063
-0.000166116
0.0020445
-0.00226105
4.92198e-05
0.00206662
-0.00228196
0.000260356
0.0019886
-0.00219974
0.000468468
0.00195471
-0.00216282
0.000670577
0.00189181
-0.00209392
0.000864925
0.00182085
-0.0020152
0.00104906
0.00173112
-0.00191525
0.00122085
0.00162489
-0.00179668
0.00137864
0.00150376
-0.00166155
0.00152126
0.00137085
-0.00151348
0.00164811
0.00122964
-0.00135648
0.00175894
0.00108335
-0.00119417
0.00185379
0.000934687
-0.00102954
0.00193288
0.0007858
-0.000864891
0.00199653
0.000638329
-0.000701979
0.00204514
0.000493567
-0.000542171
0.00207916
0.000352621
-0.000386644
0.00209914
0.000216484
-0.000236464
0.00210574
8.61713e-05
-9.27712e-05
0.00209969
-3.75682e-05
4.36119e-05
0.00208163
-0.00015376
0.000171825
0.00205273
-0.000261036
0.000289938
0.00201396
-0.000358722
0.000397489
0.00196647
-0.000445987
0.000493483
0.00191146
-0.000522159
0.000577168
0.0018502
-0.000586741
0.000647997
0.00178399
-0.000639438
0.000705649
0.00171411
-0.000680178
0.000750057
0.00164182
-0.000709126
0.000781416
0.00156832
-0.00072667
0.000800176
0.00149471
-0.000733412
0.000807018
0.00142202
-0.000730134
0.000802827
0.00135114
-0.000717774
0.000788656
0.00128284
-0.00069739
0.000765687
0.00121777
-0.000670121
0.000735192
0.00115643
-0.000637151
0.000698489
0.0010992
-0.000599681
0.000656907
0.00104634
-0.000558894
0.000611757
0.000997976
-0.000515929
0.000564293
0.000954139
-0.000471851
0.000515689
0.000914762
-0.000427635
0.000467012
0.000879697
-0.000384147
0.000419211
0.000848728
-0.00034213
0.000373099
0.000821581
-0.000302201
0.000329348
0.00079794
-0.000264846
0.000288487
0.000777458
-0.00023042
0.000250902
0.00075977
-0.000199158
0.000216846
0.000744505
-0.000171179
0.000186444
0.000731293
-0.000146499
0.000159711
0.000719781
-0.000125046
0.000136558
0.000709635
-0.000106668
0.000116814
0.000700552
-9.11531e-05
0.000100236
0.000692266
-7.82436e-05
8.65293e-05
0.00068455
-6.76518e-05
7.53683e-05
0.000677216
-5.90794e-05
6.64127e-05
0.00067012
-5.22311e-05
5.93278e-05
0.000663142
-4.67961e-05
5.3774e-05
0.000656202
-4.2498e-05
4.94372e-05
0.000649246
-3.91054e-05
4.60622e-05
0.000642235
-3.64185e-05
4.34293e-05
0.000635148
-3.42747e-05
4.13616e-05
0.000627971
-3.25501e-05
3.97271e-05
0.000620693
-3.11589e-05
3.84368e-05
0.000613303
-3.005e-05
3.74405e-05
0.000605783
-2.92026e-05
3.67219e-05
0.000598112
-2.8622e-05
3.62933e-05
0.000590257
-2.8335e-05
3.619e-05
0.000582178
-2.83855e-05
3.64649e-05
0.000573823
-2.88298e-05
3.7184e-05
0.000565135
-2.97339e-05
3.8422e-05
0.000556046
-3.11699e-05
4.02592e-05
0.000546481
-3.32149e-05
4.27797e-05
0.00053636
-3.59494e-05
4.60703e-05
0.000525596
-3.94637e-05
5.02277e-05
0.000514099
-4.38458e-05
5.53427e-05
0.000501775
-4.91999e-05
6.15246e-05
0.000488523
-5.56434e-05
6.8895e-05
0.000474241
-6.33138e-05
7.75957e-05
0.000458821
-7.23769e-05
8.77974e-05
0.000442148
-8.3038e-05
9.97105e-05
0.000424104
-9.55536e-05
0.000113598
0.000404563
-0.000110254
0.000129795
0.000383394
-0.000127555
0.000148723
0.000360462
-0.000148042
0.000170974
0.000335645
-0.0001724
0.000197217
0.00030884
-0.000201651
0.000228456
0.000280003
-0.000236991
0.000265828
0.000249172
-0.000280373
0.000311205
0.000216714
-0.000333661
0.000366119
0.000182866
-0.000400623
0.00043447
0.000150023
-0.000484344
0.000517187
0.000117909
-0.000584945
0.000617059
9.50726e-05
-0.000717569
0.000740405
7.35964e-05
-0.000811957
0.000833433
5.05045e-05
-0.000956707
0.000979799
-0.000558878
0.000609383
-0.00104479
0.00241043
-0.000801919
0.00225396
-0.000573893
0.00193031
-0.000345952
0.00200255
-0.000126101
0.00182464
9.34866e-05
0.00184703
0.00030779
0.0017743
0.000519017
0.00174348
0.000723713
0.00168711
0.000920766
0.0016238
0.00110763
0.00154426
0.00128228
0.00145023
0.00144303
0.00134302
0.00158866
0.00122522
0.00171845
0.00109985
0.00183208
0.000969723
0.00192949
0.000837276
0.00201084
0.000704444
0.00207643
0.000572742
0.00212663
0.000443367
0.00216191
0.000317344
0.00218282
0.000195577
0.00219001
7.89773e-05
0.00218421
-3.17694e-05
0.00216621
-0.000135762
0.00213703
-0.000231849
0.00209771
-0.000319409
0.00204942
-0.000397694
0.00199337
-0.00046611
0.00193084
-0.000524213
0.00186314
-0.000571735
0.00179157
-0.000608603
0.00171739
-0.000634952
0.00164184
-0.000651117
0.00156604
-0.000657618
0.00149105
-0.00065514
0.00141778
-0.000644508
0.00134705
-0.000626653
0.00127951
-0.000602583
0.00121571
-0.000573351
0.00115605
-0.000540024
0.00110082
-0.000503659
0.00105016
-0.000465276
0.00100414
-0.00042583
0.000962704
-0.000386197
0.000925715
-0.000347158
0.00089297
-0.000309385
0.000864206
-0.000273437
0.000839114
-0.000239754
0.000817355
-0.000208661
0.000798568
-0.000180372
0.000782387
-0.000154998
0.000768447
-0.000132559
0.000756393
-0.000112992
0.000745894
-9.61684e-05
0.000736644
-8.19031e-05
0.000728371
-6.99705e-05
0.000720839
-6.01199e-05
0.000713851
-5.20913e-05
0.000707246
-4.56263e-05
0.000700897
-4.04465e-05
0.000694707
-3.6308e-05
0.000688607
-3.30056e-05
0.000682549
-3.03605e-05
0.000676499
-2.82252e-05
0.000670436
-2.64863e-05
0.00066434
-2.50631e-05
0.000658195
-2.39056e-05
0.000651983
-2.29906e-05
0.00064568
-2.23184e-05
0.000639254
-2.19089e-05
0.000632666
-2.17976e-05
0.000625869
-2.20324e-05
0.000618805
-2.26704e-05
0.000611411
-2.37754e-05
0.000603612
-2.54166e-05
0.00059533
-2.76673e-05
0.000586477
-3.06101e-05
0.000576959
-3.43278e-05
0.000566676
-3.89176e-05
0.000555523
-4.44899e-05
0.000543384
-5.11747e-05
0.000530136
-5.91288e-05
0.000515644
-6.85468e-05
0.000499763
-7.96725e-05
0.000482331
-9.28217e-05
0.000463168
-0.000108393
0.000442073
-0.000126947
0.000418833
-0.000149159
0.000393212
-0.00017603
0.000364989
-0.000208768
0.000333923
-0.000249307
0.000300001
-0.000299739
0.000262927
-0.000363549
0.000223959
-0.000445376
0.000182312
-0.000543297
0.000142423
-0.00067768
9.97826e-05
-0.000769316
4.10322e-05
-0.000897956
-0.000517846
-0.00103243
0.00214921
-0.000778681
0.00200021
-0.000545762
0.00169739
-0.000311234
0.00176802
-8.8344e-05
0.00160175
0.000134974
0.00162372
0.000352023
0.00155725
0.000565714
0.00152979
0.00077271
0.00148011
0.000971984
0.00142453
0.00116112
0.00135512
0.00133817
0.00127319
0.00150142
0.00117976
0.00164962
0.00107702
0.00178197
0.000967504
0.00189804
0.000853653
0.00199772
0.000737593
0.00208111
0.000621051
0.00214847
0.000505388
0.00220014
0.000391688
0.00223661
0.00028088
0.00225841
0.000173772
0.00226621
7.11806e-05
0.00226075
-2.63127e-05
0.00224285
-0.000117863
0.0022135
-0.0002025
0.00217378
-0.000279689
0.00212485
-0.000348759
0.00206793
-0.000409193
0.00200432
-0.0004606
0.00193532
-0.000502738
0.00186225
-0.000535537
0.00178641
-0.000559104
0.00170901
-0.000573724
0.00163124
-0.00057984
0.00155414
-0.000578043
0.00147868
-0.000569045
0.00140568
-0.000553655
0.00133584
-0.00053275
0.00126974
-0.00050725
0.00120781
-0.00047809
0.00115035
-0.000446198
0.00109754
-0.000412471
0.00104947
-0.000377753
0.00100609
-0.000342817
0.000967285
-0.000308356
0.000932868
-0.000274968
0.000902582
-0.00024315
0.000876124
-0.000213296
0.000853159
-0.000185696
0.000833331
-0.000160544
0.000816275
-0.000137942
0.000801627
-0.000117911
0.000789035
-0.000100399
0.000778163
-8.52967e-05
0.000768704
-7.24441e-05
0.00076038
-6.1647e-05
0.000752949
-5.26889e-05
0.000746204
-4.53454e-05
0.000739972
-3.93951e-05
0.000734118
-3.45922e-05
0.000728533
-3.07226e-05
0.000723135
-2.76084e-05
0.000717867
-2.50922e-05
0.000712685
-2.30432e-05
0.000707558
-2.13594e-05
0.000702462
-1.99672e-05
0.000697376
-1.88193e-05
0.000692277
-1.78919e-05
0.000687141
-1.7182e-05
0.000681936
-1.67037e-05
0.000676623
-1.64854e-05
0.000671158
-1.65672e-05
0.000665486
-1.69977e-05
0.000659542
-1.78322e-05
0.000653258
-1.91317e-05
0.000646552
-2.09614e-05
0.000639337
-2.33952e-05
0.000631518
-2.65086e-05
0.00062299
-3.03902e-05
0.000613641
-3.51409e-05
0.000603347
-4.08802e-05
0.00059197
-4.77523e-05
0.00057936
-5.59365e-05
0.000565345
-6.56577e-05
0.000549732
-7.72086e-05
0.000532298
-9.09592e-05
0.000512783
-0.000107432
0.000490888
-0.000127265
0.00046626
-0.000151402
0.000438507
-0.000181014
0.000407132
-0.000217933
0.000371743
-0.00026435
0.000331533
-0.000323339
0.000286746
-0.000400589
0.000235998
-0.000492549
0.000180645
-0.000622328
0.000120099
-0.00070877
4.05622e-05
-0.00081842
-0.000477284
-0.00102015
0.00187375
-0.000756081
0.00173614
-0.000519195
0.0014605
-0.000278603
0.00152743
-5.34025e-05
0.00137655
0.000173278
0.00139704
0.00039254
0.00133798
0.00060823
0.0013141
0.000817071
0.00127127
0.00101811
0.00122349
0.00120907
0.00116416
0.00138805
0.0010942
0.00155335
0.00101446
0.00170369
0.000926689
0.00183818
0.000833009
0.00195635
0.000735485
0.002058
0.000635938
0.00214319
0.000535861
0.00221213
0.000436451
0.00226516
0.000338661
0.00230273
0.000243311
0.00232539
0.000151107
0.0023338
6.27689e-05
0.00232873
-2.12385e-05
0.00231099
-0.000100127
0.00228159
-0.00017309
0.00224159
-0.000239689
0.00219216
-0.000299333
0.00213455
-0.00035158
0.00207003
-0.000396088
0.00199994
-0.000432647
0.0019256
-0.00046119
0.00184829
-0.000481802
0.00176929
-0.000494716
0.00168975
-0.000500307
0.00161078
-0.000499071
0.00153335
-0.000491612
0.00145831
-0.000478618
0.0013864
-0.000460837
0.00131821
-0.000439056
0.00125419
-0.000414077
0.00119469
-0.000386697
0.00113991
-0.00035769
0.00108994
-0.000327783
0.00104477
-0.000297647
0.0010043
-0.000267882
0.000968334
-0.000239007
0.000936639
-0.000211456
0.000908915
-0.000185572
0.000884831
-0.000161612
0.000864034
-0.000139746
0.000846157
-0.000120066
0.000830839
-0.000102592
0.000817723
-8.72842e-05
0.000806476
-7.40488e-05
0.000796783
-6.27519e-05
0.000788365
-5.32287e-05
0.000780971
-4.52952e-05
0.000774387
-3.87614e-05
0.000768433
-3.34409e-05
0.000762963
-2.91217e-05
0.000757858
-2.56179e-05
0.000753029
-2.27792e-05
0.000748407
-2.04701e-05
0.000743941
-1.85773e-05
0.000739593
-1.70113e-05
0.000735332
-1.57068e-05
0.000731134
-1.46206e-05
0.000726972
-1.37301e-05
0.00072282
-1.30297e-05
0.000718646
-1.25295e-05
0.000714412
-1.22518e-05
0.000710074
-1.22292e-05
0.000705578
-1.25023e-05
0.000700864
-1.31182e-05
0.000695862
-1.41292e-05
0.000690492
-1.55917e-05
0.000684667
-1.75702e-05
0.00067829
-2.01316e-05
0.000671254
-2.33539e-05
0.00066344
-2.73269e-05
0.000654716
-3.21568e-05
0.000644936
-3.79721e-05
0.000633932
-4.49327e-05
0.000621514
-5.32395e-05
0.00060746
-6.31547e-05
0.000591511
-7.50102e-05
0.000573354
-8.9275e-05
0.00055262
-0.00010653
0.000528849
-0.000127632
0.000501502
-0.000153668
0.000469861
-0.000186291
0.000433185
-0.000227674
0.000390224
-0.000280378
0.00034031
-0.000350674
0.000281586
-0.000433825
0.000213071
-0.000553814
0.000137516
-0.000633215
4.40878e-05
-0.000724991
-0.000433196
-0.00100813
0.00158487
-0.000734577
0.00146259
-0.000494618
0.00122054
-0.000248601
0.00128141
-2.18973e-05
0.00114985
0.000207865
0.00116727
0.000428852
0.001117
0.000646101
0.00109685
0.000856368
0.00106101
0.00105876
0.00102109
0.00125112
0.000971797
0.00143161
0.000913715
0.00159854
0.000847528
0.0017506
0.000774633
0.00188686
0.000696746
0.00200678
0.000615566
0.00211011
0.000532605
0.00219686
0.000449119
0.00226718
0.000366122
0.00232142
0.000284423
0.00236001
0.000204726
0.00238349
0.000127624
0.00239252
5.37416e-05
0.00238785
-1.6575e-05
0.00237034
-8.26174e-05
0.00234097
-0.000143714
0.00230081
-0.000199532
0.00225104
-0.000249561
0.00219289
-0.000293432
0.00212766
-0.000330858
0.00205667
-0.000361659
0.00198126
-0.000385773
0.00190272
-0.000403266
0.00182233
-0.000414324
0.00174127
-0.000419254
0.00166067
-0.000418463
0.0015815
-0.000412449
0.00150466
-0.00040178
0.00143091
-0.000387077
0.00136084
-0.000368995
0.00129497
-0.000348203
0.00123364
-0.000325365
0.00117708
-0.000301129
0.0011254
-0.000276106
0.00107861
-0.000250859
0.00103662
-0.000225892
0.00099926
-0.000201644
0.000966287
-0.000178482
0.000937413
-0.000156698
0.00091231
-0.000136509
0.000890625
-0.000118062
0.000871995
-0.000101436
0.000856055
-8.6652e-05
0.000842448
-7.36773e-05
0.000830836
-6.24364e-05
0.000820903
-5.2819e-05
0.000812363
-4.46888e-05
0.000804961
-3.78937e-05
0.000798477
-3.22767e-05
0.000792721
-2.7685e-05
0.000787541
-2.39415e-05
0.00078281
-2.08874e-05
0.000778431
-1.84e-05
0.000774327
-1.63664e-05
0.000770441
-1.46909e-05
0.000766727
-1.32976e-05
0.000763151
-1.21305e-05
0.000759682
-1.11519e-05
0.000756293
-1.03409e-05
0.000752954
-9.6913e-06
0.000749635
-9.2096e-06
0.000746296
-8.91298e-06
0.000742894
-8.82746e-06
0.000739378
-8.98607e-06
0.000735687
-9.4275e-06
0.000731753
-1.01954e-05
0.000727499
-1.1337e-05
0.000722835
-1.29067e-05
0.000717665
-1.49615e-05
0.000711879
-1.75678e-05
0.000705355
-2.08025e-05
0.000697954
-2.47564e-05
0.000689522
-2.95398e-05
0.000679879
-3.529e-05
0.000668819
-4.21792e-05
0.000656097
-5.04331e-05
0.000641425
-6.03378e-05
0.000624447
-7.22971e-05
0.000604735
-8.68172e-05
0.000581743
-0.000104641
0.000554809
-0.000126733
0.00052303
-0.000154513
0.000485372
-0.000190015
0.000440237
-0.000235243
0.000386117
-0.000296555
0.00032089
-0.000368598
0.000241669
-0.000474593
0.000153665
-0.000545211
4.99716e-05
-0.000621298
-0.000383225
-0.000996719
0.00128385
-0.000714791
0.00118066
-0.000472597
0.000978347
-0.000221902
0.00103072
5.6548e-06
0.000922293
0.0002381
0.000934827
0.00046036
0.000894737
0.00067876
0.000878449
0.000890072
0.000849694
0.00109345
0.000817721
0.00128685
0.000778396
0.00146847
0.000732094
0.00163665
0.000679348
0.00179005
0.000621225
0.00192773
0.000559069
0.00204908
0.000494218
0.0021538
0.00042788
0.00224186
0.000361063
0.00231339
0.000294589
0.0023687
0.000229117
0.00240821
0.00016522
0.00243245
0.000103377
0.00244208
4.41098e-05
0.00243786
-1.23497e-05
0.00242063
-6.53864e-05
0.00239137
-0.000114455
0.00235117
-0.000159328
0.00230118
-0.000199576
0.00224265
-0.000234907
0.00217688
-0.000265086
0.00210519
-0.000289966
0.00202891
-0.000309493
0.00194936
-0.000323716
0.00186781
-0.00033278
0.00178548
-0.000336922
0.00170349
-0.000336467
0.00162284
-0.000331806
0.00154446
-0.000323393
0.0014691
-0.000311722
0.00139742
-0.000297315
0.00132993
-0.000280707
0.00126699
-0.000262432
0.00120887
-0.000243009
0.00115569
-0.000222928
0.00110748
-0.000202644
0.00106415
-0.000182564
0.00102555
-0.000163042
0.000991444
-0.000144376
0.000961548
-0.000126802
0.000935538
-0.000110499
0.000913063
-9.55864e-05
0.000893757
-8.21307e-05
0.000877255
-7.01502e-05
0.000863199
-5.96208e-05
0.000851246
-5.04834e-05
0.000841077
-4.26505e-05
0.000832403
-3.60143e-05
0.000824963
-3.04536e-05
0.00081853
-2.58435e-05
0.000812908
-2.20635e-05
0.000807939
-1.89727e-05
0.000803491
-1.64391e-05
0.000799458
-1.43673e-05
0.000795759
-1.26668e-05
0.000792328
-1.12605e-05
0.000789117
-1.00867e-05
0.000786086
-9.09934e-06
0.000783201
-8.26711e-06
0.000780433
-7.57206e-06
0.000777749
-7.00802e-06
0.000775119
-6.579e-06
0.000772503
-6.29777e-06
0.00076986
-6.18429e-06
0.000767139
-6.2644e-06
0.00076428
-6.56866e-06
0.000761216
-7.13186e-06
0.000757871
-7.99198e-06
0.000754157
-9.19261e-06
0.000749976
-1.07802e-05
0.000745217
-1.28087e-05
0.000739755
-1.53406e-05
0.000733448
-1.84499e-05
0.000726135
-2.22266e-05
0.000717628
-2.67827e-05
0.000707707
-3.22587e-05
0.000696113
-3.8839e-05
0.000682533
-4.67577e-05
0.000666581
-5.63446e-05
0.000647781
-6.80175e-05
0.000625525
-8.23849e-05
0.000599049
-0.000100257
0.000567316
-0.00012278
0.000529047
-0.000151746
0.0004824
-0.000188596
0.00042513
-0.000239286
0.000354985
-0.000298452
0.000267493
-0.000387101
0.000169373
-0.000447091
5.73184e-05
-0.000509243
-0.000325906
-0.000986439
0.000972443
-0.000697511
0.000891732
-0.000453811
0.000734647
-0.000199329
0.000776235
3.02001e-05
0.000692764
0.000263239
0.000701788
0.000486384
0.000671592
0.000705565
0.000659268
0.000917588
0.000637671
0.00112163
0.000613682
0.00131575
0.000584275
0.00149818
0.000549665
0.00166728
0.000510248
0.00182171
0.000466795
0.00196048
0.000420293
0.00208297
0.000371736
0.00218882
0.000322024
0.00227797
0.000271917
0.00235052
0.000222037
0.00240676
0.000172882
0.00244708
0.000124892
0.00247204
7.84235e-05
0.00248226
3.38893e-05
0.00247848
-8.57063e-06
0.00246158
-4.84819e-05
0.00243251
-8.53879e-05
0.00239236
-0.000119179
0.00234229
-0.000149505
0.00228353
-0.000176153
0.00221739
-0.000198941
0.00214518
-0.000217757
0.00206824
-0.000232558
0.00198791
-0.000243377
0.00190545
-0.000250319
0.00182208
-0.000253561
0.00173896
-0.00025334
0.0016571
-0.000249949
0.00157743
-0.000243726
0.00150075
-0.000235039
0.00142772
-0.00022428
0.00135886
-0.00021185
0.00129458
-0.000198149
0.00123514
-0.000183568
0.00118068
-0.000168476
0.00113126
-0.000153215
0.00108679
-0.000138094
0.00104712
-0.000123379
0.00101204
-0.000109297
0.000981268
-9.60274e-05
0.000954475
-8.37063e-05
0.000931315
-7.24258e-05
0.000911421
-6.22375e-05
0.000894428
-5.31564e-05
0.000879973
-4.51659e-05
0.000867712
-3.82226e-05
0.000857323
-3.22615e-05
0.000848511
-2.72024e-05
0.000841012
-2.29547e-05
0.000834594
-1.94252e-05
0.000829055
-1.65243e-05
0.000824231
-1.41491e-05
0.000819985
-1.21934e-05
0.000816208
-1.05896e-05
0.000812811
-9.26962e-06
0.000809725
-8.17509e-06
0.000806897
-7.259e-06
0.000804284
-6.48612e-06
0.000801849
-5.8322e-06
0.00079956
-5.28298e-06
0.000797385
-4.83305e-06
0.000795291
-4.48472e-06
0.00079324
-4.2469e-06
0.00079119
-4.13402e-06
0.000789091
-4.16509e-06
0.000786885
-4.36276e-06
0.000784506
-4.753e-06
0.000781878
-5.3643e-06
0.000778915
-6.2294e-06
0.000775518
-7.38345e-06
0.000771577
-8.86722e-06
0.000766964
-1.0728e-05
0.000761536
-1.3022e-05
0.000755127
-1.58174e-05
0.000747543
-1.9199e-05
0.000738558
-2.32735e-05
0.0007279
-2.81806e-05
0.00071524
-3.40981e-05
0.000700171
-4.12758e-05
0.000682187
-5.00333e-05
0.000660633
-6.08307e-05
0.000634675
-7.42996e-05
0.000603183
-9.12882e-05
0.000564692
-0.000113255
0.000517213
-0.000141116
0.000457887
-0.000179959
0.000384426
-0.000224991
0.000291011
-0.000293686
0.000185036
-0.000341116
6.57765e-05
-0.000389983
-0.00026013
-0.000977933
0.000652875
-0.000683621
0.00059742
-0.000439029
0.000490055
-0.000181728
0.000518934
4.88316e-05
0.000462205
0.000282506
0.000468114
0.000506207
0.000447891
0.000725849
0.000439627
0.000938297
0.000425223
0.00114274
0.000409241
0.00133732
0.000389696
0.00152029
0.000366695
0.00169003
0.000340505
0.0018452
0.000311623
0.0019848
0.000280697
0.00210815
0.000248383
0.00221489
0.000215279
0.00230492
0.000181892
0.00237832
0.00014864
0.00243534
0.000115858
0.00247639
8.38417e-05
0.00250198
5.2829e-05
0.00251277
2.31076e-05
0.00250946
-5.26588e-06
0.0024929
-3.19245e-05
0.0024641
-5.65829e-05
0.0024241
-7.91809e-05
0.00237407
-9.94728e-05
0.00231523
-0.000117318
0.00224889
-0.000132594
0.00217636
-0.000145225
0.00209898
-0.00015518
0.00201808
-0.00016248
0.00193495
-0.000167191
0.00185082
-0.000169431
0.00176684
-0.000169355
0.00168405
-0.000167158
0.00160338
-0.000163063
0.00152566
-0.000157316
0.00145156
-0.000150176
0.00138162
-0.000141911
0.00131625
-0.000132787
0.00125575
-0.000123066
0.00120027
-0.000112994
0.00114986
-0.0001028
0.00110445
-9.26913e-05
0.00106392
-8.28466e-05
0.00102804
-7.34178e-05
0.00099654
-6.45265e-05
0.000969098
-5.62644e-05
0.000945367
-4.86941e-05
0.00092498
-4.18512e-05
0.000907571
-3.57467e-05
0.000892775
-3.03701e-05
0.000880245
-2.56933e-05
0.000869657
-2.16733e-05
0.000860712
-1.82571e-05
0.000853142
-1.53845e-05
0.00084671
-1.29937e-05
0.000841211
-1.10249e-05
0.000836475
-9.41299e-06
0.000832361
-8.07986e-06
0.000828756
-6.98452e-06
0.000825568
-6.08155e-06
0.000822725
-5.33151e-06
0.000820168
-4.70264e-06
0.000817853
-4.17102e-06
0.000815741
-3.72004e-06
0.000813798
-3.33978e-06
0.000811991
-3.0262e-06
0.000810287
-2.78046e-06
0.000808648
-2.60814e-06
0.000807032
-2.51857e-06
0.000805392
-2.52416e-06
0.000803669
-2.63984e-06
0.000801798
-2.88281e-06
0.000799706
-3.27197e-06
0.000797306
-3.82914e-06
0.0007945
-4.57782e-06
0.000791178
-5.54525e-06
0.000787213
-6.76307e-06
0.00078246
-8.26888e-06
0.000776751
-1.01082e-05
0.00076989
-1.23379e-05
0.000761646
-1.50292e-05
0.00075174
-1.82753e-05
0.000739837
-2.21952e-05
0.000725517
-2.69553e-05
0.000708255
-3.27708e-05
0.00068737
-3.99466e-05
0.000661986
-4.89154e-05
0.000630924
-6.02255e-05
0.000592583
-7.49141e-05
0.000544926
-9.34598e-05
0.000484605
-0.000119638
0.000409394
-0.00014978
0.000312302
-0.000196595
0.000200791
-0.000229604
7.51336e-05
-0.000264326
-0.000184996
-0.000971873
0.000327761
-0.000673986
0.000299534
-0.000428984
0.000245054
-0.000169886
0.000259836
6.11705e-05
0.000231148
0.000295205
0.000234079
0.000519163
0.000223933
0.000738999
0.000219791
0.00095163
0.000212592
0.00115626
0.000204615
0.00135108
0.000194873
0.00153437
0.000183406
0.00170452
0.000170351
0.0018602
0.000155949
0.00200037
0.000140522
0.00212436
0.000124395
0.00223177
0.000107866
0.00232248
9.11889e-05
0.00239654
7.45726e-05
0.00245422
5.81858e-05
0.00249588
4.2177e-05
0.00252205
2.66646e-05
0.00253335
1.18031e-05
0.00253047
-2.39002e-06
0.00251433
-1.57754e-05
0.00248583
-2.80873e-05
0.00244607
-3.94182e-05
0.00239619
-4.95913e-05
0.00233741
-5.85443e-05
0.00227103
-6.62154e-05
0.00219837
-7.25655e-05
0.00212077
-7.75789e-05
0.00203956
-8.12646e-05
0.00195602
-8.3656e-05
0.0018714
-8.48099e-05
0.00178685
-8.48042e-05
0.00170343
-8.37349e-05
0.00162208
-8.17131e-05
0.00154362
-7.88613e-05
0.00146875
-7.53092e-05
0.00139803
-7.119e-05
0.00133188
-6.66374e-05
0.0012706
-6.17815e-05
0.00121435
-5.67461e-05
0.0011632
-5.1646e-05
0.00111709
-4.65844e-05
0.0010759
-4.16519e-05
0.0010394
-3.69247e-05
0.00100734
-3.24641e-05
0.000979393
-2.83163e-05
0.000955212
-2.45134e-05
0.000934434
-2.10735e-05
0.00091669
-1.80026e-05
0.000901616
-1.52958e-05
0.000888862
-1.29393e-05
0.000878101
-1.09121e-05
0.000869031
-9.18758e-06
0.000861382
-7.73591e-06
0.000854915
-6.52606e-06
0.00084942
-5.52974e-06
0.000844721
-4.71431e-06
0.000840677
-4.03618e-06
0.000837172
-3.47899e-06
0.000834109
-3.01932e-06
0.000831415
-2.63723e-06
0.000829029
-2.31659e-06
0.000826903
-2.04524e-06
0.000824998
-1.81468e-06
0.000823278
-1.61978e-06
0.00082171
-1.45833e-06
0.00082026
-1.33076e-06
0.000818892
-1.23971e-06
0.000817563
-1.18974e-06
0.000816226
-1.18698e-06
0.000814825
-1.2388e-06
0.000813296
-1.35376e-06
0.000811565
-1.54124e-06
0.000809548
-1.81208e-06
0.000807148
-2.17798e-06
0.000804256
-2.65252e-06
0.000800744
-3.25145e-06
0.000796469
-3.9935e-06
0.000791262
-4.90137e-06
0.000784927
-6.00329e-06
0.000777233
-7.33468e-06
0.000767899
-8.94186e-06
0.000756588
-1.08841e-05
0.000742876
-1.32433e-05
0.000726233
-1.61279e-05
0.000705972
-1.96857e-05
0.000681197
-2.414e-05
0.000650716
-2.97446e-05
0.000612863
-3.70614e-05
0.000565643
-4.62398e-05
0.000505323
-5.93184e-05
0.000429845
-7.43016e-05
0.000331228
-9.79773e-05
0.000216622
-0.000114999
8.60111e-05
-0.000133715
-9.8985e-05
-0.000968844
-6.54266e-13
-0.000669311
-7.63731e-12
-0.000424257
-1.25493e-11
-0.000164421
-1.87299e-11
6.67264e-05
-2.3968e-11
0.000300806
-2.77918e-11
0.000524739
-3.2177e-11
0.00074453
-3.58087e-11
0.000957121
-3.99187e-11
0.00116174
-4.21527e-11
0.00135661
-4.25849e-11
0.00154001
-4.60263e-11
0.00171037
-4.90649e-11
0.00186632
-5.17051e-11
0.00200684
-5.3341e-11
0.00213123
-5.53759e-11
0.0022391
-5.6926e-11
0.00233029
-5.88901e-11
0.00240486
-6.06179e-11
0.00246305
-6.33134e-11
0.00250522
-6.61526e-11
0.00253189
-6.96148e-11
0.00254369
-7.3754e-11
0.0025413
-8.05575e-11
0.00252553
-8.46254e-11
0.00249744
-8.95401e-11
0.00245802
-9.55282e-11
0.00240843
-1.01576e-10
0.00234989
-1.07834e-10
0.00228367
-1.13846e-10
0.0022111
-1.19175e-10
0.00213353
-1.23983e-10
0.00205226
-1.28472e-10
0.00196861
-1.31657e-10
0.0018838
-1.33262e-10
0.00179899
-1.34122e-10
0.00171526
-1.33604e-10
0.00163354
-1.31517e-10
0.00155468
-1.27666e-10
0.00147937
-1.22127e-10
0.00140818
-1.14912e-10
0.00134155
-1.05923e-10
0.00127976
-9.5136e-11
0.00122302
-8.26306e-11
0.00117137
-6.84513e-11
0.00112479
-5.27267e-11
0.00108314
-3.54747e-11
0.00104621
-1.67459e-11
0.00101375
3.27783e-12
0.000985431
2.42747e-11
0.000960918
4.61159e-11
0.000939844
6.84685e-11
0.000921842
9.11029e-11
0.000906546
1.13632e-10
0.000893606
1.35476e-10
0.000882694
1.56061e-10
0.000873506
1.74861e-10
0.00086577
1.91292e-10
0.000859244
2.04846e-10
0.000853714
2.14932e-10
0.000849
2.21421e-10
0.000844963
2.23969e-10
0.000841484
2.22162e-10
0.000838464
2.1594e-10
0.000835827
2.05358e-10
0.00083351
1.90604e-10
0.000831465
1.71915e-10
0.00082965
1.49396e-10
0.00082803
1.23971e-10
0.000826572
9.6026e-11
0.000825241
6.64064e-11
0.000824001
3.59667e-11
0.000822811
5.56001e-12
0.000821624
-2.39175e-11
0.000820386
-5.16634e-11
0.000819032
-7.67751e-11
0.000817491
-9.85305e-11
0.000815679
-1.16337e-10
0.000813501
-1.29749e-10
0.000810849
-1.38489e-10
0.000807597
-1.42476e-10
0.000803604
-1.41811e-10
0.000798703
-1.3675e-10
0.000792699
-1.27725e-10
0.000785365
-1.15332e-10
0.000776423
-1.00274e-10
0.000765539
-8.33346e-11
0.000752296
-6.53472e-11
0.000736168
-4.71178e-11
0.000716482
-2.94954e-11
0.000692342
-1.30637e-11
0.000662598
1.29843e-12
0.000625537
1.33766e-11
0.000579297
2.24274e-11
0.000519978
2.93011e-11
0.000445677
3.2858e-11
0.000347699
3.46159e-11
0.0002327
3.50749e-11
9.89851e-05
3.28034e-11
2.51852e-11
-0.000672396
0.00956635
-0.00944097
-0.000798013
0.00955158
-0.00942597
-0.00092435
0.00952804
-0.00940171
-0.00105197
0.00950637
-0.00937875
-0.00118123
0.0094882
-0.00935893
-0.00131244
0.00947446
-0.00934325
-0.00144604
0.00946582
-0.00933223
-0.00158248
0.0094628
-0.00932636
-0.00172247
0.00946621
-0.00932622
-0.00186703
0.00947784
-0.00933328
-0.00201807
0.00950111
-0.00935007
-0.00217805
0.00954345
-0.00938347
-0.00235104
0.0096131
-0.00944011
-0.00253891
0.00972096
-0.00953309
-0.00273635
0.00985605
-0.00965861
-0.00290415
0.00997006
-0.00980226
-0.00293606
0.00985598
-0.00982407
-0.00257653
0.00906764
-0.00942716
-0.00150843
0.00661534
-0.00768344
0.00216156
-0.00366999
-0.000679907
0.00969122
-0.000805285
0.00967696
-0.000931458
0.00965422
-0.00105898
0.00963389
-0.00118807
0.00961729
-0.00131911
0.0096055
-0.00145244
0.00959916
-0.00158853
0.00959889
-0.00172802
0.0096057
-0.00187199
0.0096218
-0.00202227
0.00965139
-0.00218147
0.00970266
-0.0023525
0.00978413
-0.00253405
0.00990251
-0.00271063
0.0100326
-0.00282269
0.0100821
-0.00273258
0.00976587
-0.00220152
0.00853658
-0.00107162
0.00548544
0.00108994
-0.000687135
0.00981563
-0.000812166
0.00980199
-0.00093813
0.00978018
-0.00106545
0.00976121
-0.00119435
0.00974619
-0.00132517
0.00973631
-0.00145823
0.00973222
-0.00159398
0.00973464
-0.00173306
0.00974478
-0.00187657
0.00976531
-0.00202637
0.00980119
-0.00218483
0.00986111
-0.00235332
0.00995262
-0.00252565
0.0100748
-0.00267437
0.0101814
-0.00272034
0.0101281
-0.00250815
0.00955367
-0.00183666
0.00786509
-0.000695012
0.0043438
0.000394924
-0.000694044
0.00993958
-0.000818686
0.00992663
-0.000944364
0.00990586
-0.00107141
0.00988826
-0.00120004
0.00987482
-0.00133057
0.00986684
-0.00146329
0.00986495
-0.00159864
0.00986998
-0.00173725
0.00988339
-0.00188025
0.00990831
-0.00202943
0.00995037
-0.0021866
0.0100183
-0.00235099
0.010117
-0.00251022
0.0102341
-0.002624
0.0102951
-0.00259699
0.0101011
-0.00226775
0.00922444
-0.00147989
0.00707722
-0.000428976
0.00329289
-3.4052e-05
-0.000700613
0.010063
-0.000824843
0.0100509
-0.000950174
0.0100312
-0.00107688
0.010015
-0.00120518
0.0100031
-0.00133532
0.00999699
-0.00146761
0.00999724
-0.00160243
0.0100048
-0.00174044
0.0100214
-0.00188277
0.0100506
-0.00203103
0.0100986
-0.00218612
0.0101734
-0.00234424
0.0102751
-0.00248573
0.0103756
-0.00255732
0.0103667
-0.00245251
0.00999627
-0.00201861
0.00879054
-0.00115562
0.00621423
-0.000243686
0.00238096
-0.000277738
-0.000706844
0.010186
-0.000830644
0.0101747
-0.000955592
0.0101561
-0.00108192
0.0101413
-0.00120982
0.010131
-0.00133952
0.0101267
-0.00147128
0.010129
-0.00160546
0.010139
-0.00174271
0.0101587
-0.00188409
0.010192
-0.00203081
0.0102454
-0.00218241
0.010325
-0.00233138
0.0104241
-0.00245045
0.0104946
-0.00247476
0.010391
-0.0022913
0.00981281
-0.00176989
0.00826912
-0.000879869
0.00532421
-0.000126013
0.0016271
-0.000403751
-0.000712711
0.0103083
-0.000836058
0.010298
-0.00096058
0.0102807
-0.00108648
0.0102672
-0.00121392
0.0102584
-0.0013431
0.0102559
-0.00147423
0.0102601
-0.00160768
0.0102724
-0.00174407
0.010295
-0.00188438
0.0103323
-0.00202938
0.0103904
-0.00217694
0.0104725
-0.00231505
0.0105622
-0.00240813
0.0105877
-0.0023812
0.0103641
-0.00212016
0.00955178
-0.00152533
0.00767429
-0.000659687
0.00445856
-6.2453e-05
0.00102987
-0.000466204
-0.000718266
0.0104301
-0.000841166
0.0104209
-0.000965256
0.0104047
-0.00109073
0.0103927
-0.0012177
0.0103854
-0.00134633
0.0103845
-0.00147682
0.0103906
-0.0016095
0.0104051
-0.00174492
0.0104305
-0.00188384
0.0104712
-0.00202612
0.0105327
-0.00216721
0.0106136
-0.00229008
0.0106851
-0.00235198
0.0106496
-0.00227243
0.0102846
-0.00194235
0.0092217
-0.0012961
0.00702805
-0.000494725
0.00365718
-3.80655e-05
0.000573208
-0.000504269
-0.00072335
0.0105512
-0.000845797
0.0105434
-0.000969344
0.0105283
-0.0010943
0.0105176
-0.00122067
0.0105118
-0.00134863
0.0105125
-0.00147833
0.0105203
-0.00161008
0.0105369
-0.00174442
0.0105648
-0.00188192
0.0106087
-0.0020218
0.0106725
-0.00215739
0.0107492
-0.00226682
0.0107945
-0.00229945
0.0106822
-0.00216777