/*--------------------------------*- C++ -*----------------------------------*\
  =========                 |
  \\      /  F ield         | OpenFOAM: The Open Source CFD Toolbox
   \\    /   O peration     | Website:  https://openfoam.org
    \\  /    A nd           | Version:  7
     \\/     M anipulation  |
\*---------------------------------------------------------------------------*/
FoamFile
{
    version     2.0;
    format      ascii;
    class       volVectorField;
    location    "36";
    object      U;
}
// * * * * * * * * * * * * * * * * * * * * * * * * * * * * * * * * * * * * * //

dimensions      [0 1 -1 0 0 0 0];

internalField   nonuniform List<vector> 
8000
(
(0.364413 -0.238659 3.59727e-18)
(0.24594 -0.224663 -7.75431e-19)
(0.217255 -0.195201 2.34726e-18)
(0.134018 -0.201352 -1.91792e-18)
(0.0855597 -0.185179 1.4745e-18)
(0.0179503 -0.187136 6.94738e-19)
(-0.0373376 -0.180287 3.74925e-18)
(-0.0985056 -0.177339 1.79567e-18)
(-0.155014 -0.171744 2.76638e-18)
(-0.211009 -0.165397 3.55214e-18)
(-0.264254 -0.157314 -1.22742e-17)
(-0.314505 -0.14771 -6.24708e-18)
(-0.361142 -0.136735 -6.17003e-17)
(-0.403777 -0.124677 -2.06811e-17)
(-0.442158 -0.111856 1.04661e-17)
(-0.47616 -0.0985681 6.8225e-18)
(-0.505752 -0.0850597 6.83099e-17)
(-0.530965 -0.0715239 -8.71245e-18)
(-0.551864 -0.0581093 1.50713e-17)
(-0.568542 -0.0449323 1.12517e-17)
(-0.581109 -0.0320933 2.43048e-17)
(-0.589692 -0.0196823 3.57764e-17)
(-0.594448 -0.00779055 2.03421e-17)
(-0.595557 0.0034761 -5.40797e-18)
(-0.593201 0.0140673 -4.7743e-18)
(-0.587604 0.0238699 2.07662e-17)
(-0.579062 0.0327934 -8.17282e-18)
(-0.567853 0.0407606 3.00161e-17)
(-0.554289 0.0477107 7.68504e-18)
(-0.538704 0.0535976 -4.93126e-18)
(-0.521446 0.0583941 1.14355e-17)
(-0.502866 0.0620938 -6.38917e-18)
(-0.483315 0.0647122 5.25707e-17)
(-0.463131 0.0662857 -6.46788e-18)
(-0.442638 0.0668704 -4.00838e-17)
(-0.422137 0.0665391 -4.74341e-18)
(-0.4019 0.065379 -3.79594e-18)
(-0.382168 0.0634879 4.15782e-17)
(-0.363149 0.0609709 1.62045e-17)
(-0.345014 0.0579376 4.7898e-17)
(-0.327902 0.0544979 1.34827e-17)
(-0.311914 0.0507606 5.82502e-18)
(-0.29712 0.0468298 4.13902e-17)
(-0.283556 0.0428027 -3.67128e-18)
(-0.271232 0.0387681 1.15373e-19)
(-0.260132 0.0348044 3.46307e-18)
(-0.250216 0.0309793 -3.18237e-17)
(-0.241429 0.0273482 -4.72845e-18)
(-0.233697 0.023955 1.01144e-18)
(-0.226935 0.0208317 4.02771e-18)
(-0.221051 0.0179989 4.43514e-18)
(-0.215945 0.0154672 -4.54651e-18)
(-0.211515 0.0132376 -7.3561e-18)
(-0.207663 0.0113028 -1.38449e-17)
(-0.204289 0.0096488 -8.48817e-18)
(-0.201304 0.00825561 3.51622e-20)
(-0.198624 0.00709912 -9.19477e-18)
(-0.196176 0.00615243 8.83878e-19)
(-0.193897 0.00538731 -5.13653e-18)
(-0.191735 0.00477626 3.00545e-18)
(-0.18965 0.00429332 2.92942e-17)
(-0.187607 0.0039137 7.14481e-18)
(-0.185584 0.00361555 3.24896e-17)
(-0.183564 0.00338037 1.24219e-18)
(-0.181536 0.0031933 2.42163e-18)
(-0.179493 0.00304319 1.84316e-17)
(-0.177429 0.00292245 9.72021e-18)
(-0.175341 0.00282665 3.78205e-17)
(-0.173225 0.00275414 9.8687e-18)
(-0.171075 0.00270565 2.74031e-18)
(-0.168885 0.00268379 3.39935e-17)
(-0.166647 0.00269266 1.88274e-17)
(-0.164349 0.00273748 4.46031e-17)
(-0.161979 0.00282422 7.63758e-18)
(-0.15952 0.00295942 1.06707e-17)
(-0.156956 0.00314998 -1.07229e-17)
(-0.154268 0.00340311 -9.36608e-18)
(-0.151435 0.00372689 1.93044e-17)
(-0.148436 0.00412911 3.20709e-17)
(-0.145248 0.00461908 3.63647e-18)
(-0.141849 0.00520724 2.68703e-17)
(-0.138215 0.00590583 1.06646e-17)
(-0.134323 0.00672958 3.32133e-17)
(-0.130149 0.00769673 -1.74933e-17)
(-0.12567 0.00883005 2.33169e-17)
(-0.120863 0.0101588 2.5774e-17)
(-0.115707 0.0117197 3.38558e-17)
(-0.110186 0.0135643 -1.15721e-17)
(-0.104285 0.0157526 2.20589e-17)
(-0.0980149 0.0183735 -2.33389e-17)
(-0.0913785 0.0215306 -5.84694e-18)
(-0.0844822 0.0253912 -6.49373e-18)
(-0.0773272 0.030111 -1.12658e-18)
(-0.0704623 0.0360054 -9.08611e-19)
(-0.0633595 0.0432834 4.81958e-20)
(-0.0589855 0.0519308 1.05563e-17)
(-0.0525835 0.0631939 1.25679e-18)
(-0.0559469 0.0709531 -5.07325e-17)
(-0.0469896 0.0838086 -1.26057e-17)
(-0.0369812 0.0507715 -7.126e-17)
(0.365052 -0.218313 5.73344e-18)
(0.238535 -0.204603 -2.83895e-19)
(0.210753 -0.175974 1.42652e-18)
(0.123542 -0.182309 -9.07771e-19)
(0.074786 -0.166595 1.81366e-18)
(0.00512495 -0.168623 2.7923e-19)
(-0.0506888 -0.16217 4.96755e-19)
(-0.113032 -0.159475 1.02396e-18)
(-0.170305 -0.1544 1.39527e-18)
(-0.227153 -0.148697 1.99572e-18)
(-0.281183 -0.14147 -6.24261e-18)
(-0.33225 -0.132899 -1.48891e-17)
(-0.379718 -0.123103 -5.78075e-17)
(-0.42319 -0.112326 -2.40409e-17)
(-0.462391 -0.100847 2.64575e-17)
(-0.49717 -0.0889276 1.71989e-17)
(-0.52747 -0.0767912 3.93109e-17)
(-0.553303 -0.0646151 -2.53129e-18)
(-0.574724 -0.0525378 4.57986e-17)
(-0.591819 -0.0406686 1.31614e-17)
(-0.604698 -0.0291016 -4.05894e-18)
(-0.613492 -0.0179203 7.93447e-17)
(-0.618359 -0.00720886 8.13556e-17)
(-0.619481 0.00294438 -1.20089e-17)
(-0.617061 0.0125176 -6.93568e-18)
(-0.611323 0.0213524 3.33368e-17)
(-0.602556 0.029398 -2.60924e-17)
(-0.591053 0.0365894 5.4603e-17)
(-0.57713 0.0428709 -6.80189e-18)
(-0.561128 0.0482011 -1.76314e-17)
(-0.543397 0.0525552 1.45232e-17)
(-0.524295 0.0559266 -1.62211e-17)
(-0.504176 0.0583282 1.68125e-17)
(-0.483388 0.0597914 -4.18132e-17)
(-0.462261 0.0603649 -7.10455e-18)
(-0.441101 0.0601128 -1.7661e-18)
(-0.420189 0.0591118 -7.66871e-18)
(-0.399774 0.0574485 1.37952e-17)
(-0.380072 0.0552164 2.10396e-17)
(-0.361262 0.0525128 2.30165e-17)
(-0.343488 0.0494365 9.25957e-18)
(-0.326859 0.0460849 3.62734e-18)
(-0.311449 0.0425517 1.97054e-17)
(-0.297301 0.0389249 -2.38056e-17)
(-0.284429 0.0352846 -4.86547e-18)
(-0.272819 0.0317022 4.85341e-19)
(-0.262434 0.0282393 -1.43735e-17)
(-0.25322 0.0249466 -3.99412e-18)
(-0.245105 0.0218642 1.05281e-19)
(-0.238006 0.0190215 3.92818e-18)
(-0.231829 0.0164377 3.19517e-18)
(-0.226478 0.0141226 9.94803e-18)
(-0.221851 0.0120778 -1.03117e-17)
(-0.217848 0.0102971 -2.27051e-18)
(-0.214373 0.00876836 -1.51389e-17)
(-0.211335 0.00747421 -2.53165e-18)
(-0.208649 0.0063935 -2.56423e-17)
(-0.20624 0.00550261 -2.27282e-18)
(-0.204044 0.00477666 -1.50407e-17)
(-0.202006 0.0041921 1.53193e-18)
(-0.200081 0.00372673 7.73542e-18)
(-0.198233 0.00335686 2.37839e-18)
(-0.196436 0.00306304 1.44589e-17)
(-0.19467 0.00282866 -1.13535e-17)
(-0.192921 0.00264016 -1.34329e-18)
(-0.191178 0.00248721 3.22862e-17)
(-0.189434 0.00236254 8.23075e-18)
(-0.187685 0.00226172 1.74546e-17)
(-0.185924 0.00218275 6.61493e-18)
(-0.184147 0.00212579 2.29464e-18)
(-0.182346 0.00209274 1.55833e-17)
(-0.180513 0.0020869 3.26736e-17)
(-0.178637 0.00211266 3.70468e-17)
(-0.176706 0.00217519 6.68356e-18)
(-0.174704 0.00228027 2.10386e-17)
(-0.172615 0.00243415 -2.60946e-17)
(-0.170419 0.00264341 -2.06571e-17)
(-0.168097 0.0029155 4.39102e-17)
(-0.165625 0.00325786 7.03378e-18)
(-0.162981 0.00367922 -2.1487e-19)
(-0.160139 0.00418953 -1.42589e-18)
(-0.157073 0.00480046 1.56286e-17)
(-0.153755 0.00552611 1.10137e-17)
(-0.150157 0.00638398 -4.46002e-17)
(-0.146249 0.00739597 -7.99328e-18)
(-0.141999 0.00859039 -1.24123e-17)
(-0.137372 0.010003 8.01654e-18)
(-0.132339 0.0116841 -3.20695e-17)
(-0.126859 0.0136938 -1.00474e-17)
(-0.120917 0.0161211 -5.42509e-17)
(-0.114468 0.0190735 -8.80143e-18)
(-0.10757 0.0227219 -1.17799e-17)
(-0.100114 0.0272501 -3.26968e-18)
(-0.0925729 0.0329537 -2.43753e-19)
(-0.0841789 0.0402103 -1.39344e-19)
(-0.0776051 0.0487873 2.33384e-17)
(-0.0680263 0.06056 1.82614e-18)
(-0.0651635 0.0682667 -4.07322e-17)
(-0.0500482 0.0803037 -1.22095e-17)
(-0.0252689 0.0465454 -3.33181e-17)
(0.365688 -0.19672 3.0312e-18)
(0.231111 -0.183446 7.02013e-19)
(0.204498 -0.156343 1.18894e-18)
(0.113492 -0.162593 -2.75992e-19)
(0.0645618 -0.14772 3.6096e-18)
(-0.00696823 -0.149723 3.04102e-19)
(-0.0631834 -0.143757 1.94312e-18)
(-0.126544 -0.141317 5.75532e-19)
(-0.184458 -0.136803 2.56387e-19)
(-0.242016 -0.131742 1.20826e-18)
(-0.2967 -0.125377 -3.62663e-18)
(-0.348448 -0.117838 9.79415e-18)
(-0.396613 -0.109223 -3.52105e-17)
(-0.440794 -0.0997345 -2.20532e-17)
(-0.480697 -0.0896119 7.7985e-19)
(-0.516146 -0.0790827 3.96056e-17)
(-0.547065 -0.068344 2.28219e-17)
(-0.573446 -0.0575557 -2.35977e-18)
(-0.595332 -0.0468434 1.30016e-17)
(-0.612803 -0.0363074 3.95492e-18)
(-0.625967 -0.0260336 -2.49755e-17)
(-0.634957 -0.0160974 9.17276e-17)
(-0.639932 -0.00657261 5.36438e-17)
(-0.641078 0.00245945 4.90447e-17)
(-0.638609 0.0109624 -1.39667e-18)
(-0.632752 0.0188278 6.54633e-17)
(-0.623795 0.0259975 -6.29333e-17)
(-0.612037 0.0324114 1.98069e-17)
(-0.597802 0.0380208 -4.93706e-17)
(-0.581431 0.0427887 -3.63759e-17)
(-0.563281 0.0466926 2.84438e-17)
(-0.543713 0.049726 -3.58309e-17)
(-0.523086 0.0518991 -3.69134e-18)
(-0.501754 0.0532389 -2.35653e-17)
(-0.480051 0.0537875 2.93284e-17)
(-0.458291 0.0536004 -1.06664e-18)
(-0.436763 0.0527448 -1.40007e-17)
(-0.415721 0.0512967 5.18299e-18)
(-0.395389 0.0493383 3.41358e-17)
(-0.375954 0.0469557 1.27687e-17)
(-0.357567 0.0442362 4.27086e-18)
(-0.340343 0.0412662 3.00148e-18)
(-0.324362 0.0381293 1.07672e-17)
(-0.309672 0.0349037 -4.43179e-18)
(-0.29629 0.0316612 -6.59697e-18)
(-0.284206 0.0284658 -1.30107e-18)
(-0.273386 0.0253725 -8.5053e-18)
(-0.263777 0.0224271 -1.88165e-18)
(-0.255308 0.0196658 -2.83974e-19)
(-0.247896 0.0171151 7.03518e-18)
(-0.241449 0.0147927 2.7147e-18)
(-0.235869 0.0127077 2.80985e-17)
(-0.231056 0.0108616 -2.13331e-17)
(-0.22691 0.00924951 8.50721e-18)
(-0.223334 0.00786081 -3.29804e-17)
(-0.220236 0.00668051 -3.5765e-18)
(-0.217532 0.00569023 -5.7421e-18)
(-0.215145 0.00486943 -2.59522e-20)
(-0.213008 0.00419652 1.76659e-17)
(-0.211064 0.00365058 4.87232e-18)
(-0.209267 0.00321226 -8.55315e-18)
(-0.207579 0.0028608 -1.53682e-18)
(-0.205969 0.00257903 5.98311e-18)
(-0.204414 0.00235209 -3.3557e-17)
(-0.202899 0.00216778 -3.17653e-18)
(-0.20141 0.00201668 1.38002e-17)
(-0.199939 0.00189203 7.47273e-18)
(-0.198479 0.00178956 9.55274e-18)
(-0.197023 0.00170717 3.75235e-18)
(-0.195565 0.00164468 1.89453e-18)
(-0.194097 0.00160348 8.38431e-18)
(-0.192612 0.00158624 9.38907e-18)
(-0.191098 0.00159666 -6.78004e-18)
(-0.189544 0.00163922 2.75926e-18)
(-0.187934 0.00171899 4.65388e-17)
(-0.186252 0.00184152 -6.50171e-18)
(-0.184479 0.00201277 1.59672e-17)
(-0.182594 0.00223949 4.5233e-17)
(-0.180574 0.00252855 -2.06387e-17)
(-0.178395 0.00288804 -4.01158e-18)
(-0.17603 0.00332717 -3.06548e-17)
(-0.173449 0.00385682 2.95277e-17)
(-0.170622 0.00449016 -3.91453e-18)
(-0.167515 0.00524351 -4.48331e-17)
(-0.164092 0.00613736 -3.56151e-17)
(-0.160312 0.00719831 -5.80533e-17)
(-0.15613 0.00846001 -7.08072e-18)
(-0.1515 0.00996993 -1.61118e-17)
(-0.146361 0.0117858 -3.95367e-17)
(-0.14067 0.0139929 -5.8269e-17)
(-0.134337 0.0166969 -8.92529e-18)
(-0.127372 0.0200624 -2.37085e-17)
(-0.119557 0.0242871 -5.52371e-18)
(-0.11128 0.0296415 -2.54209e-19)
(-0.101552 0.03662 -1.16905e-22)
(-0.0927304 0.0448354 4.74975e-17)
(-0.0800042 0.0564629 4.79494e-18)
(-0.0713336 0.0639132 -6.05219e-17)
(-0.0512221 0.0743151 -1.26023e-17)
(-0.0196545 0.0431023 -2.60771e-17)
(0.366231 -0.173825 7.81485e-19)
(0.223775 -0.161319 3.10468e-18)
(0.198541 -0.136276 1.93802e-18)
(0.103986 -0.142291 -4.51761e-20)
(0.0549887 -0.128572 2.4679e-18)
(-0.0182081 -0.130496 -1.06105e-19)
(-0.0747153 -0.125108 8.30103e-19)
(-0.138939 -0.122961 1.38956e-19)
(-0.197376 -0.119026 -1.72661e-18)
(-0.25551 -0.114626 -1.54731e-19)
(-0.310724 -0.109123 -1.00608e-18)
(-0.363023 -0.102612 1.14625e-19)
(-0.411757 -0.0951706 -3.92445e-17)
(-0.456521 -0.0869659 -2.39102e-17)
(-0.497008 -0.0781987 -1.76573e-17)
(-0.533022 -0.0690637 1.78388e-17)
(-0.564467 -0.0597323 -1.23475e-19)
(-0.591319 -0.0503451 -9.82859e-18)
(-0.613609 -0.0410142 -1.23551e-17)
(-0.631411 -0.0318292 -1.46277e-17)
(-0.644829 -0.0228676 -4.61232e-17)
(-0.653997 -0.0141959 8.50472e-17)
(-0.659076 -0.00588047 3.38411e-17)
(-0.660252 0.00200887 8.54994e-18)
(-0.657747 0.00943105 8.55623e-19)
(-0.651794 0.0163093 1.38905e-17)
(-0.642677 0.0225824 -5.50783e-17)
(-0.630703 0.0281985 1.66645e-17)
(-0.616198 0.0331158 -3.53614e-17)
(-0.599508 0.0373019 -4.9833e-17)
(-0.580991 0.0407367 -2.40831e-17)
(-0.561012 0.0434139 -2.52484e-18)
(-0.539937 0.0453418 -1.36599e-17)
(-0.51812 0.0465429 -1.73934e-17)
(-0.495904 0.047053 8.94255e-18)
(-0.473607 0.0469198 -1.32073e-17)
(-0.451523 0.0462007 -2.81225e-17)
(-0.429916 0.0449613 8.65828e-18)
(-0.409015 0.0432728 1.71574e-18)
(-0.389014 0.0412097 3.10826e-18)
(-0.37007 0.038848 8.50353e-19)
(-0.352304 0.0362631 6.33014e-18)
(-0.335803 0.0335278 9.31175e-18)
(-0.320619 0.0307108 6.50606e-18)
(-0.306773 0.0278749 -1.1221e-17)
(-0.294257 0.0250764 -2.21121e-18)
(-0.283041 0.0223639 -8.7442e-18)
(-0.273072 0.0197778 5.99428e-19)
(-0.264281 0.0173502 1.46245e-18)
(-0.256585 0.0151047 1.44751e-17)
(-0.249892 0.0130571 5.54505e-18)
(-0.244104 0.0112157 8.51225e-18)
(-0.239121 0.00958207 1.87486e-18)
(-0.234842 0.00815221 2.87543e-17)
(-0.23117 0.00691714 -2.16613e-17)
(-0.228012 0.00586401 6.20022e-19)
(-0.225282 0.00497705 1.09402e-17)
(-0.222904 0.00423864 3.80751e-18)
(-0.220809 0.00363029 9.54798e-18)
(-0.218938 0.00313326 6.30781e-18)
(-0.217242 0.00273133 -3.13205e-17)
(-0.215682 0.00240695 -5.28101e-18)
(-0.214223 0.00214509 2.11139e-18)
(-0.212843 0.0019327 -2.6415e-17)
(-0.211522 0.001759 -1.4534e-18)
(-0.210245 0.00161558 7.99959e-18)
(-0.209003 0.00149634 9.29005e-18)
(-0.207786 0.00139732 7.03e-18)
(-0.206586 0.00131641 2.81163e-18)
(-0.205398 0.00125318 1.57231e-18)
(-0.204213 0.00120858 4.81787e-18)
(-0.203023 0.00118471 -8.16043e-18)
(-0.201816 0.0011846 1.88907e-19)
(-0.200581 0.001212 3.0535e-18)
(-0.199304 0.00127124 4.69759e-17)
(-0.197967 0.00136716 -1.85636e-18)
(-0.196552 0.00150497 6.2118e-18)
(-0.195037 0.00169065 1.80902e-17)
(-0.1934 0.00193041 -1.25007e-17)
(-0.191615 0.00223149 -6.35683e-18)
(-0.189652 0.00260226 -2.034e-17)
(-0.187482 0.00305257 1.04603e-17)
(-0.18507 0.0035944 -2.66547e-17)
(-0.182377 0.00424258 -1.48654e-17)
(-0.179363 0.00501579 -1.68945e-17)
(-0.175978 0.00593836 -7.44756e-17)
(-0.172168 0.00704111 -1.47313e-17)
(-0.167872 0.00836754 -9.50192e-18)
(-0.163011 0.00997141 -3.07155e-17)
(-0.157516 0.0119319 -3.23153e-17)
(-0.151254 0.0143495 -3.99107e-18)
(-0.144194 0.0173765 -5.09682e-17)
(-0.136016 0.0212147 -6.42491e-18)
(-0.127023 0.0260953 2.88792e-19)
(-0.116033 0.0325783 -4.39832e-19)
(-0.105082 0.040173 3.98425e-17)
(-0.0894589 0.0511577 4.94199e-18)
(-0.0756706 0.0581697 -5.74262e-17)
(-0.0514643 0.0668844 -1.10833e-17)
(-0.0168323 0.0395875 -4.1074e-17)
(0.366615 -0.14966 -3.70579e-18)
(0.216691 -0.138289 4.76059e-18)
(0.192973 -0.11584 4.99106e-18)
(0.0951826 -0.121446 4.64012e-21)
(0.0462099 -0.109209 2.46648e-18)
(-0.0284374 -0.110943 -1.05847e-18)
(-0.0851444 -0.106244 2.14678e-19)
(-0.15008 -0.10441 3.94565e-20)
(-0.20893 -0.101064 -6.64462e-18)
(-0.267519 -0.0973324 -1.91272e-18)
(-0.32315 -0.0926877 1.62412e-18)
(-0.375881 -0.0871957 -1.81344e-17)
(-0.425064 -0.0809183 -1.98105e-17)
(-0.470295 -0.0739906 -3.43764e-17)
(-0.511253 -0.0665777 -4.10868e-17)
(-0.547729 -0.0588426 1.257e-17)
(-0.579609 -0.0509302 -3.8636e-17)
(-0.606855 -0.0429609 -2.90703e-17)
(-0.629488 -0.0350318 -5.34622e-17)
(-0.647574 -0.0272209 -5.24891e-17)
(-0.661212 -0.0195955 -7.28799e-17)
(-0.670539 -0.0122132 1.68256e-16)
(-0.675713 -0.00513195 -1.79359e-18)
(-0.676923 0.00159139 -4.08936e-17)
(-0.674394 0.00791378 1.51575e-18)
(-0.668363 0.0137808 -3.66193e-17)
(-0.659116 0.0191346 -8.59867e-17)
(-0.646961 0.0239316 4.05285e-17)
(-0.632227 0.0281365 -6.27311e-17)
(-0.615263 0.0317213 -8.79806e-17)
(-0.59643 0.0346686 -6.54757e-17)
(-0.576097 0.0369727 3.09519e-17)
(-0.55463 0.0386397 -3.41096e-17)
(-0.53239 0.0396883 -1.67589e-17)
(-0.509723 0.040148 1.91018e-18)
(-0.486953 0.0400587 -3.72347e-17)
(-0.464381 0.0394687 -5.32372e-17)
(-0.442274 0.0384331 2.47118e-17)
(-0.420869 0.0370119 -2.80184e-17)
(-0.400365 0.0352685 -1.73051e-18)
(-0.380926 0.0332672 -2.42778e-18)
(-0.36268 0.0310721 1.18117e-17)
(-0.345716 0.0287453 1.2522e-17)
(-0.330092 0.0263454 1.76306e-17)
(-0.315833 0.0239262 -2.60348e-17)
(-0.302934 0.0215359 -2.31608e-18)
(-0.291366 0.0192163 -1.47552e-17)
(-0.281078 0.0170023 6.02646e-18)
(-0.272001 0.0149215 3.68835e-18)
(-0.264054 0.0129945 3.07167e-17)
(-0.257143 0.0112349 7.92735e-18)
(-0.251171 0.00965018 -7.05576e-18)
(-0.246036 0.00824199 2.36239e-17)
(-0.241638 0.00700706 6.7727e-17)
(-0.237878 0.00593795 -3.06809e-17)
(-0.234663 0.0050239 9.4984e-18)
(-0.231906 0.00425166 3.58411e-17)
(-0.22953 0.00360641 8.05222e-18)
(-0.227464 0.0030726 6.08986e-18)
(-0.225648 0.00263409 8.8187e-18)
(-0.224031 0.00227758 -7.76011e-17)
(-0.222572 0.00198848 -6.72809e-18)
(-0.221236 0.00175389 6.89528e-19)
(-0.219997 0.00156262 -3.84875e-17)
(-0.218834 0.00140538 4.8909e-18)
(-0.217732 0.00127487 8.00448e-18)
(-0.216677 0.00116575 1.75396e-17)
(-0.215661 0.00107446 7.1446e-18)
(-0.214674 0.000999025 2.96137e-18)
(-0.21371 0.000938887 2.38172e-18)
(-0.21276 0.000894661 3.33664e-18)
(-0.211814 0.000867961 2.41497e-17)
(-0.210863 0.000861208 8.95302e-18)
(-0.209895 0.000877475 6.30368e-18)
(-0.208894 0.000920359 2.37291e-17)
(-0.207844 0.000993935 -8.68072e-18)
(-0.206727 0.00110265 8.00334e-19)
(-0.205522 0.00125163 3.27767e-18)
(-0.204203 0.00144629 -1.79762e-17)
(-0.202746 0.00169293 -1.11437e-17)
(-0.201119 0.00199887 -2.24611e-17)
(-0.199291 0.00237274 2.25601e-18)
(-0.197224 0.00282503 -8.83926e-18)
(-0.194877 0.00336878 1.03004e-17)
(-0.192203 0.00402036 -7.13651e-18)
(-0.189147 0.0048012 -7.84963e-17)
(-0.185644 0.00573849 -1.85994e-17)
(-0.181624 0.0068706 -7.14849e-18)
(-0.17699 0.00824563 -4.32529e-17)
(-0.171651 0.00993405 -2.50838e-17)
(-0.165437 0.0120277 6.54932e-18)
(-0.158279 0.0146612 -4.94376e-17)
(-0.14977 0.0180313 -4.92863e-18)
(-0.14013 0.0223226 2.30541e-18)
(-0.12802 0.0281145 5.95629e-17)
(-0.115166 0.0348614 6.16062e-17)
(-0.0970003 0.0448003 8.08867e-18)
(-0.0788641 0.0512098 -3.60058e-17)
(-0.0512426 0.0584481 -9.6433e-18)
(-0.015266 0.0356044 -2.60279e-17)
(0.366811 -0.124315 -2.12868e-18)
(0.210084 -0.114424 4.8146e-18)
(0.18792 -0.0951216 -2.98402e-19)
(0.0872786 -0.100109 -3.10758e-19)
(0.038411 -0.089699 -3.61019e-18)
(-0.0374581 -0.0910814 -1.71273e-18)
(-0.0943028 -0.0872 -1.22059e-19)
(-0.159797 -0.0856897 3.70964e-20)
(-0.218966 -0.0829445 -7.17789e-19)
(-0.2779 -0.0798877 -4.72592e-18)
(-0.333847 -0.0760978 5.73283e-18)
(-0.386905 -0.071618 -1.33384e-17)
(-0.436432 -0.0664973 -9.65232e-18)
(-0.482023 -0.0608413 -8.55004e-18)
(-0.523351 -0.0547818 -8.74857e-18)
(-0.560193 -0.0484507 2.39933e-17)
(-0.592422 -0.0419663 -3.61969e-17)
(-0.619988 -0.0354282 2.65656e-17)
(-0.642902 -0.0289172 -3.57435e-17)
(-0.661224 -0.0224983 -2.08369e-17)
(-0.675049 -0.0162284 -8.17149e-17)
(-0.684512 -0.0101549 1.86638e-16)
(-0.689771 -0.00432752 -1.55739e-17)
(-0.691016 0.0012099 -4.05509e-18)
(-0.688472 0.00641391 1.39967e-17)
(-0.68238 0.0112513 -2.73854e-17)
(-0.673029 0.0156678 -3.93732e-17)
(-0.660726 0.0196279 7.83599e-18)
(-0.645802 0.0231029 -6.78467e-17)
(-0.628609 0.0260696 -7.13635e-17)
(-0.60951 0.0285131 -1.1695e-17)
(-0.588875 0.0304284 7.45426e-18)
(-0.567075 0.0318201 -4.10484e-18)
(-0.544473 0.0327029 -1.38673e-17)
(-0.52142 0.0331007 -1.95753e-18)
(-0.498245 0.0330456 -1.45165e-17)
(-0.475252 0.0325769 -2.29769e-17)
(-0.452715 0.0317395 -2.24812e-18)
(-0.430876 0.0305825 -1.18875e-17)
(-0.409939 0.0291576 -5.099e-19)
(-0.390074 0.0275179 -3.62236e-18)
(-0.371413 0.0257159 2.86363e-17)
(-0.354051 0.0238029 2.16073e-17)
(-0.338048 0.021827 3.51771e-17)
(-0.323432 0.0198329 -3.35698e-18)
(-0.310203 0.0178605 1.83929e-18)
(-0.298332 0.0159443 -2.92444e-17)
(-0.28777 0.0141135 1.82893e-17)
(-0.278449 0.012391 8.57226e-18)
(-0.270286 0.010794 1.14634e-17)
(-0.26319 0.00933417 7.42365e-18)
(-0.25706 0.00801777 -2.70463e-17)
(-0.251796 0.00684638 1.33562e-17)
(-0.247295 0.00581748 3.72466e-17)
(-0.243459 0.00492509 -2.05808e-17)
(-0.240194 0.00416048 3.2289e-17)
(-0.237411 0.00351287 3.03369e-17)
(-0.235032 0.00297015 1.06315e-17)
(-0.232986 0.00251961 6.80909e-18)
(-0.231211 0.0021479 1.41862e-17)
(-0.229654 0.00184427 -7.05092e-17)
(-0.228274 0.00159727 4.01288e-18)
(-0.227035 0.00139609 -1.50706e-18)
(-0.225908 0.00123139 -2.24203e-17)
(-0.224871 0.00109544 2.25222e-17)
(-0.223908 0.000982116 1.40045e-17)
(-0.223005 0.000886912 3.49105e-17)
(-0.22215 0.000806766 8.50017e-18)
(-0.221336 0.000739932 2.93851e-18)
(-0.220553 0.000685807 6.82657e-18)
(-0.219792 0.000644772 3.11051e-18)
(-0.219046 0.000618037 1.64101e-17)
(-0.218303 0.000607501 1.89074e-17)
(-0.21755 0.000615623 1.30659e-17)
(-0.216774 0.000645316 1.51581e-17)
(-0.215959 0.000699916 -2.72787e-17)
(-0.215085 0.000783087 -3.46837e-18)
(-0.21413 0.000899056 -9.03283e-18)
(-0.213071 0.00105234 -3.68619e-17)
(-0.211881 0.00124821 -1.97592e-17)
(-0.210528 0.00149276 -3.90966e-17)
(-0.208978 0.00179323 -1.76336e-18)
(-0.207193 0.00215842 1.85733e-18)
(-0.205128 0.00259925 -1.50686e-17)
(-0.202731 0.00312948 -5.62114e-18)
(-0.199943 0.00376712 -7.53905e-17)
(-0.196692 0.00453509 -2.04813e-17)
(-0.192897 0.00546567 -5.99245e-18)
(-0.188447 0.0065998 -2.25375e-17)
(-0.183235 0.00799709 -2.61461e-17)
(-0.177057 0.00973737 2.62592e-17)
(-0.169815 0.0119332 -2.15648e-17)
(-0.161024 0.0147658 8.17861e-19)
(-0.150839 0.0183725 6.1712e-18)
(-0.13779 0.0233119 9.15045e-17)
(-0.123319 0.0290287 5.52553e-17)
(-0.103017 0.0375975 5.84178e-18)
(-0.0813005 0.0432227 -4.31071e-17)
(-0.0507874 0.0492012 -9.09693e-18)
(-0.0142397 0.0310289 -3.58322e-17)
(0.366831 -0.0979193 -3.31816e-18)
(0.204237 -0.0898261 3.62267e-18)
(0.183543 -0.0741925 -7.92444e-18)
(0.0805039 -0.078348 -4.85214e-19)
(0.0318145 -0.070021 -6.04269e-18)
(-0.0450372 -0.0710213 -1.07059e-18)
(-0.101999 -0.068012 -1.50629e-19)
(-0.167903 -0.0668348 -3.87128e-20)
(-0.227304 -0.0646993 6.69658e-18)
(-0.286489 -0.0623237 -1.14929e-17)
(-0.342667 -0.0593863 1.56139e-17)
(-0.395962 -0.0559134 -2.14381e-17)
(-0.445742 -0.0519427 -8.18504e-19)
(-0.491601 -0.0475527 1.93815e-17)
(-0.533207 -0.042844 3.31093e-17)
(-0.570329 -0.037918 4.83568e-17)
(-0.602828 -0.0328669 2.54177e-17)
(-0.630645 -0.0277686 2.06662e-17)
(-0.653782 -0.0226869 3.9417e-17)
(-0.672294 -0.0176734 -6.73307e-18)
(-0.686271 -0.0127733 -8.69172e-17)
(-0.695848 -0.00802381 1.51568e-16)
(-0.70118 -0.00346526 -1.82062e-17)
(-0.702458 0.000870155 3.98235e-17)
(-0.699907 0.00493709 2.81657e-17)
(-0.693769 0.00872911 -5.3244e-17)
(-0.684336 0.0121923 -5.04209e-18)
(-0.671916 0.0152996 -1.75965e-17)
(-0.65684 0.0180289 -3.92654e-17)
(-0.639461 0.0203618 -7.7921e-17)
(-0.620143 0.0222864 -3.4342e-17)
(-0.599261 0.0237986 -3.56389e-18)
(-0.577186 0.0249016 1.42658e-17)
(-0.554287 0.0256065 -2.02015e-17)
(-0.530914 0.0259316 -4.89963e-18)
(-0.507403 0.0259016 -6.30105e-18)
(-0.484062 0.0255469 -6.97331e-18)
(-0.461169 0.0249023 -2.12866e-17)
(-0.43897 0.0240062 -2.5205e-18)
(-0.417675 0.0228987 3.52187e-18)
(-0.397458 0.0216213 -6.15149e-18)
(-0.378454 0.0202151 4.29689e-18)
(-0.360763 0.0187201 3.9435e-17)
(-0.344447 0.0171741 9.00233e-18)
(-0.329539 0.0156123 4.20005e-18)
(-0.316038 0.0140659 4.97545e-18)
(-0.303918 0.0125622 -6.3219e-17)
(-0.293132 0.0111241 -6.40655e-18)
(-0.28361 0.00976986 1.47449e-17)
(-0.275272 0.00851319 -2.01493e-18)
(-0.268023 0.00736329 9.20287e-18)
(-0.261766 0.00632527 -6.64381e-17)
(-0.256396 0.00540053 2.12306e-17)
(-0.251812 0.00458721 2.82838e-17)
(-0.247914 0.00388073 -3.30785e-17)
(-0.244606 0.00327436 2.89525e-17)
(-0.241801 0.00275974 3.97048e-17)
(-0.239418 0.00232744 1.34952e-17)
(-0.237386 0.00196758 1.19424e-17)
(-0.235641 0.00166974 2.4346e-17)
(-0.23413 0.00142505 -6.30602e-17)
(-0.23281 0.0012258 -2.07586e-17)
(-0.231644 0.00106317 -5.36597e-18)
(-0.230603 0.000929759 -2.16966e-17)
(-0.229664 0.000819416 5.86805e-18)
(-0.228808 0.000727289 2.7059e-17)
(-0.228022 0.000649762 1.84884e-17)
(-0.227293 0.000584362 5.76983e-18)
(-0.226612 0.000529626 2.89574e-18)
(-0.22597 0.000484985 1.63511e-17)
(-0.225359 0.000450627 3.34668e-18)
(-0.224768 0.000427388 2.05792e-17)
(-0.224187 0.000416639 3.93936e-17)
(-0.223604 0.000420193 2.53469e-17)
(-0.223005 0.000440235 1.36251e-17)
(-0.222373 0.000479309 -1.25487e-17)
(-0.221689 0.000540243 -3.13466e-18)
(-0.220931 0.000626337 -2.73402e-17)
(-0.220076 0.000741163 -2.13894e-17)
(-0.219096 0.000888887 -3.54273e-17)
(-0.217958 0.00107435 -7.83721e-17)
(-0.216628 0.00130329 5.90581e-20)
(-0.215065 0.00158269 1.49043e-17)
(-0.213221 0.00192121 9.06307e-18)
(-0.211043 0.00232973 -5.77011e-18)
(-0.208467 0.00282255 -6.4284e-17)
(-0.205416 0.00341785 -2.09318e-17)
(-0.201801 0.00414117 -5.75017e-18)
(-0.197498 0.00502534 -1.62097e-17)
(-0.192389 0.00611754 -4.15559e-17)
(-0.186242 0.00748304 5.89579e-18)
(-0.178936 0.00920946 -1.55332e-17)
(-0.169926 0.0114531 1.07519e-17)
(-0.159311 0.0143065 1.05438e-17)
(-0.145519 0.0182654 5.88659e-17)
(-0.129754 0.0228146 6.96648e-17)
(-0.107741 0.029754 3.84168e-18)
(-0.0831867 0.0344097 -1.87468e-17)
(-0.0502367 0.0392491 -4.18934e-18)
(-0.0134456 0.0257501 -1.38889e-17)
(0.366727 -0.0706425 -9.38464e-18)
(0.199464 -0.0646227 1.27608e-18)
(0.180027 -0.0531093 -9.33967e-18)
(0.0751204 -0.0562434 1.12667e-19)
(0.0266211 -0.0501615 -4.63509e-18)
(-0.050966 -0.0508612 -1.03531e-19)
(-0.108013 -0.0487105 2.03966e-19)
(-0.1742 -0.0478719 7.14076e-20)
(-0.233763 -0.0463498 4.31849e-18)
(-0.29312 -0.0446581 -4.15382e-18)
(-0.349455 -0.0425691 6.86318e-18)
(-0.402914 -0.0400979 -6.90395e-18)
(-0.45287 -0.0372709 1.90472e-17)
(-0.498919 -0.0341423 1.16966e-17)
(-0.540725 -0.0307826 3.50089e-17)
(-0.57805 -0.0272637 2.7762e-17)
(-0.610748 -0.0236512 1.12536e-17)
(-0.638752 -0.0200009 2.72691e-17)
(-0.662057 -0.0163591 3.77508e-17)
(-0.680713 -0.0127631 -3.96414e-17)
(-0.694808 -0.00924588 -1.05678e-16)
(-0.704474 -0.00583424 3.82346e-17)
(-0.709865 -0.00255892 1.87504e-17)
(-0.711175 0.000560176 1.80378e-17)
(-0.708621 0.00348522 3.02412e-17)
(-0.702449 0.00621848 -2.12998e-17)
(-0.692957 0.00871444 -6.32025e-17)
(-0.680448 0.0109556 -6.20141e-17)
(-0.665255 0.0129262 -4.97425e-17)
(-0.647733 0.0146126 -2.78067e-17)
(-0.628247 0.0160059 -4.67227e-17)
(-0.607172 0.0171029 -9.66567e-19)
(-0.584883 0.0179057 -5.10577e-17)
(-0.56175 0.018422 -4.82973e-17)
(-0.538129 0.0186646 -3.38432e-18)
(-0.514356 0.0186513 -1.90142e-18)
(-0.490743 0.0184036 2.09005e-18)
(-0.467573 0.0179466 -5.13447e-17)
(-0.445095 0.0173075 -6.03416e-17)
(-0.423522 0.0165155 8.22933e-18)
(-0.403032 0.0156001 -1.22027e-17)
(-0.383763 0.0145911 -1.00569e-17)
(-0.365818 0.0135171 2.05986e-17)
(-0.349262 0.0124055 -1.87087e-17)
(-0.334128 0.0112815 1.20345e-17)
(-0.320418 0.0101678 8.09019e-18)
(-0.308109 0.00908406 -2.62885e-17)
(-0.29715 0.00804682 -1.77489e-17)
(-0.287476 0.00706936 -2.31623e-17)
(-0.279004 0.00616162 -1.87699e-17)
(-0.27164 0.00533034 1.60169e-17)
(-0.265286 0.00457931 -4.51619e-17)
(-0.259837 0.0039096 6.095e-18)
(-0.25519 0.00331997 -2.21795e-17)
(-0.251245 0.0028072 -1.8336e-17)
(-0.247905 0.00236649 -2.55761e-19)
(-0.245083 0.00199189 1.58082e-17)
(-0.242696 0.00167666 1.83508e-17)
(-0.240674 0.00141375 2.34849e-17)
(-0.23895 0.00119575 -7.5993e-18)
(-0.237472 0.00101501 -5.0786e-17)
(-0.236195 0.000867956 -4.54194e-17)
(-0.235082 0.000747738 -8.15702e-18)
(-0.234103 0.000648839 -3.45006e-17)
(-0.233235 0.000566754 -8.97482e-19)
(-0.232457 0.000497932 4.87625e-18)
(-0.231756 0.000439723 8.11045e-18)
(-0.23112 0.000390299 2.44529e-18)
(-0.230537 0.000348568 5.76475e-18)
(-0.229999 0.000314074 3.87943e-17)
(-0.229496 0.000286915 1.35255e-18)
(-0.22902 0.000267656 4.06531e-17)
(-0.228559 0.000257253 2.82804e-17)
(-0.228101 0.000256993 4.81578e-17)
(-0.227632 0.000268433 1.68807e-17)
(-0.227136 0.000293398 -8.78173e-18)
(-0.226593 0.000333921 -3.11598e-18)
(-0.225982 0.000392373 -6.68198e-18)
(-0.225278 0.000471335 -1.51853e-17)
(-0.224453 0.000573804 -1.29573e-17)
(-0.223475 0.000703267 -4.54513e-17)
(-0.222308 0.000863866 1.8712e-17)
(-0.220909 0.00106062 3.88669e-17)
(-0.219231 0.00129977 3.70748e-17)
(-0.217217 0.00158917 -1.42073e-17)
(-0.2148 0.00193911 -9.84793e-17)
(-0.211898 0.00236271 -2.29935e-17)
(-0.208419 0.00287834 -6.46983e-18)
(-0.204228 0.0035099 -2.07028e-17)
(-0.199199 0.00429121 -2.19996e-17)
(-0.193081 0.00527088 -6.8513e-19)
(-0.185734 0.00651022 -2.1613e-17)
(-0.176569 0.00813276 3.04032e-17)
(-0.165643 0.0101891 2.01754e-17)
(-0.151311 0.0130719 6.82417e-17)
(-0.134587 0.0163602 5.98096e-17)
(-0.111293 0.0214669 -5.99901e-18)
(-0.084619 0.0249771 -1.02355e-17)
(-0.0496935 0.0286654 -8.66411e-19)
(-0.0127825 0.0196857 -6.81535e-18)
(0.366576 -0.042694 -1.18279e-17)
(0.196069 -0.0389596 6.26501e-19)
(0.17755 -0.0319186 -3.84604e-18)
(0.0713698 -0.0338845 1.79054e-18)
(0.0230257 -0.030184 -5.99069e-18)
(-0.0550473 -0.0306206 -1.15355e-18)
(-0.112146 -0.0293306 -2.0892e-19)
(-0.178509 -0.0288348 4.571e-19)
(-0.238173 -0.0279249 4.67074e-18)
(-0.297635 -0.0269126 7.58481e-19)
(-0.354069 -0.025661 1.60815e-18)
(-0.407632 -0.0241777 3.0617e-18)
(-0.457701 -0.0224793 9.03797e-18)
(-0.503872 -0.0205978 1.06859e-17)
(-0.54581 -0.0185757 -5.66826e-18)
(-0.583271 -0.0164563 1.07427e-17)
(-0.616102 -0.0142794 -3.61972e-18)
(-0.644232 -0.0120789 6.07804e-17)
(-0.667652 -0.00988316 3.83997e-17)
(-0.686409 -0.00771485 -4.60237e-17)
(-0.700586 -0.00559406 -6.42643e-17)
(-0.710316 -0.00353678 7.66237e-18)
(-0.71575 -0.00156226 5.71149e-17)
(-0.717082 0.000316941 8.63856e-18)
(-0.714528 0.00206752 3.67557e-17)
(-0.708336 0.00372266 -3.54538e-17)
(-0.698804 0.00522965 -6.23583e-17)
(-0.686235 0.00658202 -2.66005e-17)
(-0.670961 0.00777172 -7.35321e-17)
(-0.653339 0.00879068 1.06115e-17)
(-0.633735 0.00963373 1.93029e-17)
(-0.612525 0.0102988 1.03562e-17)
(-0.590087 0.0107871 -6.52305e-17)
(-0.566791 0.0111032 -3.30599e-19)
(-0.542996 0.0112547 1.17143e-17)
(-0.51904 0.011252 2.46437e-18)
(-0.495238 0.011108 2.75911e-18)
(-0.471876 0.0108375 -4.92359e-17)
(-0.449204 0.010457 -6.65794e-17)
(-0.42744 0.00998364 3.72843e-17)