/*--------------------------------*- C++ -*----------------------------------*\
  =========                 |
  \\      /  F ield         | OpenFOAM: The Open Source CFD Toolbox
   \\    /   O peration     | Website:  https://openfoam.org
    \\  /    A nd           | Version:  7
     \\/     M anipulation  |
\*---------------------------------------------------------------------------*/
FoamFile
{
    version     2.0;
    format      ascii;
    class       volScalarField;
    location    "2";
    object      p;
}
// * * * * * * * * * * * * * * * * * * * * * * * * * * * * * * * * * * * * * //

dimensions      [0 2 -2 0 0 0 0];

internalField   nonuniform List<scalar> 
7360
(
-9.57859e-05
-0.000287499
-0.000479188
-0.000670924
-0.000862667
-0.00105445
-0.00124626
-0.00143811
-0.00163001
-0.00182196
-0.00201398
-0.00220606
-0.00239824
-0.0025905
-0.00278288
-0.00297537
-0.003168
-0.00336078
-0.00355373
-0.00374687
-0.00394022
-0.00413381
-0.00432767
-0.00452181
-0.00471629
-0.00491112
-0.00510635
-0.00530203
-0.00549819
-0.00569488
-0.00589217
-0.0060901
-0.00628874
-0.00648815
-0.0066884
-0.00688957
-0.00709174
-0.00729497
-0.00749936
-0.00770498
-0.00791193
-0.00812028
-0.00833011
-0.0085415
-0.00875452
-0.00896921
-0.00918562
-0.00940376
-0.00962361
-0.00984513
-0.0100682
-0.0102927
-0.0105184
-0.0107449
-0.0109719
-0.0111987
-0.0114247
-0.0116489
-0.0118702
-0.0120872
-0.0122981
-0.0125006
-0.0126922
-0.0128695
-0.0130286
-0.0131646
-0.0132718
-0.0133431
-0.0133699
-0.013342
-0.0132469
-0.0130693
-0.0127901
-0.0123844
-0.0118235
-0.011073
-0.0100914
-0.00882946
-0.00723
-0.00522899
-0.00275999
0.000235959
0.00379052
0.00787145
0.0123196
0.0167449
0.0203601
0.021736
0.0186659
0.00764959
-0.0162591
-0.05908
-0.126071
-0.219136
-0.33139
-0.441241
-0.521654
-0.540631
-0.516312
-0.482671
-9.57347e-05
-0.000287345
-0.000478929
-0.000670562
-0.000862201
-0.00105388
-0.00124559
-0.00143734
-0.00162913
-0.00182099
-0.00201291
-0.00220491
-0.00239698
-0.00258916
-0.00278145
-0.00297385
-0.00316639
-0.00335909
-0.00355196
-0.00374502
-0.00393829
-0.00413181
-0.00432558
-0.00451966
-0.00471405
-0.00490881
-0.00510397
-0.00529957
-0.00549566
-0.00569228
-0.00588949
-0.00608735
-0.00628592
-0.00648525
-0.00668543
-0.00688652
-0.0070886
-0.00729175
-0.00749605
-0.00770158
-0.00790844
-0.00811669
-0.00832642
-0.00853771
-0.00875061
-0.00896518
-0.00918147
-0.00939947
-0.00961918
-0.00984054
-0.0100635
-0.0102878
-0.0105132
-0.0107396
-0.0109663
-0.0111929
-0.0114186
-0.0116425
-0.0118635
-0.0120801
-0.0122905
-0.0124926
-0.0126836
-0.0128603
-0.0130187
-0.013154
-0.0132602
-0.0133304
-0.0133559
-0.0133263
-0.0132295
-0.0130505
-0.0127696
-0.0123618
-0.011798
-0.0110434
-0.0100563
-0.00878661
-0.00717593
-0.00515841
-0.00266468
0.000368722
0.00398029
0.00814781
0.0127261
0.0173454
0.021249
0.0230471
0.0204735
0.0101463
-0.012789
-0.0542285
-0.119503
-0.210416
-0.320319
-0.428171
-0.506584
-0.530218
-0.507402
-0.471294
-9.60047e-05
-0.000288152
-0.000480273
-0.000672441
-0.000864615
-0.00105683
-0.00124907
-0.00144135
-0.00163367
-0.00182605
-0.0020185
-0.00221101
-0.00240361
-0.0025963
-0.00278909
-0.00298201
-0.00317506
-0.00336826
-0.00356163
-0.00375519
-0.00394896
-0.00414297
-0.00433724
-0.00453181
-0.0047267
-0.00492196
-0.00511762
-0.00531372
-0.00551031
-0.00570744
-0.00590516
-0.00610354
-0.00630263
-0.0065025
-0.00670322
-0.00690487
-0.00710751
-0.00731125
-0.00751615
-0.00772231
-0.00792981
-0.00813873
-0.00834917
-0.00856119
-0.00877486
-0.00899025
-0.0092074
-0.00942631
-0.009647
-0.0098694
-0.0100934
-0.0103189
-0.0105457
-0.0107734
-0.0110017
-0.0112299
-0.0114575
-0.0116834
-0.0119065
-0.0121255
-0.0123386
-0.0125437
-0.012738
-0.0129185
-0.0130811
-0.0132213
-0.0133332
-0.0134099
-0.0134432
-0.013423
-0.0133367
-0.0131688
-0.0129009
-0.01251
-0.0119688
-0.0112449
-0.0103
-0.00908927
-0.00756208
-0.0056645
-0.00334518
-0.000567536
0.00266719
0.00627925
0.0100423
0.0134712
0.0156531
0.0150483
0.00935559
-0.00527056
-0.0340204
-0.0831049
-0.157678
-0.260403
-0.379408
-0.492502
-0.571705
-0.579263
-0.549451
-0.527605
-9.58485e-05
-0.00028768
-0.000479483
-0.000671333
-0.000863188
-0.00105508
-0.00124701
-0.00143898
-0.001631
-0.00182308
-0.00201523
-0.00220745
-0.00239976
-0.00259217
-0.00278469
-0.00297734
-0.00317012
-0.00336307
-0.00355618
-0.0037495
-0.00394302
-0.00413679
-0.00433083
-0.00452517
-0.00471983
-0.00491486
-0.0051103
-0.00530618
-0.00550255
-0.00569946
-0.00589696
-0.00609512
-0.00629399
-0.00649363
-0.00669413
-0.00689554
-0.00709796
-0.00730145
-0.0075061
-0.007712
-0.00791923
-0.00812788
-0.00833802
-0.00854974
-0.00876309
-0.00897814
-0.00919492
-0.00941346
-0.00963373
-0.00985569
-0.0100793
-0.0103043
-0.0105305
-0.0107576
-0.0109852
-0.0112127
-0.0114395
-0.0116645
-0.0118867
-0.0121046
-0.0123165
-0.0125202
-0.0127131
-0.0128918
-0.0130524
-0.0131902
-0.0132994
-0.0133728
-0.0134021
-0.013377
-0.0132859
-0.0131141
-0.0128418
-0.0124449
-0.0118956
-0.0111604
-0.0101997
-0.00896632
-0.00740633
-0.00546017
-0.00306777
-0.000178997
0.00322549
0.00709658
0.0112522
0.0152706
0.0183253
0.0189393
0.0146628
0.00201562
-0.0239798
-0.0693291
-0.139319
-0.235709
-0.349395
-0.458682
-0.533816
-0.556188
-0.530552
-0.506754
-9.63948e-05
-0.000289308
-0.000482191
-0.000675119
-0.000868053
-0.00106102
-0.00125402
-0.00144706
-0.00164015
-0.00183329
-0.00202649
-0.00221977
-0.00241312
-0.00260657
-0.00280013
-0.00299381
-0.00318762
-0.00338158
-0.00357572
-0.00377004
-0.00396458
-0.00415936
-0.0043544
-0.00454975
-0.00474542
-0.00494145
-0.00513789
-0.00533478
-0.00553217
-0.0057301
-0.00592864
-0.00612783
-0.00632775
-0.00652847
-0.00673005
-0.00693257
-0.00713611
-0.00734076
-0.00754661
-0.00775373
-0.00796224
-0.0081722
-0.00838371
-0.00859686
-0.00881172
-0.00902835
-0.0092468
-0.0094671
-0.00968924
-0.00991321
-0.0101389
-0.0103662
-0.0105949
-0.0108246
-0.0110551
-0.0112857
-0.0115159
-0.0117446
-0.0119708
-0.0121932
-0.01241
-0.0126191
-0.012818
-0.0130035
-0.0131719
-0.0133185
-0.0134378
-0.0135233
-0.013567
-0.0135586
-0.0134846
-0.0133323
-0.0130849
-0.0127209
-0.0122154
-0.01154
-0.0106617
-0.00954385
-0.00814773
-0.00643708
-0.00438647
-0.00199697
0.000676522
0.00347954
0.00608071
0.00782607
0.00755401
0.00354408
-0.00678033
-0.0277671
-0.0648963
-0.124401
-0.211161
-0.324671
-0.448888
-0.559221
-0.62466
-0.617216
-0.582281
-0.564147
-9.61208e-05
-0.000288478
-0.0004808
-0.000673168
-0.000865541
-0.00105795
-0.0012504
-0.00144289
-0.00163543
-0.00182804
-0.00202072
-0.00221347
-0.00240632
-0.00259926
-0.00279232
-0.00298552
-0.00317885
-0.00337234
-0.00356602
-0.00375989
-0.00395399
-0.00414833
-0.00434294
-0.00453786
-0.00473312
-0.00492875
-0.00512479
-0.00532128
-0.00551828
-0.00571582
-0.00591397
-0.00611278
-0.00631232
-0.00651265
-0.00671384
-0.00691598
-0.00711913
-0.00732338
-0.00752883
-0.00773554
-0.00794362
-0.00815315
-0.00836421
-0.00857689
-0.00879126
-0.00900738
-0.00922529
-0.00944502
-0.00966657
-0.00988989
-0.0101149
-0.0103415
-0.0105693
-0.0107983
-0.0110278
-0.0112574
-0.0114865
-0.011714
-0.0119389
-0.0121598
-0.012375
-0.0125823
-0.0127791
-0.0129623
-0.0131279
-0.0132712
-0.0133867
-0.0134674
-0.0135051
-0.0134898
-0.0134112
-0.0132549
-0.0130011
-0.0126279
-0.0121096
-0.0114164
-0.0105129
-0.00935904
-0.00791049
-0.00612234
-0.00395581
-0.00139186
0.00154424
0.00474092
0.0079321
0.0105821
0.0117131
0.00960364
0.00145165
-0.0163405
-0.0490381
-0.102713
-0.182152
-0.289722
-0.408619
-0.518927
-0.589211
-0.596359
-0.566052
-0.554677
-9.69844e-05
-0.000291015
-0.000484998
-0.000679025
-0.000873058
-0.00106713
-0.00126123
-0.00145538
-0.00164957
-0.00184382
-0.00203814
-0.00223254
-0.00242702
-0.00262161
-0.0028163
-0.00301112
-0.00320608
-0.0034012
-0.00359649
-0.00379199
-0.00398771
-0.00418367
-0.00437992
-0.00457647
-0.00477336
-0.00497063
-0.00516832
-0.00536647
-0.00556514
-0.00576437
-0.00596422
-0.00616476
-0.00636605
-0.00656817
-0.00677118
-0.00697517
-0.00718022
-0.00738643
-0.00759388
-0.00780268
-0.00801291
-0.00822467
-0.00843806
-0.00865318
-0.0088701
-0.00908891
-0.00930966
-0.00953239
-0.00975712
-0.00998383
-0.0102124
-0.0104429
-0.0106749
-0.0109082
-0.0111426
-0.0113773
-0.0116119
-0.0118455
-0.0120769
-0.0123049
-0.0125279
-0.0127437
-0.0129499
-0.0131434
-0.0133206
-0.013477
-0.0136072
-0.0137054
-0.0137645
-0.0137753
-0.0137271
-0.0136065
-0.0133965
-0.0130801
-0.0126383
-0.0120491
-0.0112895
-0.0103367
-0.00917205
-0.00778836
-0.00620209
-0.00447494
-0.00274928
-0.00130508
-0.00064208
-0.0015598
-0.00550114
-0.0148536
-0.0326969
-0.0634986
-0.112722
-0.185747
-0.284609
-0.403523
-0.522389
-0.612453
-0.652258
-0.627309
-0.600093
-0.581765
-9.65311e-05
-0.000289672
-0.000482772
-0.000675917
-0.000869066
-0.00106226
-0.00125548
-0.00144875
-0.00164208
-0.00183546
-0.00202892
-0.00222246
-0.0024161
-0.00260984
-0.00280369
-0.00299768
-0.00319182
-0.00338612
-0.0035806
-0.00377529
-0.0039702
-0.00416537
-0.00436082
-0.00455658
-0.00475268
-0.00494916
-0.00514607
-0.00534344
-0.00554133
-0.00573978
-0.00593885
-0.0061386
-0.00633909
-0.0065404
-0.0067426
-0.00694577
-0.00714998
-0.00735533
-0.0075619
-0.00776979
-0.00797909
-0.0081899
-0.00840229
-0.00861637
-0.00883221
-0.00904987
-0.00926943
-0.0094909
-0.00971429
-0.00993958
-0.0101667
-0.0103955
-0.0106258
-0.0108574
-0.0110898
-0.0113225
-0.0115548
-0.011786
-0.0120149
-0.0122401
-0.0124601
-0.0126727
-0.0128753
-0.0130651
-0.0132381
-0.0133899
-0.0135151
-0.0136073
-0.0136586
-0.0136593
-0.013597
-0.0134558
-0.0132225
-0.0128777
-0.0123992
-0.0117613
-0.0109355
-0.00989136
-0.00859943
-0.00703651
-0.00519618
-0.00310732
-0.000866113
0.00130959
0.00298937
0.0033845
0.00139343
-0.00478989
-0.0181814
-0.0430762
-0.0848838
-0.149582
-0.241118
-0.357523
-0.481039
-0.583872
-0.63873
-0.623294
-0.591353
-0.578446
-0.197528
-0.202417
-0.208122
-0.21537
-0.224479
-0.23554
-0.248833
-0.264668
-0.283448
-0.305679
-0.332054
-0.363374
-0.400623
-0.444762
-0.496608
-0.555638
-0.620903
-0.671155
-0.702502
-0.689
-0.196558
-0.20213
-0.208218
-0.215982
-0.22567
-0.237376
-0.251404
-0.268081
-0.287827
-0.31118
-0.3389
-0.37196
-0.411552
-0.459067
-0.515385
-0.57682
-0.640385
-0.673132
-0.695599
-0.643295
-0.198712
-0.202202
-0.207095
-0.213371
-0.221407
-0.231295
-0.24328
-0.257638
-0.274741
-0.295066
-0.319276
-0.348141
-0.382846
-0.424557
-0.475222
-0.535599
-0.609538
-0.68803
-0.727399
-0.761165
-0.198294
-0.202486
-0.207809
-0.21458
-0.223162
-0.23365
-0.246304
-0.261418
-0.279384
-0.300704
-0.326082
-0.356374
-0.392796
-0.436523
-0.488692
-0.548343
-0.613774
-0.672755
-0.700047
-0.712943
-0.198134
-0.200291
-0.20426
-0.209544
-0.216507
-0.225226
-0.235926
-0.248856
-0.26436
-0.28288
-0.305056
-0.33161
-0.363847
-0.402795
-0.450954
-0.509834
-0.587526
-0.675355
-0.753713
-0.807258
-0.1987
-0.20151
-0.205957
-0.21175
-0.219262
-0.228582
-0.239944
-0.253613
-0.269952
-0.289429
-0.312706
-0.340554
-0.37424
-0.414812
-0.464186
-0.522634
-0.595711
-0.674718
-0.727619
-0.764815
-0.195156
-0.19613
-0.199133
-0.203397
-0.209282
-0.21684
-0.22629
-0.237873
-0.251875
-0.268708
-0.289018
-0.313458
-0.343362
-0.379511
-0.425016
-0.48148
-0.557496
-0.645846
-0.756714
-0.824862
-0.196972
-0.19853
-0.20202
-0.206805
-0.213238
-0.221389
-0.231475
-0.243739
-0.258507
-0.276212
-0.297487
-0.323035
-0.354142
-0.391685
-0.438209
-0.495361
-0.571051
-0.656609
-0.74758
-0.792628
-0.189553
-0.189402
-0.191489
-0.194707
-0.199518
-0.205882
-0.214058
-0.224248
-0.236751
-0.251833
-0.270196
-0.292236
-0.319614
-0.352171
-0.395101
-0.445656
-0.519657
-0.601345
-0.729659
-0.808625
-0.192686
-0.193093
-0.195634
-0.199383
-0.20474
-0.211721
-0.220559
-0.231497
-0.244792
-0.260799
-0.280201
-0.30353
-0.332277
-0.366804
-0.411182
-0.465071
-0.539375
-0.62311
-0.736669
-0.790504
-0.181951
-0.180654
-0.181978
-0.18414
-0.187898
-0.192982
-0.199747
-0.208251
-0.218906
-0.231818
-0.247925
-0.267125
-0.291446
-0.318931
-0.358577
-0.396971
-0.468343
-0.525333
-0.665864
-0.721882
-0.185913
-0.185197
-0.186879
-0.189571
-0.193864
-0.199602
-0.207112
-0.216489
-0.228137
-0.242266
-0.259655
-0.280402
-0.306613
-0.33676
-0.378675
-0.422211
-0.495773
-0.560746
-0.690374
-0.735427
-0.17336
-0.170871
-0.171868
-0.173117
-0.17612
-0.180403
-0.186267
-0.193741
-0.203066
-0.214423
-0.228288
-0.24473
-0.264947
-0.287758
-0.319176
-0.348149
-0.406227
-0.43427
-0.566298
-0.523989
-0.177835
-0.175946
-0.177083
-0.178757
-0.182075
-0.186659
-0.192834
-0.200652
-0.210421
-0.222339
-0.237091
-0.254712
-0.276923
-0.302108
-0.338196
-0.372051
-0.437538
-0.474885
-0.603868
-0.585973
-0.162042
-0.158304
-0.158251
-0.157915
-0.159328
-0.161779
-0.16558
-0.170798
-0.177639
-0.186301
-0.197093
-0.210093
-0.225684
-0.243078
-0.263858
-0.282045
-0.306775
-0.299241
-0.332352
-0.183237
-0.168067
-0.164939
-0.165651
-0.166281
-0.168855
-0.172701
-0.178172
-0.185319
-0.19437
-0.205516
-0.219103
-0.235186
-0.254431
-0.275908
-0.30282
-0.326337
-0.366993
-0.372932
-0.450114
-0.32041
0.0490039
0.0490955
0.0492407
0.0495279
0.0499702
0.0504739
0.0517277
0.0522165
0.0557307
0.0554141
0.0641353
0.0622586
0.0805896
0.0777949
0.113438
0.112753
0.182999
0.183343
0.325932
0.176762
0.0489911
0.0490818
0.0492254
0.0495127
0.0499465
0.0504668
0.0516812
0.0522549
0.0556376
0.0555726
0.064005
0.0626315
0.0805348
0.078505
0.11363
0.113869
0.181988
0.181601
0.308512
0.117388
0.049027
0.0491199
0.049269
0.0495572
0.0500168
0.0505001
0.0518226
0.0522068
0.0559262
0.0553222
0.0644704
0.0620463
0.0811169
0.0775047
0.11462
0.113053
0.187898
0.19152
0.355177
0.296375
0.049016
0.0491082
0.0492553
0.0495427
0.0499936
0.0504866
0.0517742
0.0522116
0.055825
0.0553733
0.0642895
0.0621705
0.0808061
0.0776861
0.113945
0.112941
0.185241
0.187279
0.340299
0.240191
0.0490437
0.0491379
0.0492898
0.049579
0.0500517
0.05052
0.051894
0.0522006
0.0560732
0.0552559
0.0647202
0.0618934
0.0815012
0.0772868
0.115467
0.113111
0.191096
0.19717
0.371617
0.388974
0.0490363
0.0491299
0.0492805
0.0495691
0.0500357
0.0505106
0.0518606
0.0522016
0.056003
0.055281
0.064592
0.0619547
0.0812584
0.0773612
0.114871
0.112931
0.189086
0.193828
0.362806
0.349313
0.0490515
0.0491462
0.0492994
0.049589
0.0500678
0.0505294
0.0519272
0.0521984
0.0561416
0.0552266
0.0648357
0.0618267
0.0816754
0.077192
0.115841
0.113114
0.192426
0.19976
0.377736
0.432379
0.0490489
0.0491433
0.0492962
0.0495855
0.0500622
0.0505261
0.0519153
0.0521986
0.0561165
0.0552349
0.0647896
0.0618467
0.0815857
0.0772145
0.115614
0.113045
0.191705
0.198511
0.374864
0.418214
0.0490489
0.0491434
0.0492962
0.0495855
0.0500622
0.0505261
0.0519153
0.0521986
0.0561165
0.0552349
0.0647896
0.0618467
0.0815857
0.0772145
0.115614
0.113045
0.191705
0.198511
0.374864
0.418214
0.0490515
0.0491462
0.0492994
0.049589
0.0500678
0.0505294
0.0519272
0.0521984
0.0561416
0.0552266
0.0648357
0.0618267
0.0816754
0.077192
0.115841
0.113114
0.192426
0.19976
0.377736
0.432379
0.0490363
0.0491299
0.0492805
0.0495691
0.0500357
0.0505106
0.0518606
0.0522016
0.056003
0.055281
0.064592
0.0619547
0.0812584
0.0773612
0.114871
0.112931
0.189086
0.193828
0.362806
0.349313
0.0490437
0.0491379
0.0492898
0.049579
0.0500517
0.05052
0.051894
0.0522006
0.0560732
0.0552559
0.0647202
0.0618934
0.0815012
0.0772868
0.115467
0.113111
0.191096
0.19717
0.371617
0.388974
0.049016
0.0491082
0.0492553
0.0495427
0.0499936
0.0504866
0.0517742
0.0522116
0.055825
0.0553733
0.0642895
0.0621705
0.0808061
0.0776861
0.113945
0.112941
0.185241
0.187279
0.340299
0.240191
0.049027
0.0491199
0.049269
0.0495572
0.0500168
0.0505001
0.0518226
0.0522068
0.0559262
0.0553222
0.0644704
0.0620463
0.0811169
0.0775047
0.11462
0.113053
0.187898
0.19152
0.355177
0.296375
0.0489911
0.0490818
0.0492254
0.0495127
0.0499465
0.0504668
0.0516812
0.0522549
0.0556376
0.0555726
0.064005
0.0626315
0.0805348
0.078505
0.11363
0.113869
0.181988
0.181601
0.308512
0.117388
0.0490039
0.0490955
0.0492407
0.0495279
0.0499702
0.0504739
0.0517277
0.0522165
0.0557307
0.0554141
0.0641353
0.0622586
0.0805896
0.0777949
0.113438
0.112753
0.182999
0.183343
0.325932
0.176762
-0.168067
-0.164939
-0.165651
-0.166281
-0.168855
-0.172701
-0.178172
-0.185319
-0.19437
-0.205516
-0.219103
-0.235186
-0.254431
-0.275908
-0.30282
-0.326337
-0.366993
-0.372932
-0.450114
-0.32041
-0.162042
-0.158304
-0.158251
-0.157915
-0.159328
-0.161779
-0.16558
-0.170798
-0.177639
-0.186301
-0.197093
-0.210093
-0.225684
-0.243078
-0.263858
-0.282045
-0.306775
-0.299241
-0.332352
-0.183237
-0.177835
-0.175946
-0.177083
-0.178757
-0.182075
-0.186659
-0.192834
-0.200652
-0.210421
-0.222339
-0.237091
-0.254712
-0.276923
-0.302108
-0.338196
-0.372051
-0.437538
-0.474885
-0.603868
-0.585973
-0.17336
-0.170871
-0.171868
-0.173117
-0.17612
-0.180403
-0.186267
-0.193741
-0.203066
-0.214423
-0.228288
-0.24473
-0.264947
-0.287758
-0.319176
-0.348149
-0.406227
-0.43427
-0.566298
-0.523989
-0.185913
-0.185197
-0.186879
-0.189571
-0.193864
-0.199602
-0.207112
-0.216489
-0.228137
-0.242266
-0.259655
-0.280402
-0.306613
-0.33676
-0.378675
-0.422211
-0.495773
-0.560746
-0.690374
-0.735427
-0.181951
-0.180654
-0.181978
-0.18414
-0.187898
-0.192982
-0.199747
-0.208251
-0.218906
-0.231818
-0.247925
-0.267125
-0.291446
-0.318931
-0.358577
-0.396971
-0.468343
-0.525333
-0.665864
-0.721882
-0.192686
-0.193093
-0.195634
-0.199383
-0.20474
-0.211721
-0.220559
-0.231497
-0.244792
-0.260799
-0.280201
-0.30353
-0.332277
-0.366804
-0.411182
-0.465071
-0.539375
-0.62311
-0.736669
-0.790504
-0.189553
-0.189402
-0.191489
-0.194707
-0.199518
-0.205882
-0.214058
-0.224248
-0.236751
-0.251833
-0.270196
-0.292236
-0.319614
-0.352171
-0.395101
-0.445656
-0.519657
-0.601345
-0.729659
-0.808625
-0.196972
-0.19853
-0.20202
-0.206805
-0.213238
-0.221389
-0.231475
-0.243739
-0.258507
-0.276212
-0.297487
-0.323035
-0.354142
-0.391685
-0.438209
-0.495361
-0.571051
-0.656609
-0.74758
-0.792628
-0.195156
-0.19613
-0.199133
-0.203397
-0.209282
-0.21684
-0.22629
-0.237873
-0.251875
-0.268708
-0.289018
-0.313458
-0.343362
-0.379511
-0.425016
-0.48148
-0.557496
-0.645846
-0.756714
-0.824862
-0.1987
-0.20151
-0.205957
-0.21175
-0.219262
-0.228582
-0.239944
-0.253613
-0.269952
-0.289429
-0.312706
-0.340554
-0.37424
-0.414812
-0.464186
-0.522634
-0.595711
-0.674718
-0.727619
-0.764815
-0.198134
-0.200291
-0.20426
-0.209544
-0.216507
-0.225226
-0.235926
-0.248856
-0.26436
-0.28288
-0.305056
-0.33161
-0.363847
-0.402795
-0.450954
-0.509834
-0.587526
-0.675355
-0.753713
-0.807258
-0.198294
-0.202486
-0.207809
-0.21458
-0.223162
-0.23365
-0.246304
-0.261418
-0.279384
-0.300704
-0.326082
-0.356374
-0.392796
-0.436523
-0.488692
-0.548343
-0.613774
-0.672755
-0.700047
-0.712943
-0.198712
-0.202202
-0.207095
-0.213371
-0.221407
-0.231295
-0.24328
-0.257638
-0.274741
-0.295066
-0.319276
-0.348141
-0.382846
-0.424557
-0.475222
-0.535599
-0.609538
-0.68803
-0.727399
-0.761165
-0.196558
-0.20213
-0.208218
-0.215982
-0.22567
-0.237376
-0.251404
-0.268081
-0.287827
-0.31118
-0.3389
-0.37196
-0.411552
-0.459067
-0.515385
-0.57682
-0.640385
-0.673132
-0.695599
-0.643295
-0.197528
-0.202417
-0.208122
-0.21537
-0.224479
-0.23554
-0.248833
-0.264668
-0.283448
-0.305679
-0.332054
-0.363374
-0.400623
-0.444762
-0.496608
-0.555638
-0.620903
-0.671155
-0.702502
-0.689
-9.65311e-05
-0.000289672
-0.000482772
-0.000675917
-0.000869066
-0.00106226
-0.00125548
-0.00144875
-0.00164208
-0.00183546
-0.00202892
-0.00222247
-0.0024161
-0.00260984
-0.00280369
-0.00299768
-0.00319182
-0.00338612
-0.0035806
-0.00377529
-0.0039702
-0.00416537
-0.00436082
-0.00455657
-0.00475268
-0.00494916
-0.00514607
-0.00534344
-0.00554133
-0.00573978
-0.00593885
-0.0061386
-0.00633909
-0.0065404
-0.0067426
-0.00694577
-0.00714998
-0.00735533
-0.0075619
-0.00776979
-0.00797909
-0.0081899
-0.00840229
-0.00861637
-0.00883221
-0.00904987
-0.00926943
-0.0094909
-0.00971429
-0.00993958
-0.0101667
-0.0103955
-0.0106258
-0.0108574
-0.0110898
-0.0113225
-0.0115548
-0.011786
-0.0120149
-0.0122401
-0.0124601
-0.0126727
-0.0128753
-0.0130651
-0.0132381
-0.0133899
-0.0135151
-0.0136073
-0.0136586
-0.0136593
-0.013597
-0.0134558
-0.0132225
-0.0128777
-0.0123992
-0.0117613
-0.0109355
-0.00989136
-0.00859943
-0.00703651
-0.00519619
-0.00310732
-0.000866112
0.00130959
0.00298937
0.0033845
0.00139343
-0.00478989
-0.0181814
-0.0430762
-0.0848838
-0.149582
-0.241118
-0.357523
-0.481039
-0.583872
-0.63873
-0.623294
-0.591353
-0.578446
-9.69844e-05
-0.000291015
-0.000484998
-0.000679025
-0.000873058
-0.00106713
-0.00126123
-0.00145538
-0.00164957
-0.00184382
-0.00203814
-0.00223254
-0.00242702
-0.00262161
-0.0028163
-0.00301112
-0.00320608
-0.0034012
-0.00359649
-0.00379199
-0.00398771
-0.00418367
-0.00437992
-0.00457647
-0.00477336
-0.00497063
-0.00516832
-0.00536647
-0.00556514
-0.00576437
-0.00596422
-0.00616476
-0.00636605
-0.00656817
-0.00677118
-0.00697517
-0.00718022
-0.00738643
-0.00759388
-0.00780268
-0.00801291
-0.00822467
-0.00843806
-0.00865318
-0.0088701
-0.00908891
-0.00930966
-0.00953239
-0.00975712
-0.00998383
-0.0102124
-0.0104429
-0.0106749
-0.0109082
-0.0111426
-0.0113773
-0.0116119
-0.0118455
-0.0120769
-0.0123049
-0.0125279
-0.0127437
-0.0129499
-0.0131434
-0.0133206
-0.013477
-0.0136072
-0.0137054
-0.0137645
-0.0137753
-0.0137271
-0.0136065
-0.0133965
-0.0130801
-0.0126383
-0.0120491
-0.0112895
-0.0103367
-0.00917205
-0.00778836
-0.00620209
-0.00447494
-0.00274927
-0.00130508
-0.000642078
-0.0015598
-0.00550113
-0.0148536
-0.0326969
-0.0634986
-0.112722
-0.185747
-0.284609
-0.403523
-0.522389
-0.612453
-0.652258
-0.627309
-0.600093
-0.581765
-9.61208e-05
-0.000288478
-0.0004808
-0.000673168
-0.000865541
-0.00105795
-0.0012504
-0.00144289
-0.00163543
-0.00182804
-0.00202072
-0.00221347
-0.00240632
-0.00259926
-0.00279232
-0.00298552
-0.00317885
-0.00337234
-0.00356602
-0.00375989
-0.00395399
-0.00414833
-0.00434294
-0.00453786
-0.00473312
-0.00492875
-0.00512479
-0.00532128
-0.00551828
-0.00571582
-0.00591397
-0.00611278
-0.00631232
-0.00651265
-0.00671384
-0.00691598
-0.00711913
-0.00732338
-0.00752883
-0.00773554
-0.00794362
-0.00815315
-0.00836421
-0.00857689
-0.00879126
-0.00900738
-0.00922529
-0.00944502
-0.00966657
-0.00988989
-0.0101149
-0.0103415
-0.0105693
-0.0107983
-0.0110278
-0.0112574
-0.0114865
-0.011714
-0.0119389
-0.0121598
-0.012375
-0.0125823
-0.0127791
-0.0129623
-0.0131279
-0.0132712
-0.0133867
-0.0134674
-0.0135051
-0.0134898
-0.0134112
-0.0132549
-0.0130011
-0.0126279
-0.0121096
-0.0114164
-0.0105129
-0.00935904
-0.00791049
-0.00612234
-0.00395581
-0.00139186
0.00154424
0.00474092
0.0079321
0.0105821
0.0117131
0.00960365
0.00145165
-0.0163405
-0.0490381
-0.102713
-0.182152
-0.289722
-0.408619
-0.518927
-0.589211
-0.596359
-0.566052
-0.554677
-9.63948e-05
-0.000289308
-0.000482191
-0.000675119
-0.000868053
-0.00106102
-0.00125402
-0.00144706
-0.00164015
-0.00183329
-0.00202649
-0.00221977
-0.00241312
-0.00260657
-0.00280013
-0.00299381
-0.00318762
-0.00338158
-0.00357572
-0.00377004
-0.00396458
-0.00415936
-0.0043544
-0.00454975
-0.00474542
-0.00494145
-0.00513789
-0.00533478
-0.00553217
-0.0057301
-0.00592864
-0.00612783
-0.00632775
-0.00652847
-0.00673005
-0.00693257
-0.00713611
-0.00734076
-0.00754661
-0.00775373
-0.00796224
-0.0081722
-0.00838371
-0.00859686
-0.00881172
-0.00902835
-0.0092468
-0.0094671
-0.00968924
-0.00991321
-0.0101389
-0.0103662
-0.0105949
-0.0108246
-0.0110551
-0.0112857
-0.0115159
-0.0117446
-0.0119708
-0.0121932
-0.01241
-0.0126191
-0.012818
-0.0130035
-0.0131719
-0.0133185
-0.0134378
-0.0135233
-0.013567
-0.0135586
-0.0134846
-0.0133323
-0.0130849
-0.0127209
-0.0122154
-0.01154
-0.0106617
-0.00954385
-0.00814773
-0.00643708
-0.00438647
-0.00199697
0.000676523
0.00347954
0.00608072
0.00782607
0.00755401
0.00354408
-0.00678033
-0.0277671
-0.0648963
-0.124401
-0.211161
-0.324671
-0.448888
-0.559221
-0.62466
-0.617216
-0.582281
-0.564147
-9.58485e-05
-0.00028768
-0.000479483
-0.000671333
-0.000863188
-0.00105508
-0.00124701
-0.00143898
-0.001631
-0.00182308
-0.00201523
-0.00220745
-0.00239976
-0.00259217
-0.00278469
-0.00297734
-0.00317012
-0.00336307
-0.00355618
-0.0037495
-0.00394302
-0.00413679
-0.00433083
-0.00452517
-0.00471983
-0.00491486
-0.0051103
-0.00530618
-0.00550255
-0.00569946
-0.00589696
-0.00609512
-0.00629399
-0.00649363
-0.00669413
-0.00689554
-0.00709796
-0.00730145
-0.0075061
-0.007712
-0.00791923
-0.00812788
-0.00833802
-0.00854974
-0.00876309
-0.00897814
-0.00919492
-0.00941346
-0.00963373
-0.00985569
-0.0100793
-0.0103043
-0.0105305
-0.0107576
-0.0109852
-0.0112127
-0.0114395
-0.0116645
-0.0118867
-0.0121046
-0.0123165
-0.0125202
-0.0127131
-0.0128918
-0.0130524
-0.0131902
-0.0132994
-0.0133728
-0.0134021
-0.013377
-0.0132859
-0.0131141
-0.0128418
-0.0124449
-0.0118956
-0.0111604
-0.0101997
-0.00896632
-0.00740632
-0.00546017
-0.00306777
-0.000178997
0.00322549
0.00709658
0.0112522
0.0152706
0.0183253
0.0189393
0.0146628
0.00201562
-0.0239798
-0.0693291
-0.139319
-0.235709
-0.349395
-0.458682
-0.533816
-0.556188
-0.530552
-0.506754
-9.60047e-05
-0.000288152
-0.000480273
-0.000672441
-0.000864615
-0.00105683
-0.00124907
-0.00144135
-0.00163367
-0.00182605
-0.0020185
-0.00221101
-0.00240361
-0.0025963
-0.00278909
-0.00298201
-0.00317506
-0.00336826
-0.00356163
-0.00375519
-0.00394896
-0.00414297
-0.00433724
-0.00453181
-0.0047267
-0.00492196
-0.00511762
-0.00531372
-0.00551031
-0.00570744
-0.00590516
-0.00610354
-0.00630263
-0.0065025
-0.00670322
-0.00690487
-0.00710751
-0.00731125
-0.00751615
-0.00772231
-0.00792981
-0.00813873
-0.00834917
-0.00856119
-0.00877486
-0.00899025
-0.0092074
-0.00942631
-0.009647
-0.0098694
-0.0100934
-0.0103189
-0.0105457
-0.0107734
-0.0110017
-0.0112299
-0.0114575
-0.0116834
-0.0119065
-0.0121255
-0.0123386
-0.0125437
-0.012738
-0.0129185
-0.0130811
-0.0132213
-0.0133332
-0.0134099
-0.0134432
-0.013423
-0.0133367
-0.0131688
-0.0129009
-0.01251
-0.0119688
-0.0112449
-0.0103
-0.00908927
-0.00756208
-0.0056645
-0.00334518
-0.000567536
0.00266719
0.00627925
0.0100423
0.0134712
0.0156531
0.0150483
0.00935559
-0.00527057
-0.0340204
-0.0831049
-0.157678
-0.260403
-0.379408
-0.492502
-0.571705
-0.579263
-0.549451
-0.527605
-9.57347e-05
-0.000287345
-0.000478929
-0.000670562
-0.000862201
-0.00105388
-0.00124559
-0.00143734
-0.00162913
-0.00182099
-0.00201291
-0.00220491
-0.00239698
-0.00258916
-0.00278144
-0.00297385
-0.00316639
-0.00335909
-0.00355196
-0.00374502
-0.00393829
-0.00413181
-0.00432558
-0.00451966
-0.00471405
-0.00490881
-0.00510397
-0.00529957
-0.00549566
-0.00569228
-0.00588949
-0.00608735
-0.00628592
-0.00648525
-0.00668543
-0.00688652
-0.0070886
-0.00729175
-0.00749605
-0.00770158
-0.00790844
-0.00811669
-0.00832642
-0.00853771
-0.00875061
-0.00896518
-0.00918147
-0.00939947
-0.00961918
-0.00984054
-0.0100635
-0.0102878
-0.0105132
-0.0107396
-0.0109663
-0.0111929
-0.0114186
-0.0116425
-0.0118635
-0.0120801
-0.0122905
-0.0124926
-0.0126836
-0.0128603
-0.0130187
-0.013154
-0.0132602
-0.0133304
-0.0133559
-0.0133263
-0.0132295
-0.0130505
-0.0127696
-0.0123618
-0.011798
-0.0110434
-0.0100563
-0.00878661
-0.00717593
-0.00515841
-0.00266468
0.000368722
0.00398029
0.00814781
0.0127261
0.0173454
0.021249
0.0230471
0.0204735
0.0101463
-0.012789
-0.0542285
-0.119503
-0.210416
-0.320319
-0.428171
-0.506584
-0.530218
-0.507402
-0.471294
-9.57859e-05
-0.000287499
-0.000479188
-0.000670924
-0.000862667
-0.00105445
-0.00124626
-0.00143811
-0.00163001
-0.00182196
-0.00201398
-0.00220606
-0.00239824
-0.0025905
-0.00278288
-0.00297537
-0.003168
-0.00336078
-0.00355373
-0.00374687
-0.00394022
-0.00413381
-0.00432767
-0.00452181
-0.00471629
-0.00491112
-0.00510635
-0.00530203
-0.00549819
-0.00569488
-0.00589217
-0.0060901
-0.00628874
-0.00648815
-0.0066884
-0.00688957
-0.00709174
-0.00729497
-0.00749936
-0.00770498
-0.00791193
-0.00812028
-0.00833011
-0.0085415
-0.00875452
-0.00896921
-0.00918562
-0.00940376
-0.00962361
-0.00984513
-0.0100682
-0.0102927
-0.0105184
-0.0107449
-0.0109719
-0.0111987
-0.0114247
-0.0116489
-0.0118702
-0.0120872
-0.0122981
-0.0125006
-0.0126922
-0.0128695
-0.0130286
-0.0131646
-0.0132718
-0.0133431
-0.0133699
-0.013342
-0.0132469
-0.0130693
-0.0127901
-0.0123844
-0.0118235
-0.011073
-0.0100914
-0.00882946
-0.00723
-0.00522899
-0.00275999
0.000235959
0.00379052
0.00787145
0.0123196
0.0167449
0.0203601
0.021736
0.0186659
0.00764959
-0.0162591
-0.05908
-0.126071
-0.219137
-0.33139
-0.441241
-0.521654
-0.540631
-0.516312
-0.482671
0.0479042
0.0478061
0.0476108
0.0473345
0.0468993
0.0463369
0.045432
0.0443067
0.0424634
0.0401952
0.0365122
0.0319703
0.024746
0.0159908
0.00218479
-0.0135557
-0.0390615
-0.0636691
-0.105743
-0.136211
0.0479463
0.0478644
0.0476898
0.0474459
0.047048
0.0465525
0.0457223
0.044732
0.0430473
0.0410253
0.0376858
0.033561
0.0269691
0.0189766
0.00585847
-0.00824889
-0.0341574
-0.0558868
-0.101054
-0.129769
0.0479827
0.0479105
0.0477513
0.0475327
0.0471668
0.046724
0.0459586
0.0450704
0.0435225
0.0416845
0.0386308
0.0348212
0.0287409
0.0213114
0.00881985
-0.00424945
-0.03012
-0.0502996
-0.0977654
-0.125562
0.0480292
0.0479681
0.0478262
0.0476365
0.0473074
0.0469248
0.0462367
0.0454646
0.0440856
0.0424482
0.0397636
0.0362724
0.0308916
0.0239866
0.0124317
0.000319107
-0.0252614
-0.0439018
-0.0940608
-0.120911
0.048081
0.0480307
0.047907
0.0477481
0.0474593
0.0471411
0.046539
0.0458886
0.0447004
0.0432674
0.0410053
0.0378262
0.0332642
0.0268426
0.0164654
0.00514591
-0.0197657
-0.0371937
-0.0900858
-0.116195
0.0481377
0.0480982
0.0479933
0.0478665
0.0476209
0.04737
0.0468618
0.0463359
0.0453605
0.0441286
0.0423474
0.039457
0.035855
0.0298488
0.0209264
0.0102153
-0.0136008
-0.0301481
-0.0856903
-0.111348
0.0481985
0.0481697
0.0480841
0.0479907
0.0477909
0.0476092
0.0472025
0.0468023
0.0460611
0.0450234
0.043783
0.0411487
0.0386613
0.0329917
0.0258359
0.0155265
-0.00668208
-0.0227241
-0.0806563
-0.106265
0.0482625
0.0482445
0.0481785
0.0481193
0.0479673
0.0478562
0.0475575
0.0472824
0.0467959
0.0459413
0.0453027
0.0428827
0.0416721
0.0362381
0.0312166
0.0210772
0.00107188
-0.0148948
-0.0747185
-0.10091
0.0483288
0.0483215
0.0482754
0.0482509
0.0481482
0.0481082
0.0479234
0.0477708