/*--------------------------------*- C++ -*----------------------------------*\
  =========                 |
  \\      /  F ield         | OpenFOAM: The Open Source CFD Toolbox
   \\    /   O peration     | Website:  https://openfoam.org
    \\  /    A nd           | Version:  7
     \\/     M anipulation  |
\*---------------------------------------------------------------------------*/
FoamFile
{
    version     2.0;
    format      ascii;
    class       surfaceScalarField;
    location    "84";
    object      phi;
}
// * * * * * * * * * * * * * * * * * * * * * * * * * * * * * * * * * * * * * //

dimensions      [0 3 -1 0 0 0 0];

internalField   nonuniform List<scalar> 
22080
(
0.000599041
1.21469e-06
-1.46869e-06
0.000599744
4.06236e-06
-4.76604e-06
0.000601127
9.06259e-06
-1.0445e-05
0.000603066
1.34054e-05
-1.53441e-05
0.000605379
1.67247e-05
-1.90384e-05
0.000607896
1.87131e-05
-2.12301e-05
0.000610447
1.93019e-05
-2.18529e-05
0.000612892
1.86234e-05
-2.10683e-05
0.000615114
1.68281e-05
-1.90498e-05
0.00061702
1.41043e-05
-1.60099e-05
0.000618536
1.06253e-05
-1.21419e-05
0.000619608
6.55713e-06
-7.62902e-06
0.000620196
2.04994e-06
-2.63745e-06
0.000620272
-2.78595e-06
2.70988e-06
0.000619815
-7.84742e-06
8.30394e-06
0.000618818
-1.3015e-05
1.40118e-05
0.00061728
-1.82165e-05
1.97544e-05
0.000615206
-2.33832e-05
2.54576e-05
0.000612605
-2.84533e-05
3.1054e-05
0.000609493
-3.33741e-05
3.64864e-05
0.000605888
-3.80987e-05
4.17042e-05
0.000601811
-4.2586e-05
4.66628e-05
0.000597287
-4.6799e-05
5.13222e-05
0.000592345
-5.07044e-05
5.56465e-05
0.000587014
-5.42721e-05
5.9603e-05
0.000581327
-5.7475e-05
6.31621e-05
0.000575319
-6.02893e-05
6.62978e-05
0.000569026
-6.26942e-05
6.89872e-05
0.000562487
-6.46732e-05
7.12119e-05
0.000555743
-6.62144e-05
7.29583e-05
0.000548836
-6.73107e-05
7.42181e-05
0.000541808
-6.79609e-05
7.49891e-05
0.000534702
-6.81698e-05
7.52757e-05
0.000527561
-6.79479e-05
7.50885e-05
0.000520428
-6.73118e-05
7.44448e-05
0.000513344
-6.62836e-05
7.33678e-05
0.000506348
-6.48904e-05
7.18861e-05
0.000499479
-6.31636e-05
7.00333e-05
0.00049277
-6.11381e-05
6.78468e-05
0.000486254
-5.88516e-05
6.53671e-05
0.000479961
-5.63437e-05
6.26372e-05
0.000473915
-5.36555e-05
5.97014e-05
0.000468138
-5.08282e-05
5.66049e-05
0.000462649
-4.79031e-05
5.33924e-05
0.000457461
-4.49204e-05
5.01082e-05
0.000452585
-4.19188e-05
4.67949e-05
0.000448027
-3.8935e-05
4.3493e-05
0.00044379
-3.60031e-05
4.02404e-05
0.000439872
-3.31541e-05
3.70716e-05
0.00043627
-3.04154e-05
3.40175e-05
0.000432976
-2.78105e-05
3.11045e-05
0.00042998
-2.53582e-05
2.83545e-05
0.000427269
-2.30729e-05
2.57842e-05
0.000424828
-2.09645e-05
2.34056e-05
0.00042264
-1.90378e-05
2.12254e-05
0.000420688
-1.72935e-05
1.92455e-05
0.000418953
-1.57282e-05
1.74636e-05
0.000417414
-1.43341e-05
1.58728e-05
0.000416051
-1.30997e-05
1.44621e-05
0.000414845
-1.20122e-05
1.32188e-05
0.000413774
-1.10566e-05
1.21279e-05
0.000412817
-1.02167e-05
1.11732e-05
0.000411955
-9.47711e-06
1.03392e-05
0.000411167
-8.8238e-06
9.61142e-06
0.000410434
-8.24359e-06
8.97662e-06
0.000409736
-7.72784e-06
8.42578e-06
0.000409054
-7.26993e-06
7.95217e-06
0.000408368
-6.86818e-06
7.55409e-06
0.000407659
-6.52495e-06
7.23404e-06
0.000406907
-6.24815e-06
7.00031e-06
0.000406091
-6.05077e-06
6.86646e-06
0.000405191
-5.95297e-06
6.85354e-06
0.000404183
-5.9794e-06
6.98747e-06
0.000403043
-6.16358e-06
7.30341e-06
0.000401745
-6.54433e-06
7.84213e-06
0.00040026
-7.16798e-06
8.65282e-06
0.000398556
-8.08667e-06
9.79082e-06
0.000396597
-9.36639e-06
1.13259e-05
0.000394342
-1.10756e-05
1.33305e-05
0.000391744
-1.32979e-05
1.58951e-05
0.000388752
-1.6111e-05
1.91036e-05
0.0003853
-1.96396e-05
2.3091e-05
0.000381318
-2.39718e-05
2.79537e-05
0.000376717
-2.93125e-05
3.39144e-05
0.000371396
-3.57478e-05
4.10683e-05
0.000365224
-4.36664e-05
4.9838e-05
0.000358063
-5.30866e-05
6.02482e-05
0.000349701
-6.48406e-05
7.32019e-05
0.000339946
-7.87035e-05
8.84595e-05
0.000328437
-9.65329e-05
0.000108042
0.000314912
-0.000117493
0.000131018
0.00029872
-0.000145343
0.000161535
0.000279502
-0.000179031
0.00019825
0.000256173
-0.000222573
0.000245902
0.000227884
-0.00028283
0.000311119
0.000194068
-0.00034367
0.000377486
0.00015055
-0.000457348
0.000500865
0.000104641
-0.00050216
0.00054807
4.20085e-05
-0.000608896
0.000671529
-0.000418568
0.000460576
0.000608224
9.99358e-07
0.000608845
3.44173e-06
0.000610109
7.79884e-06
0.000611905
1.1609e-05
0.000614074
1.45556e-05
0.00061645
1.63368e-05
0.000618869
1.68832e-05
0.000621191
1.63017e-05
0.000623298
1.47212e-05
0.000625095
1.23067e-05
0.000626509
9.21162e-06
0.000627482
5.58443e-06
0.000627972
1.5597e-06
0.000627952
-2.76573e-06
0.000627399
-7.29496e-06
0.000626306
-1.19218e-05
0.00062467
-1.65809e-05
0.000622497
-2.12098e-05
0.000619796
-2.5752e-05
0.000616581
-3.01594e-05
0.000612871
-3.43891e-05
0.000608689
-3.84033e-05
0.000604058
-4.21682e-05
0.000599007
-4.56532e-05
0.000593565
-4.88309e-05
0.000587767
-5.16765e-05
0.000581646
-5.41684e-05
0.00057524
-5.62881e-05
0.000568588
-5.8021e-05
0.00056173
-5.93567e-05
0.000554709
-6.02896e-05
0.000547567
-6.08193e-05
0.000540348
-6.0951e-05
0.000533096
-6.06951e-05
0.000525852
-6.00679e-05
0.000518658
-5.90902e-05
0.000511555
-5.77874e-05
0.000504581
-5.61889e-05
0.00049777
-5.43272e-05
0.000491155
-5.22371e-05
0.000484766
-4.99551e-05
0.00047863
-4.75186e-05
0.000472767
-4.49655e-05
0.000467197
-4.23331e-05
0.000461934
-3.96578e-05
0.00045699
-3.69744e-05
0.000452371
-3.43157e-05
0.00044808
-3.17121e-05
0.000444117
-2.9191e-05
0.000440477
-2.67763e-05
0.000437155
-2.44883e-05
0.00043414
-2.23431e-05
0.00043142
-2.03527e-05
0.00042898
-1.85245e-05
0.000426804
-1.68618e-05
0.000424874
-1.53637e-05
0.000423171
-1.40257e-05
0.000421676
-1.28391e-05
0.000420369
-1.17921e-05
0.000419228
-1.08714e-05
0.000418233
-1.0062e-05
0.000417365
-9.3478e-06
0.000416601
-8.7135e-06
0.000415923
-8.14537e-06
0.000415309
-7.63037e-06
0.000414742
-7.16018e-06
0.0004142
-6.72828e-06
0.000413665
-6.33302e-06
0.000413117
-5.97663e-06
0.000412535
-5.66661e-06
0.0004119
-5.4154e-06
0.000411189
-5.24229e-06
0.00041038
-5.1706e-06
0.000409449
-5.23226e-06
0.000408369
-5.46412e-06
0.00040711
-5.90957e-06
0.000405641
-6.61745e-06
0.000403924
-7.6499e-06
0.00040192
-9.07135e-06
0.000399581
-1.09583e-05
0.000396852
-1.33821e-05
0.000393669
-1.64565e-05
0.000389958
-2.02611e-05
0.000385627
-2.49819e-05
0.000380575
-3.06956e-05
0.000374663
-3.77543e-05
0.000367747
-4.61703e-05
0.000359605
-5.66988e-05
0.000350033
-6.91309e-05
0.000338648
-8.51484e-05
0.000325164
-0.000104009
0.00030889
-0.00012907
0.000289389
-0.00015953
0.000265549
-0.000198734
0.000236247
-0.000253528
0.00020103
-0.000308453
0.000155193
-0.00041151
0.000106375
-0.000453343
4.24285e-05
-0.00054495
-0.000376139
0.000616409
8.15766e-07
0.000616962
2.88929e-06
0.000618123
6.63719e-06
0.000619796
9.93587e-06
0.000621838
1.2514e-05
0.000624089
1.40854e-05
0.00062639
1.45826e-05
0.000628601
1.40905e-05
0.000630605
1.27175e-05
0.000632305
1.06062e-05
0.000633627
7.89031e-06
0.00063451
4.70079e-06
0.000634914
1.15647e-06
0.000634807
-2.65949e-06
0.000634169
-6.6568e-06
0.00063299
-1.07426e-05
0.000631268
-1.48585e-05
0.000629006
-1.89483e-05
0.000626215
-2.29612e-05
0.00062291
-2.68537e-05
0.000619107
-3.05869e-05
0.000614831
-3.41266e-05
0.000610104
-3.74419e-05
0.000604957
-4.05053e-05
0.000599417
-4.32917e-05
0.00059352
-4.5779e-05
0.000587299
-4.79478e-05
0.000580793
-4.97817e-05
0.00057404
-5.1268e-05
0.000567081
-5.2398e-05
0.000559959
-5.31674e-05
0.000552716
-5.35767e-05
0.000545397
-5.36316e-05
0.000538044
-5.33426e-05
0.000530702
-5.27251e-05
0.00052341
-5.1799e-05
0.000516211
-5.05883e-05
0.000509143
-4.91201e-05
0.00050224
-4.74246e-05
0.000495536
-4.55337e-05
0.000489062
-4.34807e-05
0.000482843
-4.12998e-05
0.000476903
-3.90249e-05
0.000471259
-3.66899e-05
0.000465929
-3.43271e-05
0.000460922
-3.19676e-05
0.000456246
-2.96402e-05
0.000451906
-2.73714e-05
0.0004479
-2.51852e-05
0.000444226
-2.3102e-05
0.000440876
-2.1139e-05
0.000437843
-1.93093e-05
0.000435112
-1.76223e-05
0.000432671
-1.60834e-05
0.000430503
-1.46938e-05
0.000428591
-1.34513e-05
0.000426915
-1.23503e-05
0.000425457
-1.1381e-05
0.000424196
-1.05311e-05
0.000423112
-9.78698e-06
0.000422184
-9.13369e-06
0.000421391
-8.55492e-06
0.000420713
-8.03561e-06
0.00042013
-7.56226e-06
0.000419621
-7.12193e-06
0.000419168
-6.70665e-06
0.000418749
-6.30998e-06
0.000418347
-5.93029e-06
0.00041794
-5.56965e-06
0.000417508
-5.23519e-06
0.000417032
-4.93879e-06
0.000416488
-4.69885e-06
0.000415855
-4.53741e-06
0.000415108
-4.48477e-06
0.000414219
-4.57581e-06
0.000413161
-4.85093e-06
0.000411899
-5.35559e-06
0.000410397
-6.14799e-06
0.000408614
-7.28864e-06
0.000406502
-8.84656e-06
0.000404007
-1.08865e-05
0.000401061
-1.3511e-05
0.000397591
-1.67909e-05
0.000393501
-2.0892e-05
0.000388687
-2.58819e-05
0.000383007
-3.20735e-05
0.00037631
-3.94737e-05
0.000368365
-4.87542e-05
0.00035896
-5.97253e-05
0.00034769
-7.38788e-05
0.00033425
-9.05681e-05
0.000317913
-0.000112733
0.000298174
-0.000139791
0.0002739
-0.000174459
0.000243732
-0.000223361
0.000207314
-0.000272034
0.000159529
-0.000363726
0.000108194
-0.000402008
4.31454e-05
-0.000479901
-0.000332994
0.000623588
6.5776e-07
0.000624085
2.39283e-06
0.00062516
5.56176e-06
0.000626728
8.36836e-06
0.000628659
1.05827e-05
0.000630801
1.19432e-05
0.000632998
1.23858e-05
0.000635112
1.19765e-05
0.000637024
1.0805e-05
0.000638639
8.9915e-06
0.000639879
6.65058e-06
0.000640684
3.89567e-06
0.000641011
8.29723e-07
0.000640829
-2.4777e-06
0.000640115
-5.94343e-06
0.000638861
-9.48802e-06
0.000637062
-1.30601e-05
0.000634724
-1.66099e-05
0.000631855
-2.00923e-05
0.00062847
-2.34686e-05
0.000624587
-2.67041e-05
0.000620229
-2.9768e-05
0.000615419
-3.26326e-05
0.000610187
-3.52731e-05
0.000604563
-3.76673e-05
0.000598579
-3.97954e-05
0.000592272
-4.16403e-05
0.000585678
-4.31878e-05
0.000578837
-4.4427e-05
0.00057179
-4.5351e-05
0.000564579
-4.59568e-05
0.000557248
-4.62459e-05
0.000549841
-4.62242e-05
0.000542401
-4.59025e-05
0.000534971
-4.52955e-05
0.000527594
-4.44221e-05
0.000520311
-4.33046e-05
0.000513159
-4.19684e-05
0.000506175
-4.0441e-05
0.000499393
-3.87515e-05
0.000492843
-3.69303e-05
0.000486551
-3.5008e-05
0.000480541
-3.3015e-05
0.000474833
-3.09812e-05
0.000469441
-2.89354e-05
0.000464378
-2.69045e-05
0.000459651
-2.49136e-05
0.000455265
-2.29855e-05
0.00045122
-2.11403e-05
0.000447514
-1.93952e-05
0.000444139
-1.7764e-05
0.000441087
-1.62571e-05
0.000438345
-1.48812e-05
0.000435901
-1.36393e-05
0.000433739
-1.2531e-05
0.00043184
-1.15524e-05
0.000430186
-1.06967e-05
0.000428758
-9.95329e-06
0.000427536
-9.30913e-06
0.0004265
-8.75027e-06
0.000425628
-8.2617e-06
0.0004249
-7.82697e-06
0.000424295
-7.43119e-06
0.000423794
-7.06107e-06
0.000423376
-6.70376e-06
0.000423021
-6.35161e-06
0.000422709
-5.99826e-06
0.000422421
-5.64209e-06
0.000422136
-5.28504e-06
0.000421835
-4.93384e-06
0.000421496
-4.59982e-06
0.000421098
-4.30052e-06
0.000420617
-4.05666e-06
0.000420029
-3.89693e-06
0.000419308
-3.85428e-06
0.000418423
-3.96603e-06
0.000417341
-4.27415e-06
0.000416026
-4.83291e-06
0.000414437
-5.69897e-06
0.000412523
-6.93349e-06
0.000410232
-8.59472e-06
0.000407494
-1.07733e-05
0.000404234
-1.35314e-05
0.000400356
-1.70136e-05
0.000395753
-2.12785e-05
0.000390276
-2.65974e-05
0.000383775
-3.29726e-05
0.000376008
-4.0987e-05
0.000366755
-5.04721e-05
0.000355595
-6.27188e-05
0.000342204
-7.7177e-05
0.000325829
-9.63577e-05
0.000305902
-0.000119865
0.000281281
-0.000149838
0.000250392
-0.000192471
0.000212974
-0.000234616
0.000163574
-0.000314326
0.00011005
-0.000348484
4.39422e-05
-0.000413793
-0.000289052
0.000629754
5.20126e-07
0.000630205
1.94171e-06
0.000631209
4.55789e-06
0.000632688
6.88967e-06
0.000634525
8.74526e-06
0.000636574
9.89431e-06
0.000638682
1.02783e-05
0.000640712
9.94659e-06
0.000642546
8.97106e-06
0.000644086
7.45088e-06
0.000645256
5.48129e-06
0.000645993
3.15821e-06
0.000646254
5.68752e-07
0.000646007
-2.23102e-06
0.000645229
-5.16558e-06
0.00064391
-8.1689e-06
0.000642047
-1.11967e-05
0.000639643
-1.42057e-05
0.000636707
-1.71568e-05
0.000633255
-2.0016e-05
0.000629303
-2.27527e-05
0.000624875
-2.53397e-05
0.000619995
-2.77525e-05
0.000614691
-2.99693e-05
0.000608994
-3.19704e-05
0.000602937
-3.37385e-05
0.000596556
-3.52589e-05
0.000589888
-3.65194e-05
0.000582972
-3.75112e-05
0.00057585
-3.82289e-05
0.000568564
-3.86709e-05
0.000561158
-3.88397e-05
0.000553675
-3.87416e-05
0.00054616
-3.83874e-05
0.000538656
-3.77914e-05
0.000531205
-3.69714e-05
0.000523849
-3.59482e-05
0.000516626
-3.47452e-05
0.000509572
-3.33874e-05
0.000502722
-3.19012e-05
0.000496105
-3.03139e-05
0.00048975
-2.86527e-05
0.000483679
-2.69444e-05
0.000477913
-2.52152e-05
0.000472468
-2.349e-05
0.000467355
-2.17918e-05
0.000462584
-2.01419e-05
0.000458157
-1.85592e-05
0.000454077
-1.70602e-05
0.000450341
-1.56587e-05
0.000446942
-1.43653e-05
0.000443872
-1.31874e-05
0.00044112
-1.2129e-05
0.000438672
-1.1191e-05
0.000436512
-1.0371e-05
0.000434623
-9.66332e-06
0.000432986
-9.06035e-06
0.000431583
-8.5501e-06
0.000430393
-8.11913e-06
0.000429396
-7.753e-06
0.000428571
-7.43662e-06
0.000427897
-7.15338e-06
0.000427354
-6.88852e-06
0.000426922
-6.62894e-06
0.00042658
-6.36186e-06
0.000426309
-6.07994e-06
0.000426087
-5.77691e-06
0.000425896
-5.45113e-06
0.000425716
-5.10441e-06
0.000425525
-4.7431e-06
0.000425303
-4.37797e-06
0.000425028
-4.02573e-06
0.000424678
-3.70576e-06
0.000424226
-3.44515e-06
0.000423646
-3.27496e-06
0.00042291
-3.22938e-06
0.000421982
-3.34675e-06
0.000420827
-3.67745e-06
0.000419402
-4.27442e-06
0.00041766
-5.1906e-06
0.000415543
-6.47773e-06
0.000412983
-8.2142e-06
0.000409905
-1.04534e-05
0.00040621
-1.33179e-05
0.000401789
-1.68575e-05
0.000396491
-2.12999e-05
0.000390162
-2.66435e-05
0.000382553
-3.33777e-05
0.000373438
-4.13574e-05
0.000362383
-5.16637e-05
0.000349048
-6.38419e-05
0.00033266
-7.997e-05
0.000312596
-9.98e-05
0.000287715
-0.000124957
0.000256247
-0.000161004
0.000218031
-0.0001964
0.000167321
-0.000263616
0.000111942
-0.000293104
4.48514e-05
-0.000346703
-0.0002442
0.000634902
3.98408e-07
0.000635317
1.52657e-06
0.000636263
3.61209e-06
0.000637669
5.48381e-06
0.000639429
6.98542e-06
0.0006414
7.92322e-06
0.000643433
8.24546e-06
0.000645392
7.98705e-06
0.00064716
7.20321e-06
0.000648638
5.97241e-06
0.000649749
4.37104e-06
0.00065043
2.47735e-06
0.000650636
3.62638e-07
0.000650335
-1.9303e-06
0.000649503
-4.3341e-06
0.000648131
-6.79621e-06
0.000646214
-9.27953e-06
0.000643755
-1.17473e-05
0.000640765
-1.41664e-05
0.000637256
-1.65077e-05
0.000633248
-1.87447e-05
0.000628763
-2.0854e-05
0.000623825
-2.28143e-05
0.000618462
-2.46066e-05
0.000612705
-2.6214e-05
0.000606588
-2.76215e-05
0.000600146
-2.88167e-05
0.000593417
-2.97898e-05
0.000586439
-3.05337e-05
0.000579255
-3.10448e-05
0.000571907
-3.13228e-05
0.000564438
-3.13711e-05
0.000556893
-3.11967e-05
0.000549316
-3.08102e-05
0.00054175
-3.02254e-05
0.000534238
-2.94593e-05
0.000526821
-2.8531e-05
0.000519538
-2.7462e-05
0.000512425
-2.62749e-05
0.000505518
-2.49935e-05
0.000498845
-2.36418e-05
0.000492436
-2.22436e-05
0.000486314
-2.08223e-05
0.000480499
-1.94003e-05
0.000475008
-1.79986e-05
0.000469853
-1.66364e-05
0.000465042
-1.5331e-05
0.00046058
-1.40977e-05
0.000456469
-1.29493e-05
0.000452706
-1.1896e-05
0.000449286
-1.09452e-05
0.0004462
-1.01014e-05
0.000443437
-9.36605e-06
0.000440984
-8.73752e-06
0.000438825
-8.21154e-06
0.000436942
-7.78091e-06
0.000435319
-7.43679e-06
0.000433934
-7.16596e-06
0.00043277
-6.95447e-06
0.000431804
-6.78738e-06
0.000431017
-6.64953e-06
0.000430388
-6.52407e-06
0.000429896
-6.39638e-06
0.00042952
-6.25351e-06
0.000429241
-6.08272e-06
0.000429038
-5.87702e-06
0.000428891
-5.63017e-06
0.000428781
-5.34055e-06
0.000428686
-5.00985e-06
0.000428587
-4.64397e-06
0.000428462
-4.25321e-06
0.00042829
-3.85341e-06
0.000428047
-3.46262e-06
0.000427708
-3.10636e-06
0.000427247
-2.81383e-06
0.000426634
-2.61603e-06
0.000425834
-2.54758e-06
0.000424812
-2.65498e-06
0.000423525
-2.98764e-06
0.000421925
-3.58997e-06
0.000419954
-4.50716e-06
0.000417545
-5.80514e-06
0.00041462
-7.52842e-06
0.000411079
-9.77691e-06
0.000406813
-1.25916e-05
0.000401669
-1.61555e-05
0.000395488
-2.04632e-05
0.000388018
-2.59075e-05
0.000379028
-3.23674e-05
0.000368073
-4.07087e-05
0.000354801
-5.05691e-05
0.000338425
-6.35945e-05
0.000318271
-7.96464e-05
0.000293215
-9.99002e-05
0.000261311
-0.000129101
0.000222493
-0.000157582
0.000170769
-0.000211892
0.000113877
-0.000236212
4.59087e-05
-0.000278734
-0.000198292
0.000639026
2.88757e-07
0.000639414
1.13913e-06
0.000640314
2.71179e-06
0.000641662
4.13557e-06
0.00064336
5.28741e-06
0.000645269
6.01442e-06
0.000647242
6.2726e-06
0.000649145
6.08417e-06
0.00065086
5.48851e-06
0.000652288
4.54394e-06
0.000653351
3.3082e-06
0.000653986
1.84182e-06
0.000654149
2.00293e-07
0.000653805
-1.58653e-06
0.000652931
-3.45998e-06
0.000651516
-5.38106e-06
0.000649556
-7.31977e-06
0.000647055
-9.24605e-06
0.000644021
-1.11327e-05
0.000640469
-1.29556e-05
0.000636417
-1.46924e-05
0.000631886
-1.63235e-05
0.000626902
-1.78307e-05
0.000621494
-1.91979e-05
0.000615691
-2.0411e-05
0.000609527
-2.14574e-05
0.000603037
-2.23271e-05
0.000596259
-2.30123e-05
0.000589234
-2.35079e-05
0.000582001
-2.38121e-05
0.000574604
-2.39258e-05
0.000567086
-2.38534e-05
0.000559492
-2.36025e-05
0.000551865
-2.31836e-05
0.00054425
-2.26102e-05
0.000536689
-2.18981e-05
0.000529223
-2.10652e-05
0.000521892
-2.01307e-05
0.000514732
-1.91152e-05
0.000507778
-1.80394e-05
0.000501061
-1.69244e-05
0.000494608
-1.57907e-05
0.000488444
-1.46581e-05
0.000482588
-1.35452e-05
0.000477059
-1.24692e-05
0.000471868
-1.14455e-05
0.000467024
-1.04874e-05
0.000462533
-9.60653e-06
0.000458396
-8.81197e-06
0.000454611
-8.11053e-06
0.000451172
-7.50634e-06
0.000448071
-7.00084e-06
0.000445298
-6.5928e-06
0.000442839
-6.27833e-06
0.000440678
-6.05114e-06
0.0004388
-5.90239e-06
0.000437185
-5.82213e-06
0.000435815
-5.79581e-06
0.000434669
-5.80893e-06
0.000433728
-5.84604e-06
0.00043297
-5.89188e-06
0.000432376
-5.92934e-06
0.000431923
-5.94389e-06
0.000431592
-5.92277e-06
0.000431363
-5.85322e-06
0.000431214
-5.72858e-06
0.000431127
-5.54271e-06
0.00043108
-5.29393e-06
0.000431054
-4.98382e-06
0.000431028
-4.61789e-06
0.000430981
-4.20591e-06
0.00043089
-3.7629e-06
0.000430733
-3.30558e-06
0.000430485
-2.8579e-06
0.000430118
-2.4473e-06
0.000429604
-2.10153e-06
0.000428908
-1.85135e-06
0.000427992
-1.73935e-06
0.000426816
-1.81168e-06
0.00042533
-2.10406e-06
0.000423478
-2.65514e-06
0.000421191
-3.51805e-06
0.000418391
-4.72838e-06
0.000414977
-6.363e-06
0.00041084
-8.45412e-06
0.000405823
-1.1139e-05
0.000399769
-1.4409e-05
0.000392419
-1.85574e-05
0.00038354
-2.34887e-05
0.00037268
-2.98486e-05
0.000359476
-3.7365e-05
0.000343136
-4.72546e-05
0.000322942
-5.94527e-05
0.000297792
-7.47494e-05
0.000265591
-9.68999e-05
0.000226367
-0.000118358
0.000173912
-0.000159437
0.000115857
-0.000178158
4.71283e-05
-0.000210005
-0.000151163
0.000642124
1.87785e-07
0.000642491
7.71916e-07
0.000643358
1.84521e-06
0.000644663
2.83034e-06
0.000646314
3.63583e-06
0.000648176
4.15255e-06
0.000650104
4.34502e-06
0.000651964
4.22408e-06
0.000653638
3.81393e-06
0.000655029
3.15314e-06
0.000656056
2.281e-06
0.000656658
1.24032e-06
0.000656788
7.03619e-08
0.000656412
-1.21076e-06
0.000655506
-2.55432e-06
0.00065406
-3.93463e-06
0.000652069
-5.32879e-06
0.000649536
-6.7135e-06
0.000646471
-8.06758e-06
0.000642887
-9.37171e-06
0.000638803
-1.06081e-05
0.00063424
-1.17605e-05
0.000629224
-1.28143e-05
0.000623782
-1.37561e-05
0.000617945
-1.45745e-05
0.000611748
-1.52594e-05
0.000605224
-1.58032e-05
0.000598412
-1.62002e-05
0.000591351
-1.64473e-05
0.000584083
-1.65442e-05
0.000576651
-1.64933e-05
0.000569097
-1.63e-05
0.000561467
-1.59723e-05
0.000553804
-1.55209e-05
0.000546153
-1.49587e-05
0.000538555
-1.43006e-05
0.000531053
-1.3563e-05
0.000523686
-1.27633e-05
0.00051649
-1.19196e-05
0.000509501
-1.105e-05
0.000502749
-1.01724e-05
0.000496262
-9.30408e-06
0.000490065
-8.46116e-06
0.000484179
-7.65864e-06
0.000478619
-6.90992e-06
0.0004734
-6.2264e-06
0.000468531
-5.6177e-06
0.000464015
-5.09145e-06
0.000459857
-4.65322e-06
0.000456053
-4.30631e-06
0.000452598
-4.0516e-06
0.000449484
-3.88753e-06
0.000446702
-3.81014e-06
0.000444237
-3.81321e-06
0.000442074
-3.88844e-06
0.000440197
-4.02529e-06
0.000438588
-4.21276e-06
0.000437227
-4.43486e-06
0.000436094
-4.6766e-06
0.00043517
-4.92188e-06
0.000434434
-5.15542e-06
0.000433864
-5.35978e-06
0.000433441
-5.52053e-06
0.000433143
-5.62505e-06
0.00043295
-5.66055e-06
0.000432842
-5.62072e-06
0.000432799
-5.49949e-06
0.0004328
-5.29514e-06
0.000432826
-5.00915e-06
0.000432854
-4.64659e-06
0.000432865
-4.21677e-06
0.000432836
-3.73387e-06
0.000432744
-3.21328e-06
0.000432564
-2.67744e-06
0.000432268
-2.15205e-06
0.000431828
-1.6616e-06
0.00043121
-1.23257e-06
0.000430375
-9.04819e-07
0.000429284
-7.20487e-07
0.000427886
-7.05908e-07
0.000426125
-8.94087e-07
0.000423932
-1.32499e-06
0.000421228
-2.02505e-06
0.000417914
-3.04859e-06
0.000413878
-4.41856e-06
0.000408965
-6.22573e-06
0.000403014
-8.45835e-06
0.000395766
-1.13089e-05
0.000386985
-1.47077e-05
0.000376214
-1.90783e-05
0.000363085
-2.42352e-05
0.000346803
-3.09727e-05
0.000326616
-3.92663e-05
0.000301451
-4.95838e-05
0.000269088
-6.45375e-05
0.000229653
-7.89229e-05
0.000176739
-0.000106523
0.000117877
-0.000119296
4.85207e-05
-0.000140649
-0.000102643
0.000644191
9.24354e-08
0.000644545
4.18051e-07
0.000645389
1.00114e-06
0.000646665
1.55398e-06
0.000648286
2.01556e-06
0.000650116
2.32239e-06
0.000652013
2.44806e-06
0.000653844
2.39287e-06
0.000655492
2.16635e-06
0.000656857
1.78758e-06
0.000657861
1.27759e-06
0.00065844
6.60979e-07
0.000658548
-3.79371e-08
0.000658152
-8.14446e-07
0.000657226
-1.62824e-06
0.000655759
-2.46814e-06
0.000653749
-3.31797e-06
0.000651196
-4.16124e-06
0.000648111
-4.98275e-06
0.000644508
-5.76816e-06
0.000640404
-6.50399e-06
0.000635821
-7.17773e-06
0.000630785
-7.77789e-06
0.000625323
-8.29419e-06
0.000619466
-8.71768e-06
0.000613247
-9.041e-06
0.000606703
-9.25864e-06
0.00059987
-9.36713e-06
0.000592788
-9.36535e-06
0.000585498
-9.25465e-06
0.000578044
-9.03884e-06
0.000570468
-8.72422e-06
0.000562815
-8.31941e-06
0.000555129
-7.83508e-06
0.000547455
-7.28383e-06
0.000539833
-6.6795e-06
0.000532307
-6.03705e-06
0.000524916
-5.372e-06
0.000517697
-4.70006e-06
0.000510683
-4.03668e-06
0.000503907
-3.3967e-06
0.000497397
-2.79402e-06
0.000491178
-2.2413e-06
0.000485269
-1.74981e-06
0.000479688
-1.32915e-06
0.000474448
-9.86824e-07
0.000469559
-7.28628e-07
0.000465026
-5.58405e-07
0.000460851
-4.78068e-07
0.000457032
-4.87449e-07
0.000453565
-5.8415e-07
0.000450441
-7.63597e-07
0.00044765
-1.01914e-06
0.000445179
-1.34214e-06
0.000443013
-1.7223e-06
0.000441135
-2.14736e-06
0.000439527
-2.60533e-06
0.000438171
-3.07854e-06
0.000437046
-3.55176e-06
0.000436132
-4.00806e-06
0.000435409
-4.43213e-06
0.000434855
-4.80623e-06
0.000434451
-5.11597e-06
0.000434175
-5.34888e-06
0.000434006
-5.49213e-06
0.000433925
-5.53974e-06
0.000433912
-5.48571e-06
0.000433945
-5.3283e-06
0.000434004
-5.06888e-06
0.00043407
-4.71209e-06
0.00043412
-4.26679e-06
0.000434132
-3.74632e-06
0.000434084
-3.16476e-06
0.00043395
-2.54307e-06
0.000433703
-1.90528e-06
0.000433314
-1.27258e-06
0.000432749
-6.67885e-07
0.000431969
-1.24415e-07
0.000430936
3.12623e-07
0.000429599
6.30409e-07
0.000427902
8.02825e-07
0.000425776
8.01353e-07
0.000423143
6.07997e-07
0.000419899
1.95152e-07
0.000415939
-4.58417e-07
0.000411104
-1.39077e-06
0.000405234
-2.58838e-06
0.000398068
-4.14265e-06
0.00038937
-6.01013e-06
0.000378684
-8.39148e-06
0.000365633
-1.11842e-05
0.00034943
-1.47699e-05
0.000329297
-1.91331e-05
0.000304193
-2.44802e-05
0.000271802
-3.21469e-05
0.000232345
-3.94659e-05
0.000179241
-5.3419e-05
0.000119932
-5.99863e-05
5.01025e-05
-7.08197e-05
-5.25403e-05
0.000645227
-1.38456e-10
0.000645574
7.10364e-08
0.000646406
1.68761e-07
0.000647668
2.92676e-07
0.000649271
4.11674e-07
0.000651085
5.08816e-07
0.000652966
5.67039e-07
0.000654782
5.76612e-07
0.000656416
5.32614e-07
0.000657769
4.34786e-07
0.00065876
2.86031e-07
0.000659328
9.29938e-08
0.000659428
-1.37454e-07
0.000659021
-4.08023e-07
0.000658086
-6.92908e-07
0.000656611
-9.92821e-07
0.000654591
-1.29871e-06
0.000652031
-1.60086e-06
0.000648938
-1.89007e-06
0.000645327
-2.157e-06
0.000641216
-2.39249e-06
0.000636626
-2.58768e-06
0.000631582
-2.73437e-06
0.000626113
-2.82517e-06
0.000620249
-2.85382e-06
0.000614024
-2.81545e-06
0.000607472
-2.70683e-06
0.000600632
-2.52665e-06
0.000593542
-2.27574e-06
0.000586244
-1.95712e-06
0.000578782
-1.576e-06
0.000571197
-1.13967e-06
0.000563535
-6.57274e-07
0.000555839
-1.39548e-07
0.000548154
4.01291e-07
0.000540522
9.5238e-07
0.000532985
1.50018e-06
0.000525582
2.03107e-06
0.00051835
2.53166e-06
0.000511324
2.98919e-06
0.000504536
3.39186e-06
0.000498013
3.72908e-06
0.00049178
3.99171e-06
0.000485858
4.17218e-06
0.000480264
4.26473e-06
0.000475011
4.26564e-06
0.00047011
4.17295e-06
0.000465565
3.98659e-06
0.000461378
3.70832e-06
0.000457549
3.34182e-06
0.000454072
2.89276e-06
0.00045094
2.36872e-06
0.000448142
1.77908e-06
0.000445665
1.13483e-06
0.000443494
4.48324e-07
0.000441613
-2.66449e-07
0.000440004
-9.96531e-07
0.000438648
-1.72258e-06
0.000437525
-2.42838e-06
0.000436615
-3.0978e-06
0.000435897
-3.71401e-06
0.00043535
-4.25953e-06
0.000434954
-4.71992e-06
0.000434688
-5.08285e-06
0.000434531
-5.33541e-06
0.000434463
-5.47197e-06
0.000434464
-5.48663e-06
0.000434514
-5.37759e-06
0.000434591
-5.14613e-06
0.000434675
-4.79645e-06
0.000434745
-4.33699e-06
0.000434779
-3.78026e-06
0.000434754
-3.13903e-06
0.000434643
-2.43283e-06
0.000434422
-1.68416e-06
0.000434061
-9.10791e-07
0.000433523
-1.30096e-07
0.000432776
6.22346e-07
0.000431775
1.31375e-06
0.000430471
1.93378e-06
0.00042881
2.46399e-06
0.000426722
2.88936e-06
0.00042413
3.20057e-06
0.000420935
3.39022e-06
0.000417024
3.45209e-06
0.000412241
3.39191e-06
0.000406429
3.22415e-06
0.000399326
2.96061e-06
0.000390697
2.61825e-06
0.000380087
2.2184e-06
0.000367121
1.78242e-06
0.000351015
1.33558e-06
0.000330985
8.97191e-07
0.000306013
4.91793e-07
0.000273735
1.31284e-07
0.000234436
-1.66953e-07
0.000181419
-4.01862e-07
0.000122023
-5.90865e-07
5.19006e-05
-6.9696e-07
-6.39694e-07
0.000408388
5.92129e-06
-6.9035e-06
0.000410387
1.51918e-05
-1.7191e-05
0.000413207
2.72656e-05
-3.00854e-05
0.000416626
3.72296e-05
-4.06483e-05
0.000420265
4.35396e-05
-4.71786e-05
0.000423933
4.68273e-05
-5.04954e-05
0.000427482
4.71269e-05
-5.06755e-05
0.000430806
4.49718e-05
-4.82965e-05
0.000433832
4.07543e-05
-4.37798e-05
0.000436503
3.48901e-05
-3.75614e-05
0.00043878
2.77225e-05
-2.99992e-05
0.000440633
1.95579e-05
-2.14113e-05
0.000442043
1.06674e-05
-1.2077e-05
0.000442996
1.27347e-06
-2.22627e-06
0.000443489
-8.47584e-06
7.98224e-06
0.000443522
-1.8369e-05
1.83359e-05
0.0004431
-2.82744e-05
2.86967e-05
0.00044223
-3.80815e-05
3.89514e-05
0.000440924
-4.76854e-05
4.89916e-05
0.000439196
-5.69996e-05
5.87277e-05
0.000437063
-6.59467e-05
6.80798e-05
0.000434544
-7.44588e-05
7.69776e-05
0.000431661
-8.24747e-05
8.5358e-05
0.000428436
-8.99385e-05
9.3163e-05
0.000424896
-9.67991e-05
0.00010034
0.000421066
-0.000103009
0.000106839
0.000416977
-0.000108526
0.000112615
0.000412658
-0.00011331
0.000117629
0.000408141
-0.000117331
0.000121847
0.00040346
-0.000120561
0.000125242
0.00039865
-0.000122986
0.000127796
0.000393744
-0.000124597
0.000129503
0.000388777
-0.000125398
0.000130365
0.000383783
-0.000125405
0.000130399
0.000378794
-0.000124641
0.000129629
0.000373843
-0.000123143
0.000128094
0.000368957
-0.000120954
0.00012584
0.000364165
-0.000118129
0.000122921
0.000359489
-0.000114727
0.000119403
0.000354951
-0.000110814
0.000115352
0.000350569
-0.00010646
0.000110843
0.000346357
-0.00010174
0.000105952
0.000342325
-9.6727e-05
0.000100759
0.000338482
-9.14983e-05
9.53419e-05
0.00033483
-8.61287e-05
8.97804e-05
0.00033137
-8.06915e-05
8.41511e-05
0.0003281
-7.5257e-05
7.85272e-05
0.000325013
-6.98911e-05
7.2978e-05
0.000322101
-6.46549e-05
6.75672e-05
0.000319352
-5.96033e-05
6.23524e-05
0.000316752
-5.47844e-05
5.73838e-05
0.000314288
-5.02387e-05
5.27035e-05
0.000311941
-4.59985e-05
4.83453e-05
0.000309694
-4.2088e-05
4.43347e-05
0.000307529
-3.85233e-05
4.06882e-05
0.000305427
-3.53128e-05
3.74146e-05
0.00030337
-3.24586e-05
3.45162e-05
0.000301337
-2.99563e-05
3.19887e-05
0.000299311
-2.7795e-05
2.9821e-05
0.000297273
-2.59607e-05
2.79986e-05
0.000295206
-2.44359e-05
2.65035e-05
0.000293091
-2.32019e-05
2.53166e-05
0.000290913
-2.22402e-05
2.44189e-05
0.000288653
-2.15338e-05
2.37931e-05
0.000286297
-2.10678e-05
2.34239e-05
0.000283828
-2.08318e-05
2.3301e-05
0.000281229
-2.08194e-05
2.3418e-05
0.000278485
-2.10307e-05
2.37753e-05
0.000275577
-2.1472e-05
2.43796e-05
0.000272489
-2.21574e-05
2.52459e-05
0.000269201
-2.31086e-05
2.63968e-05
0.000265693
-2.43573e-05
2.78652e-05
0.000261943
-2.59431e-05
2.96926e-05
0.000257928
-2.79176e-05
3.19321e-05
0.000253623
-3.03409e-05
3.4646e-05
0.000249
-3.32863e-05
3.79101e-05
0.000244027
-3.68365e-05
4.18094e-05
0.000238671
-4.10921e-05
4.64475e-05
0.000232897
-4.616e-05
5.19343e-05
0.000226664
-5.21764e-05
5.84095e-05
0.000219928
-5.92761e-05
6.6012e-05
0.000212641
-6.76575e-05
7.49439e-05
0.000204752
-7.74868e-05
8.53767e-05
0.000196202
-8.90837e-05
9.76337e-05
0.000186927
-0.00010264
0.000111915
0.000176864
-0.000118734
0.000128797
0.000165935
-0.000137525
0.000148454
0.000154072
-0.000160181
0.000172044
0.00014119
-0.000186604
0.000199486
0.000127239
-0.000219376
0.000233328
0.000112173
-0.000257322
0.000272388
9.59754e-05
-0.000306459
0.000322656
7.89561e-05
-0.000362271
0.000379291
6.09153e-05
-0.000437321
0.000455362
4.39823e-05
-0.000521849
0.000538781
2.65031e-05
-0.000625571
0.00064305
1.71213e-05
-0.000755682
0.000765064
6.48455e-06
-0.00081305
0.000823687
5.8277e-06
-0.000971455
0.000972111
-0.000434221