/*--------------------------------*- C++ -*----------------------------------*\
  =========                 |
  \\      /  F ield         | OpenFOAM: The Open Source CFD Toolbox
   \\    /   O peration     | Website:  https://openfoam.org
    \\  /    A nd           | Version:  7
     \\/     M anipulation  |
\*---------------------------------------------------------------------------*/
FoamFile
{
    version     2.0;
    format      ascii;
    class       volScalarField;
    location    "20";
    object      p;
}
// * * * * * * * * * * * * * * * * * * * * * * * * * * * * * * * * * * * * * //

dimensions      [0 2 -2 0 0 0 0];

internalField   nonuniform List<scalar> 
75
(
-0.0106322
-0.0242885
-0.0505124
-0.112503
-0.181955
0.00113508
-6.65646e-05
-0.00174234
-0.0109357
-0.0246155
-0.051128
-0.113207
0.00096666
-0.000350518
-0.00213656
-0.0114699
-0.0251252
-0.0516091
-0.112688
0.000764732
-0.00068001
-0.00263089
-0.0120852
-0.0257922
-0.0522692
-0.111976
0.000550117
-0.00101872
-0.00314791
-0.0126641
-0.0263888
-0.0525914
-0.11019
0.000335735
-0.00134452
-0.00364226
-0.0131599
-0.0268714
-0.052664
-0.108093
0.00012982
-0.00164089
-0.00407632
-0.0135283
-0.0271401
-0.0523111
-0.105155
-6.43067e-05
-0.00190019
-0.00443631
-0.0137703
-0.0272441
-0.0518169
-0.102683
-0.000242852
-0.00211644
-0.00470771
-0.0138498
-0.0270226
-0.0506435
-0.0986566
-0.000406187
-0.00230165
-0.00491229
-0.0138705
-0.0268678
-0.049991
-0.0968491
-0.000607154
-0.00245986
-0.00500537
-0.0135518
-0.0259378
-0.0475935
-0.0908267
)
;

boundaryField
{
    inlet
    {
        type            zeroGradient;
    }
    outlet
    {
        type            fixedValue;
        value           uniform 0;
    }
    polygon
    {
        type            zeroGradient;
    }
    top
    {
        type            symmetryPlane;
    }
    bottom
    {
        type            symmetryPlane;
    }
    outside
    {
        type            slip;
    }
    procBoundary3to2
    {
        type            processor;
        value           nonuniform List<scalar> 5(-0.158839 -0.154082 -0.144116 -0.141234 -0.129589);
    }
    procBoundary3to6
    {
        type            processor;
        value           nonuniform List<scalar> 7(-0.277835 -0.183296 -0.183296 -0.181487 -0.178776 -0.172828 -0.167303);
    }
    procBoundary3to7
    {
        type            processor;
        value           nonuniform List<scalar> 9(-0.0104937 -0.0240862 -0.050051 -0.111833 -0.180993 0.00122218 6.93135e-05 -0.00154403 -0.00154403);
    }
}


// ************************************************************************* //
