/*--------------------------------*- C++ -*----------------------------------*\
  =========                 |
  \\      /  F ield         | OpenFOAM: The Open Source CFD Toolbox
   \\    /   O peration     | Website:  https://openfoam.org
    \\  /    A nd           | Version:  7
     \\/     M anipulation  |
\*---------------------------------------------------------------------------*/
FoamFile
{
    version     2.0;
    format      ascii;
    class       volScalarField;
    location    "5";
    object      p;
}
// * * * * * * * * * * * * * * * * * * * * * * * * * * * * * * * * * * * * * //

dimensions      [0 2 -2 0 0 0 0];

internalField   nonuniform List<scalar> 
75
(
0.222563
0.0897435
0.230082
0.122077
0.237728
0.15101
0.243978
0.176301
0.24887
0.19803
0.252525
0.216246
0.255029
0.230953
0.256179
0.242097
0.256743
0.249758
0.254838
0.254361
-0.26525
-0.356574
-0.457143
-0.893708
-0.265059
-0.35272
-0.467421
-0.785489
-0.262637
-0.345583
-0.459073
-0.677335
-0.258187
-0.33571
-0.443996
-0.594655
-0.251908
-0.323736
-0.422013
-0.520844
-0.24403
-0.309875
-0.396368
-0.458588
-0.235709
-0.295322
-0.368207
-0.403024
-0.228096
-0.281693
-0.339588
-0.353485
-0.218576
-0.267157
-0.309801
-0.309414
-0.1984
-0.242381
-0.273682
-0.271359
0.0406397
0.0297658
0.00151128
0.0467593
0.0522669
0.00890867
0.0530207
0.0853294
-0.00103588
0.0608706
0.126288
0.0334572
0.069252
0.172465
-0.0133547
)
;

boundaryField
{
    inlet
    {
        type            zeroGradient;
    }
    outlet
    {
        type            fixedValue;
        value           nonuniform 0();
    }
    polygon
    {
        type            zeroGradient;
    }
    top
    {
        type            symmetryPlane;
    }
    bottom
    {
        type            symmetryPlane;
    }
    outside
    {
        type            slip;
    }
    procBoundary5to0
    {
        type            processor;
        value           nonuniform List<scalar> 5(0.0578595 0.0663368 0.0757566 0.0846602 0.0927143);
    }
    procBoundary5to1
    {
        type            processor;
        value           nonuniform List<scalar> 
14
(
-0.215394
-0.214787
-0.21305
-0.210179
-0.206209
-0.201392
-0.196683
-0.192667
-0.186452
-0.170699
-0.170699
0.0350986
0.0110426
-0.00387169
)
;
    }
    procBoundary5to4
    {
        type            processor;
        value           nonuniform List<scalar> 
11
(
0.0739824
0.0739824
0.0743566
0.0747076
0.0748145
0.0746631
0.0742529
0.0736068
0.0726055
0.071672
0.069608
)
;
    }
    procBoundary5to6
    {
        type            processor;
        value           nonuniform List<scalar> 4(-0.260116 -0.353274 -0.433211 -1.01216);
    }
    procBoundary5to9
    {
        type            processor;
        value           nonuniform List<scalar> 2(0.254838 0.254361);
    }
}


// ************************************************************************* //
