/*--------------------------------*- C++ -*----------------------------------*\
  =========                 |
  \\      /  F ield         | OpenFOAM: The Open Source CFD Toolbox
   \\    /   O peration     | Website:  https://openfoam.org
    \\  /    A nd           | Version:  7
     \\/     M anipulation  |
\*---------------------------------------------------------------------------*/
FoamFile
{
    version     2.0;
    format      ascii;
    class       surfaceScalarField;
    location    "62";
    object      phi;
}
// * * * * * * * * * * * * * * * * * * * * * * * * * * * * * * * * * * * * * //

dimensions      [0 3 -1 0 0 0 0];

internalField   nonuniform List<scalar> 
22080
(
0.000860646
1.79955e-06
-2.23475e-06
0.000861653
3.81245e-06
-4.8197e-06
0.000863864
1.03535e-05
-1.25649e-05
0.000866895
1.42254e-05
-1.72561e-05
0.000870339
1.60376e-05
-1.9481e-05
0.000873881
1.57786e-05
-1.93212e-05
0.000877222
1.36492e-05
-1.69897e-05
0.000880151
1.01844e-05
-1.31135e-05
0.000882506
5.67983e-06
-8.03482e-06
0.000884172
4.12944e-07
-2.07904e-06
0.00088506
-5.47456e-06
4.58683e-06
0.000885099
-1.1875e-05
1.18357e-05
0.000884237
-1.87304e-05
1.95927e-05
0.000882432
-2.59979e-05
2.78023e-05
0.000879654
-3.36456e-05
3.64235e-05
0.000875883
-4.16091e-05
4.53807e-05
0.000871108
-4.98075e-05
5.45821e-05
0.000865331
-5.81456e-05
6.39224e-05
0.000858562
-6.65288e-05
7.32982e-05
0.000850816
-7.48731e-05
8.26185e-05
0.000842117
-8.31133e-05
9.1813e-05
0.000832488
-9.12033e-05
0.000100832
0.000821957
-9.9112e-05
0.000109643
0.000810555
-0.000106815
0.000118217
0.000798315
-0.000114285
0.000126525
0.000785274
-0.000121484
0.000134525
0.000771476
-0.000128359
0.000142157
0.000756972
-0.000134836
0.000149339
0.000741825
-0.000140825
0.000155972
0.000726105
-0.000146224
0.000161944
0.000709894
-0.000150923
0.000167134
0.000693284
-0.000154817
0.000171426
0.000676377
-0.000157807
0.000174714
0.000659282
-0.000159814
0.00017691
0.000642113
-0.000160776
0.000177945
0.000624989
-0.000160651
0.000177776
0.000608028
-0.000159421
0.000176381
0.000591351
-0.000157085
0.000173762
0.000575074
-0.000153662
0.000169939
0.000559308
-0.000149189
0.000164954
0.00054416
-0.000143723
0.000158871
0.000529725
-0.00013734
0.000151776
0.000516086
-0.00013014
0.000143779
0.000503315
-0.000122242
0.000135013
0.000491465
-0.000113784
0.000125634
0.000480574
-0.00010492
0.000115811
0.000470659
-9.5812e-05
0.000105726
0.000461723
-8.66255e-05
9.55619e-05
0.000453748
-7.7521e-05
8.54961e-05
0.000446702
-6.86474e-05
7.56936e-05
0.000440538
-6.01365e-05
6.62997e-05
0.000435201
-5.20987e-05
5.7436e-05
0.000430624
-4.46201e-05
4.91969e-05
0.000426737
-3.77624e-05
4.16497e-05
0.000423465
-3.15622e-05
3.4834e-05
0.000420735
-2.60343e-05
2.87648e-05
0.000418473
-2.11736e-05
2.34358e-05
0.000416609
-1.69592e-05
1.88225e-05
0.00041508
-1.33571e-05
1.48867e-05
0.000413824
-1.03249e-05
1.15808e-05
0.000412787
-7.81439e-06
8.85087e-06
0.000411922
-5.77379e-06
6.63938e-06
0.000411184
-4.15147e-06
4.889e-06
0.000410537
-2.89663e-06
3.54391e-06
0.000409947
-1.9647e-06
2.55487e-06
0.000409384
-1.31477e-06
1.8773e-06
0.000408823
-9.15961e-07
1.47663e-06
0.000408242
-7.46007e-07
1.32763e-06
0.000407618
-7.80008e-07
1.40414e-06
0.000406931
-1.00464e-06
1.69158e-06
0.000406161
-1.41069e-06
2.18038e-06
0.000405289
-2.0004e-06
2.87249e-06
0.000404294
-2.77858e-06
3.77336e-06
0.000403155
-3.75337e-06
4.89309e-06
0.000401846
-4.94349e-06
6.25216e-06
0.000400342
-6.3768e-06
7.88079e-06
0.000398613
-8.08357e-06
9.81241e-06
0.000396626
-1.01066e-05
1.20941e-05
0.000394341
-1.24913e-05
1.47759e-05
0.000391714
-1.53058e-05
1.79325e-05
0.000388694
-1.86131e-05
2.16334e-05
0.000385218
-2.25261e-05
2.6002e-05
0.000381216
-2.71248e-05
3.11267e-05
0.0003766
-3.26113e-05
3.72278e-05
0.00037127
-3.90699e-05
4.43993e-05
0.000365095
-4.68973e-05
5.30721e-05
0.000357936
-5.61233e-05
6.32825e-05
0.000349583
-6.75951e-05
7.59486e-05
0.000339839
-8.11059e-05
9.08495e-05
0.000328346
-9.85348e-05
0.000110028
0.000314839
-0.000119068
0.000132574
0.000298667
-0.000146488
0.00016266
0.000279467
-0.000179761
0.000198961
0.000256156
-0.000222928
0.000246239
0.000227882
-0.000282858
0.000311133
0.000194077
-0.000343437
0.000377242
0.000150566
-0.000456915
0.000500426
0.000104656
-0.000501592
0.000547502
4.20171e-05
-0.000608271
0.00067091
-0.000418085
0.000460103
0.000877409
1.44579e-06
0.000878216
3.00551e-06
0.000880089
8.4799e-06
0.000882672
1.16428e-05
0.000885621
1.30883e-05
0.000888647
1.27527e-05
0.000891475
1.08207e-05
0.000893911
7.7486e-06
0.000895802
3.78925e-06
0.000897039
-8.2392e-07
0.000897535
-5.97042e-06
0.000897221
-1.15616e-05
0.000896045
-1.75537e-05
0.000893961
-2.39148e-05
0.000890937
-3.06209e-05
0.000886946
-3.76184e-05
0.000881975
-4.48366e-05
0.000876021
-5.21911e-05
0.000869088
-5.95965e-05
0.000861192
-6.69765e-05
0.00085235
-7.42713e-05
0.000842585
-8.1439e-05
0.000831924
-8.84509e-05
0.000820395
-9.52852e-05
0.000808028
-0.000101918
0.000794859
-0.000108315
0.00078093
-0.00011443
0.00076629
-0.000120196
0.000750999
-0.000125534
0.000735127
-0.000130351
0.000718754
-0.00013455
0.000701972
-0.000138035
0.000684883
-0.000140718
0.000667594
-0.000142526
0.000650222
-0.000143404
0.000632886
-0.000143315
0.000615706
-0.000142241
0.000598802
-0.000140181
0.000582293
-0.000137153
0.000566292
-0.000133188
0.000550905
-0.000128336
0.000536231
-0.000122666
0.000522356
-0.000116265
0.000509351
-0.000109238
0.000497275
-0.000101708
0.000486165
-9.38103e-05
0.000476044
-8.56906e-05
0.000466914
-7.74954e-05
0.00045876
-6.93677e-05
0.000451554
-6.14405e-05
0.000445249
-5.38317e-05
0.00043979
-4.66401e-05
0.000435113
-3.99432e-05
0.000431147
-3.37966e-05
0.000427819
-2.82338e-05
0.000425053
-2.32687e-05
0.000422777
-1.88977e-05
0.000420921
-1.51025e-05
0.000419417
-1.18537e-05
0.000418206
-9.11372e-06
0.000417232
-6.83995e-06
0.000416444
-4.98642e-06
0.0004158
-3.5072e-06
0.00041526
-2.35657e-06
0.00041479
-1.49473e-06
0.00041436
-8.84545e-07
0.000413942
-4.98402e-07
0.000413515
-3.18316e-07
0.000413055
-3.20492e-07
0.000412542
-4.91792e-07
0.000411956
-8.24583e-07
0.000411277
-1.32106e-06
0.000410484
-1.98561e-06
0.000409555
-2.82435e-06
0.000408466
-3.85421e-06
0.00040719
-5.10077e-06
0.000405697
-6.59101e-06
0.000403954
-8.36335e-06
0.000401921
-1.04585e-05
0.000399553
-1.29377e-05
0.000396797
-1.58573e-05
0.00039359
-1.93191e-05
0.00038986
-2.33945e-05
0.000385515
-2.82662e-05
0.000380453
-3.40087e-05
0.000374538
-4.09818e-05
0.000367624
-4.92091e-05
0.000359489
-5.94605e-05
0.000349928
-7.15449e-05
0.000338559
-8.71654e-05
0.000325092
-0.000105601
0.000308837
-0.000130233
0.000289354
-0.000160278
0.000265531
-0.000199106
0.000236244
-0.000253571
0.000201038
-0.000308231
0.000155208
-0.000411085
0.00010639
-0.000452774
4.24377e-05
-0.000544319
-0.000375648
0.00089245
1.1563e-06
0.0008931
2.35546e-06
0.000894692
6.88773e-06
0.000896896
9.43858e-06
0.000899417
1.05677e-05
0.000901987
1.01825e-05
0.000904356
8.45182e-06
0.000906343
5.76137e-06
0.000907807
2.32568e-06
0.000908646
-1.66321e-06
0.000908776
-6.10071e-06
0.000908133
-1.0918e-05
0.000906661
-1.60818e-05
0.000904316
-2.15699e-05
0.00090106
-2.73649e-05
0.000896864
-3.34226e-05
0.00089171
-3.9683e-05
0.000885591
-4.60721e-05
0.000878509
-5.25143e-05
0.000870474
-5.89415e-05
0.000861503
-6.53001e-05
0.000851616
-7.15523e-05
0.000840838
-7.76726e-05
0.000829194
-8.36415e-05
0.000816714
-8.9438e-05
0.000803432
-9.50331e-05
0.000789387
-0.000100385
0.000774627
-0.000105436
0.00075921
-0.000110117
0.000743203
-0.000114345
0.000726688
-0.000118034
0.000709753
-0.000121101
0.000692502
-0.000123466
0.000675043
-0.000125067
0.000657491
-0.000125852
0.000639966
-0.00012579
0.00062259
-0.000124865
0.000605485
-0.000123076
0.000588769
-0.000120437
0.000572557
-0.000116976
0.000556957
-0.000112737
0.00054207
-0.000107779
0.000527982
-0.000102177
0.000514768
-9.60238e-05
0.000502486
-8.94265e-05
0.00049118
-8.25036e-05
0.000480871
-7.53818e-05
0.000471565
-6.81895e-05
0.00046325
-6.10523e-05
0.000455896
-5.40868e-05
0.000449461
-4.73968e-05
0.00044389
-4.10694e-05
0.00043912
-3.5173e-05
0.00043508
-2.97568e-05
0.000431698
-2.48509e-05
0.000428897
-2.04681e-05
0.000426605
-1.66057e-05
0.000424751
-1.32482e-05
0.000423267
-1.03702e-05
0.000422092
-7.93908e-06
0.00042117
-5.91767e-06
0.00042045
-4.26578e-06
0.000419886
-2.94325e-06
0.000419438
-1.90944e-06
0.000419073
-1.12937e-06
0.000418758
-5.69438e-07
0.000418467
-2.07599e-07
0.000418175
-2.58824e-08
0.000417859
-4.37936e-09
0.0004175
-1.32844e-07
0.000417075
-4.00175e-07
0.000416566
-8.11475e-07
0.000415951
-1.37056e-06
0.000415207
-2.08117e-06
0.000414312
-2.95856e-06
0.000413237
-4.02599e-06
0.000411953
-5.30717e-06
0.000410426
-6.83598e-06
0.000408616
-8.64831e-06
0.000406476
-1.07983e-05
0.000403955
-1.33356e-05
0.000400986
-1.63504e-05
0.000397497
-1.99052e-05
0.000393393
-2.41623e-05
0.00038857
-2.91863e-05
0.000382886
-3.52975e-05
0.000376191
-4.25143e-05
0.000368253
-5.15227e-05
0.000358859
-6.21503e-05
0.000347604
-7.59102e-05
0.00033418
-9.21767e-05
0.00031786
-0.000113914
0.00029814
-0.000140557
0.000273881
-0.000174847
0.000243728
-0.000223418
0.00020732
-0.000271823
0.000159544
-0.000363308
0.000108209
-0.000401439
4.31552e-05
-0.000479265
-0.000332493
0.000905718
9.16445e-07
0.000906245
1.8286e-06
0.000907608
5.52519e-06
0.000909496
7.55002e-06
0.000911652
8.41195e-06
0.000913827
8.00725e-06
0.000915792
6.48711e-06
0.00091738
4.17357e-06
0.00091846
1.24559e-06
0.000918938
-2.14139e-06
0.000918736
-5.89821e-06
0.00091779
-9.97207e-06
0.000916047
-1.43393e-05
0.000913462
-1.89847e-05
0.000909994
-2.38967e-05
0.000905611
-2.90396e-05
0.000900291
-3.4363e-05
0.000894023
-3.9804e-05
0.000886805
-4.52969e-05
0.000878647
-5.07825e-05
0.00086956
-5.62138e-05
0.000859565
-6.15574e-05
0.000848684
-6.67912e-05
0.00083694
-7.1898e-05
0.000824362
-7.686e-05
0.000810982
-8.16525e-05
0.000796836
-8.62395e-05
0.000781972
-9.05722e-05
0.000766445
-9.45896e-05
0.000750322
-9.82219e-05
0.000733683
-0.000101395
0.000716616
-0.000104034
0.000699224
-0.000106074
0.000681616
-0.000107458
0.000663907
-0.000108143
0.000646217
-0.000108101
0.00062867
-0.000107318
0.000611388
-0.000105793
0.00059449
-0.000103539
0.000578093
-0.000100579
0.000562305
-9.69494e-05
0.000547229
-9.27019e-05
0.000532952
-8.79005e-05
0.000519553
-8.2624e-05
0.00050709
-7.69638e-05
0.000495608
-7.10216e-05
0.000485132
-6.49057e-05
0.000475669
-5.87264e-05
0.000467208
-5.25914e-05
0.000459722
-4.66009e-05
0.000453169
-4.08444e-05
0.000447497
-3.53968e-05
0.000442641
-3.03173e-05
0.000438533
-2.56485e-05
0.000435099
-2.14167e-05
0.000432264
-1.76332e-05
0.000429955
-1.42962e-05
0.000428099
-1.13927e-05
0.00042663
-8.90111e-06
0.000425484
-6.79362e-06
0.000424605
-5.03845e-06
0.000423941
-3.60118e-06
0.000423445
-2.44741e-06
0.000423077
-1.5416e-06
0.000422801
-8.53657e-07
0.000422586
-3.54413e-07
0.000422401
-2.2641e-08
0.000422227
1.48125e-07
0.000422039
1.84061e-07
0.000421811
9.48564e-08
0.000421526
-1.15516e-07
0.000421165
-4.49505e-07
0.000420704
-9.10093e-07
0.000420122
-1.49959e-06
0.000419395
-2.23134e-06
0.000418496
-3.12639e-06
0.000417394
-4.20511e-06
0.000416054
-5.49678e-06
0.000414438
-7.03237e-06
0.000412499
-8.85877e-06
0.000410182
-1.10187e-05
0.000407422
-1.35903e-05
0.000404144
-1.66273e-05
0.000400252
-2.02703e-05
0.00039564
-2.45744e-05
0.000390161
-2.98179e-05
0.000383661
-3.60149e-05
0.0003759
-4.37618e-05
0.000366657
-5.29075e-05
0.000355511
-6.47638e-05
0.000342136
-7.88014e-05
0.000325778
-9.75553e-05
0.000305868
-0.000120648
0.000281263
-0.000150242
0.000250387
-0.000192542
0.000212981
-0.000234417
0.000163588
-0.000313915
0.000110065
-0.000347917
4.39528e-05
-0.000413153
-0.00028854
0.000917172
7.14548e-07
0.000917603
1.39728e-06
0.000918781
4.34708e-06
0.000920411
5.92013e-06
0.000922263
6.56069e-06
0.000924103
6.16669e-06
0.000925721
4.8696e-06
0.000926962
2.93259e-06
0.000927706
5.01552e-07
0.000927865
-2.30114e-06
0.000927368
-5.40045e-06
0.000926153
-8.75721e-06
0.000924169
-1.23554e-05
0.00092137
-1.61853e-05
0.000917712
-2.02395e-05
0.000913163
-2.44899e-05
0.000907695
-2.88958e-05
0.000901296
-3.34045e-05
0.00089396
-3.79612e-05
0.000885693
-4.25156e-05
0.000876507
-4.70277e-05
0.000866419
-5.14693e-05
0.000855449
-5.58212e-05
0.000843621
-6.00693e-05
0.000830959
-6.41986e-05
0.000817495
-6.81885e-05
0.000803265
-7.20092e-05
0.000788313
-7.56201e-05
0.000772693
-7.89701e-05
0.000756472
-8.20009e-05
0.000739728
-8.465e-05
0.000722549
-8.68559e-05
0.000705038
-8.85625e-05
0.000687302
-8.97225e-05
0.000669459
-9.02999e-05
0.000651629
-9.02711e-05
0.000633935
-8.96242e-05
0.000616501
-8.83588e-05
0.000599446
-8.64844e-05
0.000582889
-8.40212e-05
0.000566939
-8.09997e-05
0.000551699
-7.74617e-05
0.00053726
-7.34609e-05
0.000523698
-6.90627e-05
0.000511077
-6.4343e-05
0.000499442
-5.93865e-05
0.00048882
-5.42832e-05
0.000479219
-4.91252e-05
0.00047063
-4.40023e-05
0.000463027
-3.89982e-05
0.00045637
-3.41876e-05
0.000450607
-2.96334e-05
0.000445674
-2.53849e-05
0.000441504
-2.14782e-05
0.000438022
-1.79352e-05
0.000435155
-1.47659e-05
0.000432828
-1.19689e-05
0.000430969
-9.5335e-06
0.000429509
-7.44183e-06
0.000428387
-5.67085e-06
0.000427542
-4.19401e-06
0.000426924
-2.98268e-06
0.000426484
-2.00821e-06
0.000426183
-1.24018e-06
0.000425983
-6.53436e-07
0.000425851
-2.22195e-07
0.000425761
6.73881e-08
0.000425684
2.24298e-07
0.0004256
2.68431e-07
0.000425487
2.07684e-07
0.000425322
5.00528e-08
0.000425085
-2.12877e-07
0.000424756
-5.81355e-07
0.000424312
-1.05578e-06
0.000423729
-1.64784e-06
0.000422979
-2.37637e-06
0.000422032
-3.25842e-06
0.000420854
-4.31856e-06
0.000419404
-5.58279e-06
0.000417636
-7.09056e-06
0.000415495
-8.87769e-06
0.000412915
-1.10097e-05
0.000409819
-1.35317e-05
0.00040611
-1.65617e-05
0.000401681
-2.01454e-05
0.000396381
-2.45171e-05
0.000390053
-2.96873e-05
0.00038245
-3.61585e-05
0.000373345
-4.38027e-05
0.000362303
-5.37217e-05
0.000348983
-6.54813e-05
0.000332611
-8.11838e-05
0.000312563
-0.000100599
0.000287697
-0.000125376
0.000256243
-0.000161089
0.000218036
-0.00019621
0.000167335
-0.000263213
0.000111957
-0.000292539
4.48629e-05
-0.000346059
-0.000243677
0.000926773
5.41249e-07
0.000927132
1.03879e-06
0.000928165
3.31393e-06
0.000929588
4.49713e-06
0.000931192
4.95675e-06
0.000932757
4.60179e-06
0.000934085
3.54143e-06
0.000935034
1.98326e-06
0.000935493
4.23842e-08
0.000935382
-2.18942e-06
0.000934631
-4.64974e-06
0.000933185
-7.31136e-06
0.000930993
-1.01639e-05
0.00092801
-1.32015e-05
0.00092419
-1.64198e-05
0.000919498
-1.97976e-05
0.000913905
-2.33028e-05
0.000907394
-2.68935e-05
0.000899958
-3.05254e-05
0.0008916
-3.41579e-05
0.000882331
-3.77583e-05
0.000872165
-4.13036e-05
0.000861122
-4.47782e-05
0.000849223
-4.81706e-05
0.000836494
-5.14689e-05
0.000822962
-5.46566e-05
0.000808662
-5.77099e-05
0.000793639
-6.05964e-05
0.000777944
-6.32753e-05
0.000761643
-6.56998e-05
0.000744812
-6.78196e-05
0.000727542
-6.95856e-05
0.000709932
-7.09524e-05
0.000692091
-7.18821e-05
0.000674137
-7.23457e-05
0.000656191
-7.23243e-05
0.000638375
-7.18084e-05
0.000620813
-7.07974e-05
0.000603628
-6.92992e-05
0.000586937
-6.73298e-05
0.000570851
-6.49136e-05
0.000555473
-6.20838e-05
0.000540895
-5.88835e-05
0.000527197
-5.53646e-05
0.000514442
-5.15879e-05
0.000502676
-4.76209e-05
0.000491929
-4.35358e-05
0.00048221
-3.94059e-05
0.000473511
-3.53032e-05
0.000465807
-3.12948e-05
0.00045906
-2.74405e-05
0.000453218
-2.37908e-05
0.000448218
-2.03853e-05
0.000443993
-1.72528e-05
0.000440469
-1.44113e-05
0.000437571
-1.18687e-05
0.000435227
-9.62395e-06
0.000433362
-7.66863e-06
0.000431908
-5.98843e-06
0.000430802
-4.56488e-06
0.000429985
-3.37667e-06
0.000429403
-2.40092e-06
0.00042901
-1.61472e-06
0.000428762
-9.92759e-07
0.000428624
-5.14869e-07
0.000428561
-1.59648e-07
0.000428546
8.25965e-08
0.000428552
2.18058e-07
0.000428556
2.64587e-07
0.000428535
2.28945e-07
0.000428469
1.15341e-07
0.000428337
-8.0092e-08
0.000428117
-3.61974e-07
0.000427788
-7.26442e-07
0.000427324
-1.18386e-06
0.000426699
-1.75089e-06
0.000425881
-2.44123e-06
0.000424837
-3.27467e-06
0.000423527
-4.27224e-06
0.000421902
-5.4658e-06
0.000419909
-6.88417e-06
0.000417479
-8.5802e-06
0.000414537
-1.05899e-05
0.000410984
-1.30085e-05
0.000406711
-1.58721e-05
0.000401563
-1.93696e-05
0.000395384
-2.35085e-05
0.00038792
-2.86941e-05
0.000378939
-3.48222e-05
0.000367997
-4.27789e-05
0.000354738
-5.22229e-05
0.000338378
-6.48236e-05
0.00031824
-8.04612e-05
0.000293198
-0.000100334
0.000261307
-0.000129198
0.000222499
-0.000157402
0.000170782
-0.000211497
0.000113893
-0.000235649
4.59213e-05
-0.000278087
-0.000197756
0.000934491
3.88955e-07
0.000934795
7.34301e-07
0.000935718
2.39109e-06
0.000936981
3.23384e-06
0.000938392
3.54621e-06
0.000939739
3.25492e-06
0.000940836
2.44439e-06
0.00094155
1.26917e-06
0.00094178
-1.87262e-07
0.000941446
-1.85617e-06
0.000940489
-3.69238e-06
0.000938854
-5.67646e-06
0.000936492
-7.8023e-06
0.000933358
-1.00668e-05
0.000929405
-1.24674e-05
0.000924597
-1.4989e-05
0.000918902
-1.76077e-05
0.0009123
-2.02924e-05
0.000904784
-2.30094e-05
0.000896354
-2.57278e-05
0.000887019
-2.84229e-05
0.000876792
-3.10769e-05
0.000865692
-3.36781e-05
0.000853739
-3.62175e-05
0.000840956
-3.86863e-05
0.000827372
-4.10721e-05
0.000813019
-4.33573e-05
0.00079794
-4.55176e-05
0.000782188
-4.75224e-05
0.000765824
-4.93366e-05
0.000748927
-5.09227e-05
0.000731585
-5.22435e-05
0.000713898
-5.32652e-05
0.000695975
-5.39592e-05
0.000677933
-5.43038e-05
0.000659894
-5.42849e-05
0.000641981
-5.38952e-05
0.000624318
-5.31347e-05
0.000607028
-5.20091e-05
0.000590228
-5.05304e-05
0.000574032
-4.87172e-05
0.000558543
-4.65943e-05
0.000543853
-4.41938e-05
0.000530043
-4.15548e-05
0.000517178
-3.87228e-05
0.000505305
-3.57483e-05
0.000494455
-3.26852e-05
0.000484638
-2.95888e-05
0.000475847
-2.65128e-05
0.00046806
-2.35074e-05
0.000461237
-2.06177e-05
0.000455328
-1.78815e-05
0.000450271
-1.53286e-05
0.000445998
-1.29803e-05
0.000442437
-1.08504e-05
0.000439513
-8.94463e-06
0.000437152
-7.26225e-06
0.00043528
-5.79683e-06
0.000433829
-4.53754e-06
0.000432735
-3.47041e-06
0.000431937
-2.57928e-06
0.000431383
-1.84702e-06
0.000431025
-1.25648e-06
0.00043082
-7.8743e-07
0.00043073
-4.24793e-07
0.000430722
-1.51843e-07
0.000430766
3.82594e-08
0.000430837
1.46948e-07
0.00043091
1.91495e-07
0.000430964
1.75237e-07
0.000430977
1.02426e-07
0.000430928
-3.07488e-08
0.000430796
-2.30174e-07
0.000430558
-4.88711e-07
0.00043019
-8.15634e-07
0.000429664
-1.22532e-06
0.000428951
-1.72811e-06
0.000428015
-2.33895e-06
0.000426817
-3.07388e-06
0.000425308
-3.95707e-06
0.000423435
-5.01034e-06
0.000421128
-6.27361e-06
0.000418312
-7.77389e-06
0.000414886
-9.58297e-06
0.000410742
-1.17277e-05
0.000405723
-1.43504e-05
0.00039967
-1.74558e-05
0.000392326
-2.13496e-05
0.000383456
-2.59525e-05
0.000372608
-3.19306e-05
0.000359417
-3.90324e-05
0.000343092
-4.84982e-05
0.000322913
-6.0282e-05
0.000297776
-7.51968e-05
0.000265587
-9.70089e-05
0.000226373
-0.000118189
0.000173925
-0.000159048
0.000115874
-0.000177598
4.71422e-05
-0.000209356
-0.000150613
0.000940301
2.51378e-07
0.000940567
4.67939e-07
0.00094141
1.54778e-06
0.000942557
2.08695e-06
0.000943825
2.27803e-06
0.00094501
2.06995e-06
0.000945935
1.52025e-06
0.000946472
7.31702e-07
0.000946528
-2.42768e-07
0.000946027
-1.35518e-06
0.000944912
-2.57793e-06
0.000943133
-3.89767e-06
0.000940642
-5.31135e-06
0.000937393
-6.81738e-06
0.00093334
-8.41445e-06
0.000928444
-1.00926e-05
0.000922672
-1.18361e-05
0.000916004
-1.36241e-05
0.000908428
-1.5434e-05
0.000899945
-1.72447e-05
0.000890562
-1.90396e-05
0.000880291
-2.08064e-05
0.00086915
-2.25371e-05
0.000857159
-2.42258e-05
0.000844339
-2.58665e-05
0.000830718
-2.74509e-05
0.000816328
-2.89675e-05
0.000801211
-3.04001e-05
0.000785417
-3.17286e-05
0.00076901
-3.29296e-05
0.000752065
-3.39783e-05
0.000734672
-3.485e-05
0.000716929
-3.55223e-05
0.000698946
-3.59763e-05
0.00068084
-3.61976e-05
0.000662732
-3.6177e-05
0.000644747
-3.59098e-05
0.000627008
-3.53961e-05
0.000609639
-3.46399e-05
0.000592758
-3.36494e-05
0.000576478
-3.2437e-05
0.000560903
-3.10193e-05
0.000546127
-2.94179e-05
0.000532231
-2.76588e-05
0.000519281
-2.57723e-05
0.000507324
-2.37921e-05
0.000496393
-2.1754e-05
0.000486499
-1.96947e-05
0.000477636
-1.76499e-05
0.000469782
-1.56532e-05
0.000462899
-1.37343e-05
0.000456936
-1.19185e-05
0.000451832
-1.02253e-05
0.000447521
-8.66897e-06
0.000443929
-7.25841e-06
0.000440982
-5.99739e-06
0.000438605
-4.88519e-06
0.000436725
-3.9173e-06
0.000435274
-3.08627e-06
0.000434186
-2.38255e-06
0.000433402
-1.7951e-06
0.000432867
-1.31251e-06
0.000432534
-9.23421e-07
0.000432359
-6.12583e-07
0.000432305
-3.70138e-07
0.000432337
-1.83997e-07
0.000432426
-5.14022e-08
0.000432545
2.87188e-08
0.00043267
6.62885e-08
0.000432779
6.61224e-08
0.00043285
3.09932e-08
0.000432865
-4.52112e-08
0.000432799
-1.63862e-07
0.00043263
-3.1992e-07
0.000432334
-5.19743e-07
0.000431884
-7.75402e-07
0.00043125
-1.094e-06
0.000430397
-1.48561e-06
0.000429284
-1.96125e-06
0.000427864
-2.53737e-06
0.000426083
-3.22877e-06
0.000423871
-4.0623e-06
0.000421153
-5.05605e-06
0.000417828
-6.25799e-06
0.000413787
-7.68579e-06
0.000408871
-9.4345e-06
0.000402922
-1.15067e-05
0.000395678
-1.41064e-05
0.000386906
-1.71801e-05
0.000376147
-2.11714e-05
0.00036303
-2.59153e-05
0.000346762
-3.22301e-05
0.000326589
-4.01093e-05
0.000301436
-5.00441e-05
0.000269085
-6.4658e-05
0.000229659
-7.87628e-05
0.000176753
-0.000106142
0.000117894
-0.000118739
4.8536e-05
-0.000139998
-0.000102077
0.000944184
1.23144e-07
0.000944426
2.25959e-07
0.000945218
7.56069e-07
0.000946289
1.01615e-06
0.000947463
1.10351e-06
0.000948541
9.92101e-07
0.000949351
7.10978e-07
0.000949771
3.11604e-07
0.000949709
-1.81282e-07
0.000949096
-7.42312e-07
0.000947877
-1.35825e-06
0.000946002
-2.02264e-06
0.000943424
-2.73404e-06
0.000940099
-3.49172e-06
0.000935979
-4.29501e-06
0.000931025
-5.13873e-06
0.000925204
-6.01496e-06
0.000918493
-6.91301e-06
0.00091088
-7.82122e-06
0.000902364
-8.7288e-06
0.000892952
-9.62702e-06
0.000882655
-1.05096e-05
0.00087149
-1.13722e-05
0.000859476
-1.22118e-05
0.000846635
-1.30254e-05
0.000832993
-1.38089e-05
0.000818582
-1.45566e-05
0.000803443
-1.52607e-05
0.000787626
-1.59114e-05
0.000771193
-1.64971e-05
0.00075422
-1.70058e-05
0.000736796
-1.74255e-05
0.000719019
-1.77453e-05
0.000700999
-1.7956e-05
0.000682852
-1.80507e-05
0.0006647
-1.80252e-05
0.000646668
-1.78774e-05
0.000628879
-1.76076e-05
0.000611457
-1.72182e-05
0.000594521
-1.67134e-05
0.000578184
-1.60997e-05
0.00056255
-1.53856e-05
0.000547714
-1.45821e-05
0.000533758
-1.37023e-05
0.000520747
-1.27614e-05
0.000508731
-1.17762e-05
0.000497742
-1.07646e-05
0.000487792
-9.74464e-06
0.000478876
-8.73414e-06
0.000470972
-7.74958e-06
0.000464044
-6.80566e-06
0.00045804
-5.91481e-06
0.000452901
-5.08642e-06
0.00044856
-4.32733e-06
0.000444943
-3.64168e-06
0.000441976
-3.031e-06
0.000439586
-2.49454e-06
0.000437698
-2.02964e-06
0.000436244
-1.63212e-06
0.000435158
-1.29684e-06
0.000434381
-1.01778e-06
0.000433858
-7.89275e-07
0.00043354
-6.05834e-07
0.000433385
-4.57114e-07
0.000433353
-3.38384e-07
0.000433411
-2.42123e-07
0.000433529
-1.69493e-07
0.00043368
-1.22649e-07
0.00043384
-9.29032e-08
0.000433986
-7.97988e-08
0.000434098
-8.09034e-08
0.000434153
-1.00882e-07
0.000434131
-1.42052e-07
0.00043401
-1.98176e-07
0.000433763
-2.72987e-07
0.000433365
-3.77145e-07
0.000432785
-5.14112e-07
0.000431988
-6.89079e-07
0.000430935
-9.08092e-07
0.000429578
-1.17985e-06
0.000427861
-1.51217e-06
0.000425717
-1.91876e-06
0.00042307
-2.4088e-06
0.000419818
-3.00633e-06
0.000415853
-3.72e-06
0.000411015
-4.59708e-06
0.000405147
-5.63838e-06
0.000397986
-6.9454e-06
0.000389297
-8.49071e-06
0.00037862
-1.04952e-05
0.000365582
-1.28765e-05
0.000349392
-1.60402e-05
0.000329272
-1.99891e-05
0.00030418
-2.49527e-05
0.0002718
-3.22782e-05
0.000232352
-3.93148e-05
0.000179255
-5.3045e-05
0.00011995
-5.94335e-05
5.01196e-05
-7.0168e-05
-5.19578e-05
0.00094613
-5.06405e-10
0.00094636
-4.11605e-09
0.000947126
-9.95169e-09
0.000948159
-1.67888e-08
0.000949286
-2.43384e-08
0.000950311
-3.23668e-08
0.000951063
-4.09838e-08
0.000951425
-5.03132e-08
0.000951306
-6.24812e-08
0.000950638
-7.38157e-08
0.000949366
-8.67694e-08
0.000947444
-1.00589e-07
0.000944825
-1.1501e-07
0.000941463
-1.29778e-07
0.000937313
-1.44589e-07
0.000932333
-1.58924e-07
0.00092649
-1.72286e-07
0.000919761
-1.84094e-07
0.000912134
-1.93776e-07
0.000903606
-2.00765e-07
0.000894183
-2.04506e-07
0.000883878
-2.0452e-07
0.000872706
-2.00439e-07
0.000860687
-1.92037e-07
0.00084784
-1.79252e-07
0.000834194
-1.62176e-07
0.000819778
-1.41047e-07
0.000804634
-1.16227e-07
0.00078881
-8.8189e-08
0.000772371
-5.7495e-08
0.00075539
-2.47587e-08
0.000737955
9.35746e-09
0.000720165
4.41651e-08
0.000702131
7.89752e-08
0.000683967
1.13109e-07
0.000665796
1.45897e-07
0.000647742
1.76685e-07
0.000629929
2.04861e-07
0.000612481
2.29843e-07
0.000595517
2.51073e-07
0.000579149
2.68027e-07
0.000563483
2.80232e-07
0.000548614
2.87285e-07
0.000534622
2.88896e-07
0.000521576
2.84912e-07
0.000509525
2.75338e-07
0.0004985
2.60325e-07
0.000488515
2.40153e-07
0.000479566
2.1519e-07
0.00047163
1.85878e-07
0.000464672
1.52705e-07
0.000458641
1.16224e-07
0.000453477
7.70505e-08
0.000449114
3.58537e-08
0.000445479
-6.6375e-09
0.000442498
-4.95908e-08
0.000440095
-9.21936e-08
0.000438199
-1.33542e-07
0.00043674
-1.72716e-07
0.000435652
-2.08901e-07
0.000434875
-2.41128e-07
0.000434355
-2.69614e-07
0.000434043
-2.93865e-07
0.000433896
-3.09601e-07
0.000433874
-3.16894e-07
0.000433945
-3.124e-07
0.000434077
-3.01498e-07
0.000434243
-2.88894e-07
0.00043442
-2.69666e-07
0.000434585
-2.44795e-07
0.000434717
-2.12758e-07
0.000434794
-1.78483e-07
0.000434796
-1.44038e-07
0.000434698
-1.00373e-07
0.000434478
-5.24099e-08
0.000434107
-6.50379e-09
0.000433557
3.64072e-08
0.000432791
7.62198e-08
0.000431771
1.11845e-07
0.000430449
1.42301e-07
0.00042877
1.66745e-07
0.000426667
1.84564e-07
0.000424063
1.95405e-07
0.000420857
1.99201e-07
0.000416941
1.96172e-07
0.000412157
1.86824e-07
0.000406347
1.71909e-07
0.000399249
1.52425e-07
0.000390629
1.29502e-07
0.000380029
1.0445e-07
0.000367074
7.85057e-08
0.000350981
5.30665e-08
0.000330963
2.9127e-08
0.000306002
7.91288e-09
0.000273734
-1.00675e-08
0.000234443
-2.41791e-08
0.000181433
-3.45688e-08
0.000122042
-4.25335e-08
5.19196e-05
-4.55017e-08
-3.81966e-08
0.00055768
1.18375e-05
-1.42604e-05
0.000562651
2.64839e-05
-3.14549e-05
0.000569906
4.90159e-05
-5.62714e-05
0.000578472
6.37733e-05
-7.23389e-05
0.000587137
6.91396e-05
-7.78043e-05
0.000595432
6.88335e-05
-7.71287e-05
0.000603015
6.325e-05
-7.08332e-05
0.000609702
5.42895e-05
-6.09769e-05
0.000615395
4.28316e-05
-4.85244e-05
0.000620038
2.965e-05
-3.4293e-05
0.000623604
1.51854e-05
-1.87508e-05
0.000626076
-2.5275e-07
-2.21956e-06
0.000627463
-1.64755e-05
1.50889e-05
0.00062777
-3.32898e-05
3.29821e-05
0.000627022
-5.05609e-05
5.13093e-05
0.000625243
-6.81302e-05
6.99092e-05
0.000622465
-8.583e-05
8.86083e-05
0.000618721
-0.000103499
0.000107243
0.000614047
-0.000120995
0.000125668
0.000608478
-0.000138196
0.000143765
0.00060205
-0.000155015
0.000161444
0.000594799
-0.000171388
0.000178639
0.000586763
-0.000187266
0.000195301
0.000577985
-0.000202599
0.000211378
0.000568509
-0.000217326
0.000226802
0.000558387
-0.000231363
0.000241484
0.000547678
-0.000244594
0.000255303
0.000536445
-0.000256876
0.000268109
0.000524759
-0.00026804
0.000279725
0.000512699
-0.000277902
0.000289962
0.000500348
-0.000286274
0.000298625
0.000487793
-0.000292978
0.000305532
0.000475127
-0.000297856
0.000310522
0.000462444
-0.000300779
0.000313462
0.000449839
-0.000301654
0.000314259
0.000437408
-0.000300425
0.000312856
0.000425246
-0.000297072
0.000309234
0.000413444
-0.000291612
0.000303414
0.000402089
-0.0002841
0.000295455
0.000391258
-0.000274628
0.000285458
0.000381024
-0.000263333
0.000273568
0.000371442
-0.000250391
0.000259972
0.000362559
-0.000236022
0.000244906
0.000354401
-0.000220486
0.000228644
0.000346981
-0.000204077
0.000211496
0.000340296
-0.000187109
0.000193794
0.000334324
-0.000169907
0.000175878
0.000329032
-0.000152791
0.000158084
0.000324371
-0.000136065
0.000140725
0.000320286
-0.000119999
0.000124084
0.000316712
-0.000104824
0.000108398
0.000313581
-9.07228e-05
9.38539e-05
0.000310823
-7.78291e-05
8.05872e-05
0.000308369
-6.62252e-05
6.86791e-05
0.000306154
-5.59459e-05
5.81613e-05
0.000304116
-4.69858e-05
4.9024e-05
0.000302199
-3.93052e-05
4.12219e-05
0.000300354
-3.28366e-05
3.46811e-05
0.000298539
-2.74933e-05
2.93084e-05
0.000296717
-2.31781e-05
2.50006e-05
0.000294855
-1.97904e-05
2.16521e-05
0.000292927
-1.72261e-05
1.9154e-05
0.00029091
-1.53857e-05
1.74025e-05
0.000288785
-1.41787e-05
1.63039e-05
0.000286534
-1.35269e-05
1.57777e-05
0.000284142
-1.33644e-05
1.57563e-05
0.000281594
-1.36389e-05
1.61867e-05
0.000278876
-1.43118e-05
1.70297e-05
0.000275974
-1.53535e-05
1.82561e-05
0.000272871
-1.67498e-05
1.98522e-05
0.000269553
-1.84953e-05
2.18137e-05
0.000266001
-2.05983e-05
2.41502e-05
0.000262197
-2.30751e-05
2.68794e-05
0.000258119
-2.59536e-05
3.00313e-05
0.000253745
-2.92727e-05
3.36468e-05
0.000249049
-3.30842e-05
3.77799e-05
0.000244004
-3.74486e-05
4.24936e-05
0.000238579
-4.24456e-05
4.78706e-05
0.00023274
-4.81627e-05
5.40016e-05
0.00022645
-5.47209e-05
6.10112e-05
0.000219667
-6.22425e-05
6.90259e-05
0.000212344
-7.09174e-05
7.82397e-05
0.000204431
-8.0908e-05
8.8821e-05
0.000195872
-9.25359e-05
0.000101095
0.000186602
-0.000105999
0.000115269
0.000176556
-0.000121887
0.000131934
0.000165656
-0.000140378
0.000151279
0.000153831
-0.000162661
0.000174486
0.000140994
-0.00018866
0.000201497
0.000127092
-0.000220982
0.000234884
0.000112076
-0.000258477
0.000273493
9.59265e-05
-0.000307185
0.000323335
7.89492e-05
-0.000362612
0.00037959
6.09435e-05
-0.000437335
0.000455341
4.40346e-05
-0.000521605
0.000538514
2.657e-05
-0.000625147
0.000642611
1.7187e-05
-0.000755158
0.000764541
6.53974e-06