/*--------------------------------*- C++ -*----------------------------------*\
  =========                 |
  \\      /  F ield         | OpenFOAM: The Open Source CFD Toolbox
   \\    /   O peration     | Website:  https://openfoam.org
    \\  /    A nd           | Version:  7
     \\/     M anipulation  |
\*---------------------------------------------------------------------------*/
FoamFile
{
    version     2.0;
    format      ascii;
    class       volVectorField;
    location    "15";
    object      U;
}
// * * * * * * * * * * * * * * * * * * * * * * * * * * * * * * * * * * * * * //

dimensions      [0 1 -1 0 0 0 0];

internalField   nonuniform List<vector> 
225
(
(1.04661 -6.30211e-05 -2.44204e-18)
(0.952399 0.000501463 -1.31288e-17)
(1.04574 -0.000244934 -9.80328e-18)
(0.951607 0.00129425 3.94216e-18)
(1.04128 0.00132777 4.55234e-18)
(0.940764 0.0070821 -3.62755e-18)
(1.00743 0.00318935 -3.80354e-18)
(0.918882 0.0335698 -5.6024e-18)
(0.844797 0.0330139 -6.41113e-18)
(1.04687 -5.50738e-05 -1.24168e-18)
(0.951983 0.000508763 -1.45758e-17)
(1.04622 -0.000239178 -1.07905e-17)
(0.950952 0.00133388 3.78934e-18)
(1.04206 0.00142109 4.93277e-18)
(0.939697 0.00735561 -5.02243e-18)
(1.00885 0.00343225 -4.57303e-18)
(0.917147 0.0349523 -3.72841e-18)
(0.848984 0.0349716 -4.35599e-18)
(1.04713 -4.5825e-05 -7.43597e-21)
(0.951559 0.000514106 -1.5276e-17)
(1.04671 -0.000231305 -1.21268e-17)
(0.950279 0.00137065 2.52234e-18)
(1.04285 0.00151815 5.2414e-18)
(0.938595 0.00762044 -3.84605e-18)
(1.01033 0.00368194 -5.06532e-18)
(0.915351 0.036294 -1.90396e-18)
(0.853332 0.0369177 -2.68684e-18)
(1.0474 -3.5337e-05 1.08677e-18)
(0.951126 0.000517729 -1.63563e-17)
(1.04721 -0.00022154 -1.36005e-17)
(0.949591 0.0014053 1.33319e-18)
(1.04367 0.00161873 3.91712e-18)
(0.937462 0.00788109 -2.60192e-18)
(1.01185 0.00393905 -5.91983e-18)
(0.913495 0.0376224 -2.02157e-18)
(0.857842 0.0388591 -9.20781e-19)
(1.04767 -2.34788e-05 2.04466e-18)
(0.950686 0.000519528 -1.68882e-17)
(1.04772 -0.000209758 -1.39811e-17)
(0.948889 0.00143764 1.77444e-18)
(1.04451 0.00172316 2.6612e-18)
(0.936299 0.00813674 -1.58066e-18)
(1.01343 0.0042048 -7.02503e-18)
(0.911582 0.0389341 -2.20201e-18)
(0.862514 0.0408068 6.69015e-19)
(1.04432 -7.75267e-05 -4.73878e-18)
(0.956047 0.000322876 3.1427e-18)
(1.04161 -0.000194199 -1.12195e-17)
(0.957201 0.000749434 1.48513e-18)
(1.03481 0.000566912 1.23191e-19)
(0.949536 0.00386688 4.36728e-18)
(0.995939 0.00133598 1.1377e-17)
(0.932554 0.0180797 2.36819e-18)
(0.812002 0.0161575 3.59943e-18)
(1.0445 -8.09575e-05 -4.34497e-18)
(0.955766 0.000347483 1.52845e-18)
(1.04193 -0.000206466 -1.04825e-17)
(0.956776 0.000812442 3.08435e-18)
(1.0353 0.000630475 1.23306e-18)
(0.948882 0.00420894 3.21265e-18)
(0.996789 0.00149404 9.88432e-18)
(0.931546 0.0197085 1.12449e-18)
(0.814427 0.017829 3.14478e-18)
(1.04469 -8.33892e-05 -4.07477e-18)
(0.955463 0.000370596 1.42278e-18)
(1.04227 -0.000217172 -8.36037e-18)
(0.956317 0.000873144 4.88531e-18)
(1.03582 0.000696615 2.45522e-18)
(0.948174 0.00454367 2.21859e-18)
(0.997709 0.00165644 8.76568e-18)
(0.930456 0.0213016 -1.13578e-19)
(0.817051 0.0194873 -2.12925e-18)
(1.0449 -8.48626e-05 -4.00348e-18)
(0.95514 0.000392451 1.41985e-18)
(1.04263 -0.000226533 -6.54597e-18)
(0.955826 0.000932433 5.31605e-18)
(1.03639 0.000765133 3.61493e-18)
(0.947414 0.00487573 1.36915e-18)
(0.998699 0.00182407 7.95952e-18)
(0.929283 0.0228864 -1.66838e-18)
(0.819872 0.021149 -2.9544e-18)
(1.04512 -8.52983e-05 -4.226e-18)
(0.954797 0.000412921 -1.10964e-19)
(1.04302 -0.000234404 -4.99571e-18)
(0.955304 0.000990085 6.05586e-18)
(1.03699 0.000836302 5.05716e-18)
(0.946602 0.00520446 5.08295e-19)
(0.999758 0.00199762 7.43719e-18)
(0.92803 0.0244599 -5.27218e-18)
(0.822886 0.0228168 -3.92988e-18)
(1.04534 -8.46216e-05 -4.64505e-18)
(0.954435 0.000431882 -1.68244e-18)
(1.04343 -0.000240655 -5.21105e-18)
(0.954751 0.00104588 7.0572e-18)
(1.03762 0.000910351 4.73373e-18)
(0.945741 0.00552906 -1.97864e-19)
(1.00088 0.0021774 4.83527e-18)
(0.926697 0.0260181 -7.35147e-18)
(0.826091 0.0244887 -5.14016e-18)
(1.04558 -8.27716e-05 -5.13167e-18)
(0.954056 0.000449245 -3.26551e-18)
(1.04386 -0.00024519 -5.4702e-18)
(0.95417 0.00109969 7.00843e-18)
(1.0383 0.000987448 4.57536e-18)
(0.944831 0.00584925 -1.04998e-18)
(1.00207 0.00236366 2.27451e-18)
(0.925285 0.0275598 -7.82047e-18)
(0.829483 0.0261641 -6.76347e-18)
(1.04583 -7.96851e-05 -5.99078e-18)
(0.95366 0.000464904 -6.42006e-18)
(1.0443 -0.00024791 -5.81238e-18)
(0.953561 0.0011513 5.88482e-18)
(1.039 0.00106769 4.45501e-18)
(0.943873 0.00616447 -1.87728e-18)
(1.00333 0.00255597 -4.40103e-19)
(0.923794 0.0290824 -6.86172e-18)
(0.833059 0.0278355 -8.34735e-18)
(1.04609 -7.52993e-05 -5.45082e-18)
(0.953248 0.000478754 -8.202e-18)
(1.04477 -0.000248722 -6.57573e-18)
(0.952926 0.00120047 4.84806e-18)
(1.03974 0.00115104 4.45167e-18)
(0.94287 0.00647403 -2.86489e-18)
(1.00465 0.00275294 -3.07694e-18)
(0.922225 0.0305809 -6.2517e-18)
(0.836816 0.0294818 -1.07524e-17)
(1.04635 -6.96218e-05 -3.89241e-18)
(0.952822 0.000490928 -1.04086e-17)
(1.04526 -0.000247667 -8.80259e-18)
(0.952266 0.00124785 4.32278e-18)
(1.04051 0.00123789 4.48291e-18)
(0.941823 0.00678015 -2.36739e-18)
(1.00603 0.00295859 -3.45228e-18)
(0.920577 0.0320675 -5.73883e-18)
(0.840749 0.0311351 -8.52302e-18)
(1.04336 -4.67831e-06 3.92587e-18)
(0.957554 1.69793e-05 9.86581e-18)
(1.03993 -1.08468e-05 -1.64653e-18)
(0.959455 3.85432e-05 4.01407e-18)
(1.03225 2.46309e-05 1.26114e-18)
(0.952949 0.000193762 -2.59094e-18)
(0.99152 6.09095e-05 -7.40638e-19)
(0.937721 0.000907302 3.29655e-18)
(0.799538 0.000796295 2.13122e-17)
(1.04338 -1.36711e-05 3.68561e-18)
(0.957526 4.99131e-05 1.01929e-17)
(1.03996 -3.16239e-05 -3.39917e-18)
(0.959413 0.000112512 4.62609e-18)
(1.03229 7.47112e-05 1.88783e-18)
(0.952885 0.000568284 -6.81805e-19)
(0.9916 0.000178831 1.22833e-18)
(0.937625 0.00265233 5.32951e-18)
(0.799769 0.00231943 1.92284e-17)
(1.04341 -2.24552e-05 3.59923e-18)
(0.95747 8.24373e-05 1.08896e-17)
(1.04003 -5.20178e-05 -5.19244e-18)
(0.95933 0.000185622 5.53541e-18)
(1.03239 0.000125361 2.60518e-18)
(0.952759 0.00093926 -3.97091e-19)
(0.991762 0.000297062 3.42411e-18)
(0.937435 0.00437958 6.06983e-18)
(0.80023 0.00383376 1.76559e-17)
(1.04347 -3.10235e-05 3.73773e-18)
(0.957385 0.000114696 1.19132e-17)
(1.04012 -7.21205e-05 -7.2499e-18)
(0.959204 0.0002585 5.13747e-18)
(1.03253 0.000176582 3.35273e-18)
(0.952571 0.00130996 -1.58418e-19)
(0.992005 0.000417066 5.69646e-18)
(0.93715 0.00610694 6.82476e-18)
(0.80092 0.00535626 1.6731e-17)
(1.04354 -3.92804e-05 2.78842e-18)
(0.957273 0.000146553 1.32955e-17)
(1.04024 -9.17913e-05 -9.70062e-18)
(0.959037 0.00033093 5.10626e-18)
(1.03272 0.000228567 2.29783e-18)
(0.952319 0.00167981 1.62501e-19)
(0.99233 0.000538987 8.25775e-18)
(0.936771 0.00783148 8.11218e-18)
(0.801837 0.00688291 1.14405e-17)
(1.04363 -4.71313e-05 2.01757e-18)
(0.957134 0.00017787 1.19616e-17)
(1.0404 -0.000110893 -1.0959e-17)
(0.958829 0.000402712 3.84859e-18)
(1.03296 0.000281526 1.1102e-18)
(0.952006 0.00204822 5.99731e-19)
(0.992735 0.000663039 1.1222e-17)
(0.9363 0.00955048 7.88666e-18)
(0.80298 0.00841106 6.33797e-18)
(1.04374 -5.44882e-05 -1.93105e-19)
(0.956968 0.000208528 1.08445e-17)
(1.04059 -0.000129303 -1.26302e-17)
(0.958581 0.000473697 2.94916e-18)
(1.03324 0.000335652 -1.53501e-20)
(0.951631 0.00241484 2.69592e-18)
(0.993221 0.00078951 1.21464e-17)
(0.935736 0.0112625 7.97668e-18)
(0.804347 0.00993942 1.07359e-18)
(1.04386 -6.1256e-05 -2.44896e-18)
(0.956775 0.000238384 8.74538e-18)
(1.0408 -0.000146881 -1.31755e-17)
(0.958293 0.00054364 2.35884e-18)
(1.03357 0.000391109 8.28186e-19)
(0.951195 0.00277898 5.02681e-18)
(0.993787 0.000918255 1.35867e-17)
(0.935078 0.0129641 8.30997e-18)
(0.805937 0.0114616 5.78799e-19)
(1.044 -6.73461e-05 -4.75766e-18)
(0.956556 0.000267313 6.72778e-18)
(1.04105 -0.000163507 -1.24485e-17)
(0.957965 0.000612321 1.77041e-18)
(1.03394 0.000447991 1.82557e-18)
(0.950699 0.00314008 6.07701e-18)
(0.994431 0.00104877 1.32579e-17)
(0.934328 0.0146519 6.84456e-18)
(0.807748 0.0129664 -4.67978e-20)
(1.04416 -7.27661e-05 -5.54091e-18)
(0.956311 0.000295488 4.91443e-18)
(1.04132 -0.000179282 -1.25084e-17)
(0.957598 0.000680573 1.59724e-18)
(1.03436 0.000506528 9.38217e-19)
(0.950142 0.00350167 5.86105e-18)
(0.995152 0.00118429 1.32753e-17)
(0.933483 0.0163455 3.53379e-18)
(0.809777 0.0144861 4.20118e-18)
)
;

boundaryField
{
    inlet
    {
        type            uniformFixedValue;
        uniformValue    constant (1 0 0);
        value           uniform (1 0 0);
    }
    outlet
    {
        type            pressureInletOutletVelocity;
        value           nonuniform 0();
    }
    polygon
    {
        type            fixedValue;
        value           nonuniform 0();
    }
    top
    {
        type            symmetryPlane;
    }
    bottom
    {
        type            symmetryPlane;
    }
    outside
    {
        type            zeroGradient;
    }
    procBoundary8to4
    {
        type            processor;
        value           nonuniform List<vector> 9((1.04336 4.67987e-06 4.56624e-18) (0.957554 -1.69774e-05 9.9393e-18) (1.03993 1.08512e-05 1.64391e-18) (0.959455 -3.85527e-05 3.29668e-18) (1.03225 -2.46269e-05 -1.38163e-18) (0.952949 -0.00019376 -4.59837e-18) (0.99152 -6.09012e-05 -2.61874e-18) (0.937721 -0.000907293 -4.88515e-19) (0.799538 -0.000796298 2.41574e-17));
    }
    procBoundary8to9
    {
        type            processor;
        value           nonuniform List<vector> 
25
(
(0.783288 0.274045 -5.73918e-18)
(0.784852 0.285512 -5.86867e-18)
(0.786499 0.296749 -6.15599e-18)
(0.788221 0.308008 -6.69769e-18)
(0.790011 0.319283 -3.95114e-18)
(0.770406 0.145007 -1.40517e-17)
(0.771361 0.158106 -1.62033e-17)
(0.772409 0.17108 -1.46528e-17)
(0.773546 0.184056 -1.33075e-17)
(0.774767 0.197035 -1.27002e-17)
(0.776064 0.210003 -1.22379e-17)
(0.77743 0.222959 -1.18896e-17)
(0.778852 0.235926 -1.18614e-17)
(0.780318 0.248946 -1.24486e-17)
(0.781808 0.261883 -9.31764e-18)
(0.765439 0.00692078 -1.74796e-17)
(0.765535 0.0208084 -2.02439e-17)
(0.765727 0.0346683 -1.91353e-17)
(0.766012 0.0485158 -1.93292e-17)
(0.766388 0.0623574 -2.08048e-17)
(0.766854 0.0761946 -2.32085e-17)
(0.767407 0.0900298 -1.73359e-17)
(0.768043 0.103876 -1.68938e-17)
(0.76876 0.117752 -1.24501e-17)
(0.769551 0.131584 -1.26808e-17)
)
;
    }
    procBoundary8to12
    {
        type            processor;
        value           nonuniform List<vector> 9((1.04794 -1.0063e-05 1.43136e-18) (0.950241 0.000519425 -1.52766e-17) (1.04824 -0.000195873 -1.30113e-17) (0.948175 0.0014675 2.39884e-18) (1.04537 0.00183162 1.52122e-18) (0.935109 0.00838665 -6.33146e-19) (1.01505 0.00447959 -8.22507e-18) (0.909613 0.0402252 -2.53686e-18) (0.867349 0.0427618 2.18368e-18));
    }
}


// ************************************************************************* //
