/*--------------------------------*- C++ -*----------------------------------*\
  =========                 |
  \\      /  F ield         | OpenFOAM: The Open Source CFD Toolbox
   \\    /   O peration     | Website:  https://openfoam.org
    \\  /    A nd           | Version:  7
     \\/     M anipulation  |
\*---------------------------------------------------------------------------*/
FoamFile
{
    version     2.0;
    format      ascii;
    class       surfaceScalarField;
    location    "50";
    object      phi;
}
// * * * * * * * * * * * * * * * * * * * * * * * * * * * * * * * * * * * * * //

dimensions      [0 3 -1 0 0 0 0];

internalField   nonuniform List<scalar> 
225
(
-0.0111965
-0.00226093
-0.0111944
-0.00226236
-0.0111904
-0.00226326
-0.011184
-0.00226354
-0.0111749
-0.0022631
-0.0111627
-0.00226181
-0.011147
-0.00225955
-0.0111273
-0.00225613
-0.011103
-0.00225133
-0.0110737
-0.00224487
-0.0110385
-0.00223643
-0.010997
-0.00222559
-0.0109483
-0.00221189
-0.0108918
-0.00219477
-0.010827
-0.00217367
-0.0107532
-0.00214801
-0.00211586
-0.0111982
-0.00226099
-0.0111963
-0.00226423
-0.0111924
-0.0022672
-0.0111861
-0.00226985
-0.011177
-0.00227212
-0.0111649
-0.00227395
-0.0111492
-0.00227523
-0.0111295
-0.00227584
-0.0111052
-0.00227562
-0.0110757
-0.00227434
-0.0110404
-0.00227174
-0.0109986
-0.00226742
-0.0109496
-0.00226093
-0.0108925
-0.00225182
-0.0108266
-0.00223964
-0.0107512
-0.00222339
-0.00220072
-0.0111987
-0.0022604
-0.0111972
-0.00226571
-0.0111935
-0.00227094
-0.0111872
-0.00227609
-0.0111781
-0.00228119
-0.0111659
-0.00228622
-0.01115
-0.00229114
-0.0111299
-0.00229587
-0.0111052
-0.00230033
-0.0110752
-0.00230437
-0.0110392
-0.00230778
-0.0109964
-0.00231023
-0.010946
-0.00231132
-0.0108871
-0.00231064
-0.010819
-0.00230777
-0.0107407
-0.00230169
-0.00229008
-0.0111972
-0.00225792
-0.0111971
-0.00226582
-0.0111943
-0.00227373
-0.0111887
-0.00228173
-0.01118
-0.0022899
-0.0111679
-0.00229831
-0.011152
-0.002307
-0.0111319
-0.00231596
-0.011107
-0.0023252
-0.0110768
-0.00233464
-0.0110404
-0.00234418
-0.010997
-0.00235357
-0.0109459
-0.00236245
-0.010886
-0.00237051
-0.0108164
-0.00237745
-0.0107356
-0.00238248
-0.00238304
-0.0111894
-0.00225075
-0.011193
-0.00226228
-0.0111929
-0.00227376
-0.0111893
-0.00228534
-0.011182
-0.00229719
-0.0111709
-0.00230946
-0.0111556
-0.00232227
-0.0111358
-0.00233573
-0.0111111
-0.00234993
-0.0110808
-0.00236493
-0.0110443
-0.00238074
-0.0110006
-0.00239723
-0.0109489
-0.00241414
-0.0108882
-0.00243125
-0.0108172
-0.00244845
-0.0107343
-0.00246535
-0.00247949
-0.0111645
-0.00223346
-0.0111763
-0.00225042
-0.011183
-0.00226709
-0.0111846
-0.0022837
-0.0111814
-0.00230048
-0.0111732
-0.00231764
-0.01116
-0.00233543
-0.0111417
-0.00235405
-0.0111179
-0.00237372
-0.0110882
-0.00239464
-0.0110519
-0.00241697
-0.0110084
-0.00244077
-0.0109566
-0.00246592
-0.0108956
-0.00249233
-0.0108238
-0.00252021
-0.0107394
-0.00254974
-0.00257872
-0.0110997
-0.00219691
-0.0111282
-0.00222186
-0.0111491
-0.00224624
-0.0111625
-0.00227025
-0.0111688
-0.00229416
-0.0111682
-0.00231824
-0.0111609
-0.0111469
-0.0111261
-0.0110985
-0.0110636
-0.0110209
-0.0109695
-0.0109085
-0.0108364
-0.0107511
-0.0109545
-0.0110125
-0.0110597
-0.0110963
-0.0111226
)
;

boundaryField
{
    inlet
    {
        type            calculated;
        value           nonuniform 0();
    }
    outlet
    {
        type            calculated;
        value           nonuniform 0();
    }
    polygon
    {
        type            calculated;
        value           nonuniform 0();
    }
    top
    {
        type            symmetryPlane;
        value           uniform 0;
    }
    bottom
    {
        type            symmetryPlane;
        value           uniform 0;
    }
    outside
    {
        type            calculated;
        value           nonuniform List<scalar> 
17
(
0.00226062
0.0022603
0.00225919
0.00225715
0.00225402
0.00224962
0.00224384
0.00223642
0.00222708
0.0022155
0.0022013
0.00218402
0.0021632
0.00213832
0.00210889
0.00207418
0.00203368
)
;
    }
    procBoundary58to49
    {
        type            processor;
        value           nonuniform List<scalar> 2(-0.0106402 -0.0106496);
    }
    procBoundary58to50
    {
        type            processor;
        value           nonuniform List<scalar> 
18
(
-0.00234278
-0.00236808
-0.00239446
-0.00242227
-0.00245186
-0.00248349
-0.00251727
-0.00255335
-0.0025923
-0.00263507
-0.00268023
-0.00212799
-0.00216384
-0.00219901
-0.00223363
-0.0022679
-0.0111388
-0.00230206
)
;
    }
    procBoundary58to51
    {
        type            processor;
        value           uniform 0.0108856;
    }
    procBoundary58to57
    {
        type            processor;
        value           nonuniform List<scalar> 5(-0.010671 -0.0106663 -0.0106514 -0.0106426 -0.0106379);
    }
    procBoundary58to59
    {
        type            processor;
        value           nonuniform List<scalar> 7(0.0111968 0.0111982 0.0111981 0.0111947 0.0111823 0.0111472 0.0110631);
    }
}


// ************************************************************************* //
