/*--------------------------------*- C++ -*----------------------------------*\
  =========                 |
  \\      /  F ield         | OpenFOAM: The Open Source CFD Toolbox
   \\    /   O peration     | Website:  https://openfoam.org
    \\  /    A nd           | Version:  7
     \\/     M anipulation  |
\*---------------------------------------------------------------------------*/
FoamFile
{
    version     2.0;
    format      ascii;
    class       surfaceScalarField;
    location    "34";
    object      phi;
}
// * * * * * * * * * * * * * * * * * * * * * * * * * * * * * * * * * * * * * //

dimensions      [0 3 -1 0 0 0 0];

internalField   nonuniform List<scalar> 
225
(
0.00348042
1.46827e-05
0.00344911
3.13055e-05
0.00342113
2.79855e-05
0.00335042
7.07099e-05
0.0032918
5.86226e-05
0.00311999
0.000171803
0.000147542
0.0035345
2.05859e-06
0.00353539
-1.75602e-06
0.00353308
4.57549e-06
0.00353314
-9.42524e-08
0.00352976
6.69981e-06
0.00352801
3.54258e-06
0.00352279
1.03058e-05
0.00351716
1.12998e-05
0.00350857
1.69091e-05
0.00349472
2.77041e-05
0.0034795
2.98991e-05
0.00344808
6.27339e-05
0.00341887
5.71909e-05
0.00334773
0.000141853
0.00328586
0.000120491
0.00311274
0.000344918
0.000305325
0.00353448
3.1149e-06
0.0035354
-2.67975e-06
0.00353304
6.9367e-06
0.00353316
-2.11323e-07
0.00352968
1.01785e-05
0.003528
5.21723e-06
0.00352261
1.56977e-05
0.00351708
1.68295e-05
0.00350817
2.58246e-05
0.00349443
4.14383e-05
0.00347854
4.57911e-05
0.00344721
9.4061e-05
0.0034165
8.79028e-05
0.00334537
0.000212982
0.00327962
0.000186247
0.00310631
0.000518222
0.000474564
0.00353445
4.19799e-06
0.00353542
-3.65302e-06
0.00353299
9.37158e-06
0.00353319
-4.10326e-07
0.00352959
1.37814e-05
0.00352803
6.77156e-06
0.00352242
2.13124e-05
0.00351706
2.21872e-05
0.00350773
3.51562e-05
0.00349422
5.49409e-05
0.00347752
6.24999e-05
0.00344648
0.000125093
0.00341402
0.000120363
0.00334331
0.000283693
0.00327328
0.000256283
0.00310096
0.000690543
0.000655244
0.00353442
5.31215e-06
0.00353545
-4.6878e-06
0.00353293
1.18931e-05
0.00353323
-7.10771e-07
0.00352949
1.75278e-05
0.00352809
8.16978e-06
0.00352222
2.71831e-05
0.00351709
2.73114e-05
0.00350729
4.49585e-05
0.00349413
6.81042e-05
0.00347651
8.01166e-05
0.00344598
0.000155628
0.00341162
0.000154721
0.00334175
0.000353565
0.00326725
0.000330778
0.00309708
0.000860715
0.000846947
0.00353439
6.45945e-06
0.00353549
-5.79388e-06
0.00353287
1.45132e-05
0.00353329
-1.13285e-06
0.00352939
2.14351e-05
0.00352818
9.37783e-06
0.00352202
3.33387e-05
0.00351719
3.21421e-05
0.00350687
5.52805e-05
0.00349416
8.08196e-05
0.00347555
9.87223e-05
0.00344572
0.000185462
0.00340934
0.000191095
0.00334074
0.00042217
0.00326172
0.000409794
0.00309488
0.00102755
0.0010489
0.00353435
7.63949e-06
0.00353554
-6.97799e-06
0.00353281
1.72391e-05
0.00353337
-1.69067e-06
0.00352929
2.55131e-05
0.0035283
1.03674e-05
0.00352184
3.97979e-05
0.00351736
3.66259e-05
0.00350648
6.61551e-05
0.00349432
9.29851e-05
0.00347467
0.000118371
0.00344574
0.000214393
0.00340728
0.000229553
0.00334037
0.000489079
0.00325689
0.000493272
0.00309459
0.00118986
0.00353432
0.00353559
0.00353275
0.00353346
0.00352921
0.00352846
0.00352169
0.00351759
0.00350615
0.00349463
0.00347391
0.00344607
0.00340552
0.00334073
0.00325297
)
;

boundaryField
{
    inlet
    {
        type            calculated;
        value           nonuniform List<scalar> 7(-0.00353553 -0.00353553 -0.00353553 -0.00353553 -0.00353553 -0.00353553 -0.00353553);
    }
    outlet
    {
        type            calculated;
        value           nonuniform 0();
    }
    polygon
    {
        type            calculated;
        value           nonuniform 0();
    }
    top
    {
        type            symmetryPlane;
        value           uniform 0;
    }
    bottom
    {
        type            symmetryPlane;
        value           uniform 0;
    }
    outside
    {
        type            calculated;
        value           nonuniform 0();
    }
    procBoundary32to24
    {
        type            processor;
        value           nonuniform List<scalar> 
18
(
-1.02274e-06
8.67405e-07
-2.26812e-06
3.0053e-08
-3.3141e-06
-1.79145e-06
-5.08679e-06
-5.66804e-06
-8.32579e-06
-0.0034951
-1.38512e-05
-1.10662e-12
-1.48805e-12
-2.77728e-13
-1.36756e-12
-1.0426e-12
-1.1396e-12
-1.2276e-12
)
;
    }
    procBoundary32to33
    {
        type            processor;
        value           nonuniform List<scalar> 7(0.00297245 0.00295496 0.00293707 0.00292028 0.00290538 0.00289293 0.00288333);
    }
    procBoundary32to40
    {
        type            processor;
        value           nonuniform List<scalar> 
18
(
0.00126016
8.84882e-06
-8.24288e-06
2.00739e-05
-2.39487e-06
2.97651e-05
1.1117e-05
4.6568e-05
4.07184e-05
7.75973e-05
0.000104509
0.000139088
0.00024223
0.000270107
0.000553867
0.000581036
0.00309639
0.00134644
)
;
    }
}


// ************************************************************************* //
