/*--------------------------------*- C++ -*----------------------------------*\
  =========                 |
  \\      /  F ield         | OpenFOAM: The Open Source CFD Toolbox
   \\    /   O peration     | Website:  https://openfoam.org
    \\  /    A nd           | Version:  10
     \\/     M anipulation  |
\*---------------------------------------------------------------------------*/
FoamFile
{
    format      ascii;
    class       volScalarField;
    location    "15";
    object      p;
}
// * * * * * * * * * * * * * * * * * * * * * * * * * * * * * * * * * * * * * //

dimensions      [0 2 -2 0 0 0 0];

internalField   nonuniform List<scalar> 
3600
(
-0.0108082
0.0297266
-0.013343
0.0539871
-0.0297186
0.0770543
-0.0627065
0.0969259
-0.120653
0.0597026
-0.0108108
0.0297349
-0.0133467
0.0540002
-0.0297271
0.0770784
-0.0627191
0.0969574
-0.120592
0.0596531
-0.0108127
0.0297418
-0.0133483
0.0540108
-0.0297311
0.0770972
-0.0627237
0.0969802
-0.120537
0.0596523
-0.0108145
0.0297481
-0.0133502
0.0540206
-0.0297354
0.0771151
-0.0627287
0.097003
-0.120488
0.0596442
-0.0108164
0.0297538
-0.0133526
0.05403
-0.0297407
0.0771326
-0.0627353
0.0970269
-0.120444
0.0596225
-0.0108182
0.0297588
-0.0133555
0.0540388
-0.0297465
0.0771494
-0.0627429
0.0970511
-0.120407
0.0595922
-0.01082
0.0297633
-0.0133589
0.054047
-0.0297529
0.0771654
-0.0627513
0.0970756
-0.120376
0.0595542
-0.0108219
0.0297672
-0.0133627
0.0540547
-0.02976
0.0771811
-0.0627609
0.0971011
-0.120351
0.0595066
-0.0108237
0.0297704
-0.0133669
0.0540617
-0.0297676
0.0771958
-0.0627714
0.097127
-0.120333
0.0594506
-0.0108247
0.0297721
-0.0133694
0.0540655
-0.0297724
0.0772044
-0.0627785
0.0971444
-0.120324
0.0594087
-0.0107551
0.0295869
-0.0132547
0.0537453
-0.0295392
0.0765854
-0.0624582
0.0962104
-0.12165
0.0607704
-0.0107614
0.0296041
-0.0132649
0.0537735
-0.0295614
0.0766394
-0.0624915
0.0962927
-0.121536
0.0606278
-0.010767
0.0296201
-0.0132727
0.0538002
-0.0295775
0.0766901
-0.0625124
0.0963678
-0.121414
0.0605633
-0.0107725
0.0296357
-0.0132808
0.0538265
-0.0295939
0.0767404
-0.0625336
0.0964431
-0.121296
0.0604892
-0.010778
0.0296507
-0.0132894
0.0538525
-0.0296114
0.0767904
-0.0625566
0.0965187
-0.121185
0.0603987
-0.0107835
0.0296652
-0.0132984
0.0538778
-0.0296293
0.0768395
-0.0625805
0.0965938
-0.12108
0.0603001
-0.010789
0.0296792
-0.0133078
0.0539027
-0.0296476
0.076888
-0.0626048
0.0966687
-0.120981
0.0601958
-0.0107945
0.0296927
-0.0133176
0.0539273
-0.0296665
0.0769365
-0.0626298
0.0967448
-0.120886
0.0600854
-0.0107999
0.0297056
-0.0133278
0.0539512
-0.0296859
0.0769839
-0.062656
0.0968206
-0.120799
0.0599664
-0.0108046
0.0297169
-0.0133366
0.0539712
-0.029704
0.0770233
-0.0626829
0.0968826
-0.120725
0.0598349
-0.0106661
0.0293726
-0.0130978
0.0533663
-0.0292252
0.0758327
-0.062011
0.0949211
-0.12318
0.0627873
-0.0106759
0.0293963
-0.0131152
0.0534063
-0.0292618
0.075912
-0.0620667
0.0950641
-0.123032
0.062538
-0.010685
0.0294193
-0.0131297
0.0534462
-0.0292906
0.0759904
-0.0621057
0.0952
-0.122851
0.0623965
-0.0106942
0.029442
-0.0131447
0.0534862
-0.02932
0.0760694
-0.0621455
0.0953364
-0.122672
0.0622371
-0.0107033
0.0294644
-0.0131602
0.0535259
-0.0293505
0.076148
-0.0621874
0.0954717
-0.122504
0.0620575
-0.0107124
0.0294863
-0.013176
0.0535652
-0.0293814
0.0762258
-0.0622298
0.095605
-0.122342
0.0618717
-0.0107214
0.0295078
-0.013192
0.053604
-0.0294124
0.0763032
-0.0622722
0.0957367
-0.122186
0.0616832
-0.0107305
0.029529
-0.0132083
0.0536429
-0.0294437
0.0763808
-0.0623145
0.0958686
-0.122034
0.0614939
-0.0107395
0.0295498
-0.0132252
0.0536813
-0.0294759
0.0764576
-0.0623584
0.0959997
-0.12189
0.0612964
-0.0107478
0.029569
-0.0132411
0.0537153
-0.0295087
0.0765257
-0.0624083
0.0961151
-0.121772
0.0610535
-0.0105413
0.0291035
-0.0128639
0.0528705
-0.028778
0.0748211
-0.0613793
0.0929284
-0.125535
0.0667121
-0.0105551
0.0291368
-0.0128841
0.052929
-0.0288092
0.0749325
-0.0614091
0.0931255
-0.124814
0.0653378
-0.0105694
0.029166
-0.0129117
0.0529861
-0.0288612
0.0750517
-0.061482
0.0933775
-0.124627
0.0652663
-0.010582
0.0291929
-0.0129356
0.0530362
-0.0289076
0.075155
-0.0615489
0.0935916
-0.12447
0.0651427
-0.0105943
0.0292195
-0.0129581
0.053085
-0.0289509
0.0752545
-0.06161
0.0937915
-0.12426
0.0648431
-0.0106066
0.029246
-0.012981
0.053134
-0.0289945
0.0753547
-0.061671
0.0939904
-0.124046
0.064525
-0.0106189
0.0292724
-0.0130041
0.0531832
-0.0290384
0.0754551
-0.0617324
0.0941877
-0.123844
0.0642252
-0.0106312
0.0292986
-0.0130275
0.0532325
-0.0290823
0.0755561
-0.0617931
0.0943836
-0.123644
0.0639364
-0.0106435
0.0293245
-0.0130516
0.0532817
-0.0291277
0.075657
-0.061856
0.0945781
-0.123456
0.0636402
-0.0106553
0.0293489
-0.0130758
0.0533258
-0.0291768
0.0757486
-0.0619314
0.094758
-0.12332
0.0632587
-0.0428415
-0.0679094
-0.0680659
-0.107514
-0.109553
-0.185106
-0.198772
-0.361243
-0.460265
-0.823644
-0.0429733
-0.0678426
-0.0680079
-0.107083
-0.109202
-0.183977
-0.198081
-0.359235
-0.462454
-0.816441
-0.0431154
-0.0677767
-0.0679855
-0.106678
-0.108958
-0.182969
-0.197716
-0.35779
-0.46481
-0.80731
-0.0432544
-0.0677013
-0.0679456
-0.106244
-0.10866
-0.18188
-0.197186
-0.356199
-0.466838
-0.80143
-0.0433887
-0.0676158
-0.0678828
-0.105774
-0.108291
-0.180688
-0.196442
-0.35436
-0.468398
-0.797526
-0.0435198
-0.0675215
-0.0678035
-0.105277
-0.107873
-0.179416
-0.195553
-0.352372
-0.469611
-0.794409
-0.0436483
-0.067419
-0.0677101
-0.104754
-0.107411
-0.178072
-0.194538
-0.350267
-0.470551
-0.79197
-0.0437762
-0.067311
-0.0676056
-0.104208
-0.10691
-0.176662
-0.193409
-0.34807
-0.471352
-0.790681
-0.043907
-0.0672001
-0.0674968
-0.103645
-0.106387
-0.175205
-0.192224
-0.34593
-0.472487
-0.791403
-0.0440134
-0.0670443
-0.0673381
-0.103011
-0.105758
-0.173593
-0.190742
-0.343288
-0.472448
-0.790081
-0.0413788
-0.0681082
-0.06851
-0.111132
-0.112998
-0.195326
-0.205276
-0.384679
-0.444507
-0.895068
-0.0415277
-0.0681342
-0.0684966
-0.110877
-0.11273
-0.194536
-0.204829
-0.382631
-0.446601
-0.883048
-0.0416875
-0.0681587
-0.068522
-0.110644
-0.112583
-0.193846
-0.204757
-0.381039
-0.449345
-0.867887
-0.041845
-0.0681712
-0.0685328
-0.110379
-0.112397
-0.193079
-0.204571
-0.379281
-0.451777
-0.856115
-0.0419979
-0.0681702
-0.0685197
-0.110072
-0.11214
-0.192201
-0.204177
-0.377232
-0.453626
-0.846889
-0.0421476
-0.0681571
-0.0684881
-0.10973
-0.11183
-0.191231
-0.203627
-0.374967
-0.455038
-0.838858
-0.0422949
-0.0681324
-0.068441
-0.109356
-0.111476
-0.190179
-0.202949
-0.372529
-0.456134
-0.831781
-0.0424398
-0.0680965
-0.0683788
-0.10895
-0.111078
-0.189046
-0.202141
-0.369919
-0.456921
-0.825611
-0.0425826
-0.0680501
-0.0683025
-0.108513
-0.110638
-0.187835
-0.201203
-0.367123
-0.457289
-0.819885
-0.0427221
-0.0679916
-0.0682082
-0.108042
-0.110148
-0.18653
-0.200113
-0.364114
-0.457469
-0.816265
-0.0397541
-0.0670983
-0.0682698
-0.11226
-0.115126
-0.200333
-0.208772
-0.399861
-0.429295
-0.973102
-0.0399215
-0.0672563
-0.0683272
-0.112271
-0.11497
-0.200118
-0.208477
-0.399057
-0.430842
-0.961481
-0.0400983
-0.0674126
-0.0684236
-0.112306
-0.114944
-0.199994
-0.208609
-0.398592
-0.433513
-0.945239
-0.0402727
-0.0675547
-0.0685072
-0.112306
-0.11489
-0.199788
-0.20869
-0.397892
-0.436061
-0.932267
-0.0404422
-0.06768
-0.0685661
-0.11226
-0.114769
-0.199458
-0.208592
-0.396821
-0.438059
-0.922221
-0.0406078
-0.0677899
-0.0686046
-0.112172
-0.114595
-0.19902
-0.208353
-0.395444
-0.439613
-0.913609
-0.0407705
-0.0678852
-0.0686261
-0.112046
-0.114378
-0.198486
-0.208004
-0.393809
-0.440846
-0.905999
-0.0409304
-0.0679663
-0.0686311
-0.111884
-0.114117
-0.197856
-0.207545
-0.39192
-0.441775
-0.899377
-0.0410879
-0.0680338
-0.0686208
-0.111685
-0.113817
-0.197137
-0.206981
-0.389783
-0.442352
-0.893576
-0.0412424
-0.0680868
-0.0685934
-0.111449
-0.113474
-0.196322
-0.206311
-0.3874
-0.442797
-0.890045
-0.0378981
-0.064633
-0.0670978
-0.110416
-0.115735
-0.198517
-0.210743
-0.395997
-0.417889
-1.00119
-0.0380963
-0.0649424
-0.067257
-0.110721
-0.115737
-0.198977
-0.210576
-0.3973
-0.418781
-0.995676
-0.0383004
-0.0652519
-0.0674506
-0.11106
-0.115855
-0.199567
-0.210759
-0.399027
-0.420851
-0.984383
-0.0385006
-0.0655456
-0.0676311
-0.111366
-0.11595
-0.200075
-0.210926
-0.400458
-0.42299
-0.976164
-0.0386946
-0.0658202
-0.0677859
-0.111623
-0.115982
-0.200447
-0.210954
-0.401431
-0.424715
-0.971057
-0.0388834
-0.0660772
-0.0679186
-0.111835
-0.115961
-0.200702
-0.210862
-0.402022
-0.426053
-0.967511
-0.0390677
-0.0663176
-0.0680324
-0.112009
-0.115896
-0.200853
-0.210675
-0.402286
-0.427091
-0.964981
-0.039248
-0.0665418
-0.068128
-0.112144
-0.115788
-0.200902
-0.210396
-0.402229
-0.427844
-0.963473
-0.0394247
-0.0667504
-0.0682071
-0.112241
-0.115642
-0.200852
-0.210036
-0.401858
-0.428292
-0.962994
-0.0395975
-0.0669423
-0.0682687
-0.112298
-0.115458
-0.200703
-0.209604
-0.401175
-0.428631
-0.96483
-0.0356612
-0.060705
-0.0647658
-0.105862
-0.114373
-0.190487
-0.210684
-0.369693
-0.40813
-0.931262
-0.0359079
-0.0611549
-0.0650553
-0.106425
-0.114576
-0.191554
-0.210681
-0.37343
-0.408666
-0.936247
-0.0361562
-0.0616162
-0.0653663
-0.107026
-0.114896
-0.192734
-0.211064
-0.37743
-0.410527
-0.934671
-0.0363983
-0.0620605
-0.0656627
-0.107597
-0.115188
-0.193848
-0.211407
-0.381168
-0.412446
-0.936278
-0.0366324
-0.0624829
-0.0659337
-0.108123
-0.115414
-0.194843
-0.211596
-0.384486
-0.413983
-0.941088
-0.0368595
-0.0628865
-0.0661821
-0.108607
-0.115585
-0.195731
-0.211667
-0.387418
-0.415185
-0.947432
-0.0370802
-0.063273
-0.0664103
-0.109055
-0.115713
-0.196521
-0.211652
-0.389996
-0.416123
-0.954746
-0.037295
-0.0636427
-0.0666191
-0.109466
-0.115798
-0.197211
-0.211558
-0.392217
-0.416798
-0.963106
-0.0375043
-0.063996
-0.0668101
-0.109841
-0.115846
-0.197802
-0.211398
-0.394071
-0.417205
-0.972628
-0.0377083
-0.0643315
-0.0669834
-0.110178
-0.115861
-0.198286
-0.211206
-0.39549
-0.417572
-0.984477
-0.032931
-0.0556013
-0.0612014
-0.0992834
-0.111049
-0.178031
-0.20778
-0.323507
-0.394041
-0.734834
-0.0332342
-0.0561774
-0.0616065
-0.100013
-0.111491
-0.179373
-0.208362
-0.328607
-0.396104
-0.751648
-0.0335357
-0.0567549
-0.0620431
-0.10079
-0.112031
-0.180872
-0.209186
-0.334125
-0.398904
-0.76228
-0.0338292
-0.057316
-0.0624611
-0.101543
-0.11253
-0.182332
-0.209908
-0.339504
-0.401559
-0.776663
-0.0341137
-0.0578573
-0.0628511
-0.102256
-0.112957
-0.183705
-0.210447
-0.344585
-0.403799
-0.794262
-0.0343901
-0.0583803
-0.0632187
-0.102937
-0.113327
-0.185005
-0.210836
-0.349408
-0.405636
-0.813228
-0.0346589
-0.0588861
-0.0635669
-0.103588
-0.113648
-0.186243
-0.211098
-0.354004
-0.407076
-0.833127
-0.0349204
-0.0593745
-0.0638963
-0.104211
-0.113922
-0.18742
-0.211235
-0.358367
-0.408086
-0.854176
-0.0351751
-0.0598464
-0.0642081
-0.104807
-0.114151
-0.188534
-0.211256
-0.362493
-0.408642
-0.876597
-0.0354231
-0.0602975
-0.0645041
-0.105372
-0.114336
-0.189587
-0.211166
-0.366362
-0.408792
-0.901576
-0.0297402
-0.0496065
-0.0568729
-0.0917951
-0.105821
-0.165137
-0.198073
-0.272409
-0.351778
-0.421267
-0.0300905
-0.0502551
-0.0573575
-0.0925906
-0.106449
-0.166444
-0.199458
-0.277527
-0.357834
-0.447721
-0.0304386
-0.0509091
-0.0578711
-0.0934418
-0.10717
-0.167922
-0.200992
-0.283137
-0.363774
-0.46947
-0.0307778
-0.051548
-0.0583634
-0.0942681
-0.107842
-0.169361
-0.202396
-0.288692
-0.369473
-0.49597
-0.0311077
-0.0521693
-0.0588287
-0.0950588
-0.108447
-0.17073
-0.203618
-0.294067
-0.374778
-0.52556
-0.0314294
-0.0527754
-0.0592735
-0.0958231
-0.109001
-0.172051
-0.204687
-0.29931
-0.379576
-0.556212
-0.0317434
-0.0533676
-0.0597002
-0.0965656
-0.109513
-0.173336
-0.205617
-0.304444
-0.383806
-0.587773
-0.0320498
-0.0539458
-0.0601088
-0.0972862
-0.10998
-0.174582
-0.206408
-0.30946
-0.387432
-0.620624
-0.0323491
-0.0545105
-0.0605003
-0.0979859
-0.110406
-0.175792
-0.207061
-0.314349
-0.390425
-0.65503
-0.0326412
-0.0550597
-0.0608719
-0.0986597
-0.110786
-0.176958
-0.207568
-0.31906
-0.392713
-0.69219
-0.0259587
-0.0428514
-0.0516809
-0.0836113
-0.0991724
-0.15304
-0.181236
-0.225776
-0.250075
-0.0382558
-0.0268146
-0.0442432
-0.0530937
-0.0857186
-0.101351
-0.156188
-0.185341
-0.231534
-0.263601
-0.0585243
-0.0271522
-0.0448707
-0.0534792
-0.0863458
-0.101658
-0.156862
-0.186624
-0.235796
-0.277933
-0.0948455
-0.0274292
-0.0453987
-0.0538071
-0.0868734
-0.101998
-0.157598
-0.187987
-0.240442
-0.290065
-0.131852
-0.02776
-0.046004
-0.0542633
-0.087591
-0.10262
-0.158737
-0.189762
-0.245336
-0.300903
-0.167334
-0.0281092
-0.0466362
-0.0547515
-0.088361
-0.103285
-0.159943
-0.191523
-0.250138
-0.31121
-0.203772
-0.0284496
-0.0472546
-0.055216
-0.0890997
-0.103886
-0.161072
-0.193105
-0.254799
-0.320981
-0.242156
-0.0287791
-0.0478554
-0.0556562
-0.0898063
-0.104434
-0.162142
-0.194538
-0.259364
-0.33002
-0.28229
-0.0291013
-0.0484442
-0.0560813
-0.0904948
-0.104948
-0.163183
-0.195853
-0.263846
-0.338213
-0.324101
-0.0294169
-0.0490197
-0.0564888
-0.0911592
-0.105421
-0.164181
-0.197024
-0.268134
-0.345369
-0.368881
0.108677
0.103076
0.114028
0.102
0.124287
0.105375
0.157378
0.127205
0.295934
0.182544
0.108674
0.103077
0.114011
0.102019
0.124243
0.105445
0.157206
0.127399
0.294464
0.175786
0.108671
0.103079
0.113995
0.10204
0.124198
0.105522
0.157029
0.12763
0.292891
0.16976
0.108668
0.10308
0.113979
0.102059
0.124153
0.105596
0.156851
0.127841
0.291292
0.163598
0.108665
0.103081
0.113959
0.102079
0.124107
0.105667
0.156669
0.128025
0.289627
0.157183
0.108662
0.103082
0.113943
0.102097
0.12406
0.105734
0.15648
0.128183
0.28787
0.150619
0.108659
0.103082
0.113926
0.102115
0.124012
0.105797
0.156287
0.128315
0.286044
0.143941
0.108656
0.103082
0.11391
0.102133
0.123966
0.105864
0.1561
0.128466
0.284288
0.137161
0.108652
0.103083
0.113893
0.102154
0.12392
0.105947
0.155924
0.1287
0.282547
0.130295
0.108648
0.103086
0.113867
0.102176
0.123856
0.106001
0.15566
0.128671
0.27955
0.123099
0.108699
0.103077
0.114173
0.101852
0.124704
0.104836
0.159132
0.125891
0.309307
0.244521
0.108697
0.103077
0.11416
0.101867
0.124668
0.10489
0.15898
0.126042
0.308249
0.238901
0.108695
0.103078
0.114146
0.101883
0.124629
0.104953
0.158821
0.126236
0.307109
0.233618
0.108693
0.103079
0.114132
0.101898
0.124589
0.105013
0.158656
0.126413
0.305912
0.228165
0.108691
0.103079
0.114118
0.101913
0.124548
0.105069
0.158485
0.126566
0.304638
0.222448
0.108689
0.103079
0.114104
0.101928
0.124506
0.105124
0.158306
0.126699
0.303283
0.216512
0.108686
0.103079
0.114089
0.101942
0.124463
0.105176
0.158121
0.126816
0.301848
0.210381
0.108684
0.103078
0.114074
0.101955
0.124419
0.105226
0.157927
0.126911
0.300313
0.204104
0.108682
0.103077
0.114058
0.101968
0.124372
0.105272
0.157722
0.126977
0.298642
0.197698
0.10868
0.103076
0.114043
0.101982
0.124326
0.105319
0.157521
0.127045
0.296989
0.190648
0.108713
0.103079
0.114272
0.101756
0.125001
0.104476
0.160419
0.125053
0.3178
0.288056
0.108712
0.103079
0.114264
0.101765
0.124979
0.10451
0.160327
0.125154
0.317248
0.284737
0.10871
0.10308
0.114255
0.101776
0.124954
0.104552
0.160226
0.125295
0.316642
0.281411
0.108709
0.103081
0.114246
0.101786
0.124928
0.104593
0.160116
0.125421
0.315962
0.277848
0.108708
0.103081
0.114237
0.101796
0.1249
0.104631
0.159996
0.125523
0.315198
0.274004
0.108706
0.103081
0.114227
0.101805
0.12487
0.104667
0.159867
0.125608
0.314349
0.269893
0.108705
0.10308
0.114217
0.101814
0.124839
0.104701
0.159729
0.125675
0.313416
0.265528
0.108704
0.103079
0.114207
0.101823
0.124806
0.104733
0.159579
0.125722
0.312384
0.26094
0.108702
0.103078
0.114196
0.101831
0.124772
0.104762
0.159419
0.125747
0.311238
0.256124
0.108701
0.103077
0.114184
0.10184
0.124736
0.104795
0.159259
0.125787
0.3101
0.25074
0.108717
0.10308
0.114309
0.101721
0.125114
0.104341
0.160917
0.124749
0.320812
0.304731
0.108717
0.103081
0.114307
0.101724
0.125112
0.104353
0.160912
0.12481
0.320827
0.304391
0.108717
0.103082
0.114305
0.101728
0.125107
0.104371
0.160898
0.124894
0.320797
0.303782
0.108716
0.103082
0.114302
0.101732
0.1251
0.104387
0.160873
0.12496
0.320681
0.302893
0.108716
0.103083
0.114299
0.101736
0.125091
0.104402
0.160837
0.125006
0.320478
0.301717
0.108715
0.103082
0.114296
0.101739
0.125081
0.104414
0.16079
0.125034
0.320191
0.300251
0.108715
0.103082
0.114292
0.101742
0.125068
0.104425
0.160732
0.125045
0.319819
0.2985
0.108714
0.103081
0.114288
0.101744
0.125054
0.104434
0.160662
0.125034
0.319352
0.296478
0.108714
0.10308
0.114283
0.101746
0.125037
0.104441
0.16058
0.125006
0.318789
0.294178
0.108713
0.103079
0.114278
0.10175
0.125019
0.104454
0.160495
0.125004
0.318219
0.291427
0.108713
0.103079
0.114278
0.10175
0.125019
0.104454
0.160495
0.125004
0.318219
0.291427
0.108714
0.10308
0.114283
0.101746
0.125037
0.104441
0.16058
0.125006
0.318789
0.294178
0.108714
0.103081
0.114288
0.101744
0.125054
0.104434
0.160662
0.125034
0.319352
0.296478
0.108715
0.103082
0.114292
0.101742
0.125068
0.104425
0.160732
0.125045
0.319819
0.2985
0.108715
0.103082
0.114296
0.101739
0.125081
0.104414
0.16079
0.125034
0.320191
0.300251
0.108716
0.103083
0.114299
0.101736
0.125091
0.104402
0.160837
0.125006
0.320478
0.301717
0.108716
0.103082
0.114302
0.101732
0.1251
0.104387
0.160873
0.12496
0.320681
0.302893
0.108717
0.103082
0.114305
0.101728
0.125107
0.104371
0.160898
0.124894
0.320797
0.303782
0.108717
0.103081
0.114307
0.101724
0.125112
0.104353
0.160912
0.12481
0.320827
0.304391
0.108717
0.10308
0.114309
0.101721
0.125114
0.104341
0.160917
0.124749
0.320812
0.304731
0.108701
0.103077
0.114185
0.10184
0.124736
0.104795
0.159259
0.125787
0.3101
0.25074
0.108702
0.103078
0.114196
0.101831
0.124772
0.104762
0.159419
0.125747
0.311238
0.256124
0.108704
0.103079
0.114207
0.101823
0.124806
0.104733
0.159579
0.125722
0.312384
0.26094
0.108705
0.10308
0.114217
0.101814
0.124839
0.104701
0.159729
0.125675
0.313416
0.265528
0.108706
0.103081
0.114227
0.101805
0.12487
0.104667
0.159867
0.125608
0.314349
0.269893
0.108708
0.103081
0.114237
0.101796
0.1249
0.104631
0.159996
0.125523
0.315198
0.274004
0.108709
0.103081
0.114246
0.101786
0.124928
0.104593
0.160116
0.125421
0.315962
0.277848
0.10871
0.10308
0.114255
0.101776
0.124954
0.104552
0.160226
0.125295
0.316642
0.281411
0.108712
0.103079
0.114264
0.101765
0.124979
0.10451
0.160327
0.125154
0.317248
0.284737
0.108713
0.103079
0.114272
0.101756
0.125001
0.104476
0.160419
0.125053
0.3178
0.288056
0.10868
0.103076
0.114043
0.101982
0.124326
0.105319
0.157521
0.127045
0.296989
0.190648
0.108682
0.103077
0.114058
0.101968
0.124372
0.105272
0.157722
0.126977
0.298642
0.197698
0.108684
0.103078
0.114074
0.101955
0.124419
0.105226
0.157927
0.126911
0.300313
0.204104
0.108686
0.103079
0.114089
0.101942
0.124463
0.105176
0.158121
0.126816
0.301848
0.210381
0.108689
0.103079
0.114104
0.101928
0.124506
0.105124
0.158306
0.126699
0.303283
0.216512
0.108691
0.103079
0.114118
0.101913
0.124548
0.105069
0.158485
0.126566
0.304638
0.222448
0.108693
0.103079
0.114132
0.101898
0.124589
0.105013
0.158656
0.126413
0.305912
0.228165
0.108695
0.103078
0.114146
0.101883
0.124629
0.104953
0.158821
0.126236
0.307109
0.233618
0.108697
0.103077
0.11416
0.101866
0.124668
0.10489
0.15898
0.126042
0.308249
0.238901
0.108699
0.103077
0.114173
0.101852
0.124704
0.104836
0.159132
0.125891
0.309307
0.244521
0.108648
0.103086
0.113867
0.102176
0.123856
0.106001
0.15566
0.128671
0.27955
0.123099
0.108652
0.103083
0.113893
0.102154
0.12392
0.105947
0.155924
0.1287
0.282547
0.130295
0.108656
0.103082
0.11391
0.102133
0.123966
0.105864
0.1561
0.128466
0.284288
0.137161
0.108659
0.103082
0.113926
0.102115
0.124013
0.105797
0.156287
0.128315
0.286044
0.143941
0.108662
0.103082
0.113943
0.102097
0.12406
0.105734
0.15648
0.128183
0.28787
0.150619
0.108665
0.103081
0.113959
0.102079
0.124107
0.105667
0.156669
0.128025
0.289627
0.157183
0.108668
0.10308
0.113979
0.102059
0.124153
0.105596
0.156851
0.127841
0.291292
0.163598
0.108671
0.103079
0.113995
0.10204
0.124198
0.105522
0.157029
0.12763
0.292891
0.16976
0.108674
0.103078
0.114011
0.102019
0.124243
0.105445
0.157206
0.127399
0.294464
0.175786
0.108677
0.103076
0.114028
0.102
0.124287
0.105375
0.157378
0.127205
0.295934
0.182544
-0.0294169
-0.0490197
-0.0564888
-0.0911592
-0.105421
-0.164181
-0.197024
-0.268134
-0.345369
-0.368881
-0.0291013
-0.0484442
-0.0560813
-0.0904948
-0.104948
-0.163183
-0.195853
-0.263846
-0.338213
-0.324101
-0.0287791
-0.0478554
-0.0556562
-0.0898063
-0.104434
-0.162142
-0.194538
-0.259364
-0.33002
-0.28229
-0.0284496
-0.0472545
-0.0552159
-0.0890997
-0.103886
-0.161072
-0.193105
-0.254799
-0.320981
-0.242156
-0.0281092
-0.0466362
-0.0547515
-0.088361
-0.103285
-0.159943
-0.191523
-0.250138
-0.31121
-0.203772
-0.02776
-0.0460039
-0.0542633
-0.087591
-0.10262
-0.158737
-0.189762
-0.245336
-0.300903
-0.167334
-0.0274291
-0.0453987
-0.053807
-0.0868734
-0.101998
-0.157598
-0.187987
-0.240442
-0.290065
-0.131852
-0.0271522
-0.0448707
-0.0534792
-0.0863458
-0.101658
-0.156862
-0.186624
-0.235796
-0.277933
-0.0948455
-0.0268145
-0.0442432
-0.0530937
-0.0857186
-0.101351
-0.156188
-0.185341
-0.231534
-0.263601
-0.0585243
-0.0259586
-0.0428514
-0.0516809
-0.0836113
-0.0991723
-0.15304
-0.181236
-0.225776
-0.250075
-0.0382558
-0.0326412
-0.0550597
-0.0608719
-0.0986597
-0.110786
-0.176958
-0.207568
-0.31906
-0.392713
-0.69219
-0.0323491
-0.0545104
-0.0605003
-0.0979859
-0.110406
-0.175792
-0.207061
-0.314349
-0.390425
-0.65503
-0.0320498
-0.0539457
-0.0601088
-0.0972862
-0.10998
-0.174582
-0.206408
-0.30946
-0.387432
-0.620624
-0.0317434
-0.0533675
-0.0597001
-0.0965656
-0.109513
-0.173336
-0.205617
-0.304444
-0.383806
-0.587773
-0.0314294
-0.0527754
-0.0592735
-0.0958231
-0.109001
-0.172051
-0.204687
-0.29931
-0.379576
-0.556212
-0.0311077
-0.0521693
-0.0588287
-0.0950588
-0.108447
-0.17073
-0.203618
-0.294067
-0.374778
-0.52556
-0.0307777
-0.051548
-0.0583633
-0.0942681
-0.107842
-0.169361
-0.202396
-0.288692
-0.369473
-0.49597
-0.0304386
-0.0509091
-0.0578711
-0.0934418
-0.10717
-0.167922
-0.200992
-0.283137
-0.363774
-0.46947
-0.0300904
-0.0502551
-0.0573574
-0.0925906
-0.106449
-0.166444
-0.199458
-0.277527
-0.357834
-0.447721
-0.0297402
-0.0496065
-0.0568729
-0.0917951
-0.105821
-0.165137
-0.198073
-0.272409
-0.351778
-0.421267
-0.0354231
-0.0602975
-0.0645041
-0.105372
-0.114336
-0.189587
-0.211166
-0.366362
-0.408792
-0.901576
-0.0351751
-0.0598464
-0.0642081
-0.104807
-0.114151
-0.188534
-0.211256
-0.362493
-0.408642
-0.876597
-0.0349204
-0.0593745
-0.0638963
-0.104211
-0.113922
-0.18742
-0.211235
-0.358367
-0.408086
-0.854176
-0.0346589
-0.0588861
-0.0635669
-0.103588
-0.113648
-0.186243
-0.211098
-0.354004
-0.407076
-0.833127
-0.0343901
-0.0583803
-0.0632186
-0.102936
-0.113327
-0.185005
-0.210836
-0.349408
-0.405635
-0.813228
-0.0341137
-0.0578573
-0.0628511
-0.102256
-0.112957
-0.183705
-0.210447
-0.344585
-0.403799
-0.794262
-0.0338292
-0.057316
-0.062461
-0.101543
-0.11253
-0.182332
-0.209908
-0.339504
-0.401559
-0.776663
-0.0335357
-0.0567549
-0.0620431
-0.10079
-0.112031
-0.180872
-0.209186
-0.334125
-0.398904
-0.76228
-0.0332342
-0.0561774
-0.0616065
-0.100013
-0.111491
-0.179373
-0.208362
-0.328607
-0.396104
-0.751648
-0.032931
-0.0556013
-0.0612014
-0.0992834
-0.111049
-0.178031
-0.20778
-0.323507
-0.394041
-0.734834
-0.0377083
-0.0643315
-0.0669834
-0.110178
-0.115861
-0.198286
-0.211206
-0.39549
-0.417572
-0.984477
-0.0375043
-0.0639959
-0.0668101
-0.109841
-0.115846
-0.197802
-0.211398
-0.394071
-0.417205
-0.972628
-0.037295
-0.0636427
-0.0666191
-0.109466
-0.115798
-0.197211
-0.211558
-0.392217
-0.416798
-0.963106
-0.0370802
-0.063273
-0.0664103
-0.109055
-0.115713
-0.196521
-0.211652
-0.389996
-0.416123
-0.954746
-0.0368595
-0.0628865
-0.0661821
-0.108607
-0.115585
-0.195731
-0.211667
-0.387418
-0.415185
-0.947432
-0.0366324
-0.0624829
-0.0659337
-0.108123
-0.115414
-0.194843
-0.211596
-0.384486
-0.413983
-0.941088
-0.0363983
-0.0620604
-0.0656626
-0.107597
-0.115188
-0.193848
-0.211407
-0.381168
-0.412446
-0.936278
-0.0361562
-0.0616161
-0.0653663
-0.107026
-0.114896
-0.192734
-0.211064
-0.37743
-0.410527
-0.934671
-0.0359079
-0.0611549
-0.0650553
-0.106425
-0.114576
-0.191554
-0.210681
-0.37343
-0.408666
-0.936247
-0.0356612
-0.0607049
-0.0647658
-0.105862
-0.114373
-0.190487
-0.210684
-0.369693
-0.40813
-0.931262
-0.0395975
-0.0669423
-0.0682687
-0.112298
-0.115458
-0.200703
-0.209604
-0.401175
-0.428631
-0.96483
-0.0394247
-0.0667503
-0.0682071
-0.112241
-0.115642
-0.200852
-0.210036
-0.401858
-0.428292
-0.962994
-0.039248
-0.0665418
-0.068128
-0.112144
-0.115788
-0.200902
-0.210396
-0.402229
-0.427844
-0.963473
-0.0390677
-0.0663176
-0.0680324
-0.112009
-0.115896
-0.200853
-0.210675
-0.402286
-0.427091
-0.964981
-0.0388834
-0.0660772
-0.0679186
-0.111835
-0.115961
-0.200702
-0.210862
-0.402022
-0.426053
-0.967511
-0.0386946
-0.0658202
-0.0677859
-0.111623
-0.115982
-0.200447
-0.210954
-0.401431
-0.424715
-0.971057
-0.0385006
-0.0655456
-0.0676311
-0.111366
-0.11595
-0.200075
-0.210926
-0.400458
-0.42299
-0.976164
-0.0383003
-0.0652518
-0.0674506
-0.11106
-0.115855
-0.199567
-0.210759
-0.399027
-0.420851
-0.984383
-0.0380963
-0.0649424
-0.067257
-0.110721
-0.115737
-0.198977
-0.210576
-0.3973
-0.418781
-0.995676
-0.0378981
-0.064633
-0.0670978
-0.110416
-0.115735
-0.198517
-0.210743
-0.395997
-0.417889
-1.00119
-0.0412423
-0.0680868
-0.0685934
-0.111449
-0.113474
-0.196322
-0.206311
-0.3874
-0.442797
-0.890045
-0.0410879
-0.0680338
-0.0686208
-0.111685
-0.113817
-0.197137
-0.206981
-0.389783
-0.442352
-0.893576
-0.0409304
-0.0679663
-0.0686311
-0.111884
-0.114117
-0.197856
-0.207545
-0.39192
-0.441775
-0.899377
-0.0407705
-0.0678852
-0.0686261
-0.112046
-0.114378
-0.198486
-0.208004
-0.393809
-0.440846
-0.905999
-0.0406078
-0.0677899
-0.0686046
-0.112172
-0.114595
-0.19902
-0.208353
-0.395444
-0.439613
-0.913609
-0.0404422
-0.06768
-0.0685661
-0.11226
-0.114769
-0.199458
-0.208592
-0.396821
-0.438059
-0.922221
-0.0402727
-0.0675547
-0.0685072
-0.112306
-0.11489
-0.199788
-0.20869
-0.397892
-0.436061
-0.932267
-0.0400983
-0.0674126
-0.0684236
-0.112306
-0.114944
-0.199994
-0.208609
-0.398592
-0.433513
-0.945239
-0.0399215
-0.0672563
-0.0683272
-0.112271
-0.11497
-0.200118
-0.208477
-0.399057
-0.430842
-0.961481
-0.0397541
-0.0670983
-0.0682698
-0.11226
-0.115126
-0.200333
-0.208772
-0.399861
-0.429295
-0.973102
-0.0427221
-0.0679916
-0.0682082
-0.108042
-0.110148
-0.18653
-0.200113
-0.364114
-0.457469
-0.816265
-0.0425826
-0.0680501
-0.0683025
-0.108513
-0.110638
-0.187835
-0.201203
-0.367123
-0.457289
-0.819885
-0.0424398
-0.0680965
-0.0683788
-0.10895
-0.111078
-0.189046
-0.202141
-0.369919
-0.456921
-0.825611
-0.0422949
-0.0681324
-0.068441
-0.109356
-0.111476
-0.190179
-0.202949
-0.372529
-0.456134
-0.831781
-0.0421476
-0.0681571
-0.0684881
-0.10973
-0.11183
-0.191231
-0.203627
-0.374967
-0.455038
-0.838858
-0.0419979
-0.0681702
-0.0685197
-0.110072
-0.11214
-0.192201
-0.204177
-0.377232
-0.453626
-0.846889
-0.041845
-0.0681712
-0.0685328
-0.110379
-0.112397
-0.193079
-0.204571
-0.379281
-0.451777
-0.856115
-0.0416875
-0.0681587
-0.068522
-0.110644
-0.112583
-0.193847
-0.204757
-0.381039
-0.449345
-0.867887
-0.0415277
-0.0681342
-0.0684966
-0.110877
-0.11273
-0.194536
-0.204829
-0.382631
-0.446601
-0.883048
-0.0413788
-0.0681082
-0.0685101
-0.111132
-0.112998
-0.195326
-0.205276
-0.384679
-0.444507
-0.895068
-0.0440134
-0.0670443
-0.0673381
-0.103011
-0.105758
-0.173593
-0.190742
-0.343288
-0.472448
-0.790081
-0.043907
-0.0672001
-0.0674969
-0.103645
-0.106387
-0.175205
-0.192224
-0.34593
-0.472487
-0.791403
-0.0437762
-0.067311
-0.0676057
-0.104208
-0.10691
-0.176662
-0.193409
-0.34807
-0.471352
-0.790681
-0.0436483
-0.067419
-0.0677101
-0.104754
-0.107411
-0.178072
-0.194538
-0.350267
-0.470551
-0.79197
-0.0435198
-0.0675215
-0.0678035
-0.105277
-0.107873
-0.179416
-0.195553
-0.352372
-0.469611
-0.794409
-0.0433887
-0.0676158
-0.0678828
-0.105774
-0.108291
-0.180688
-0.196442
-0.35436
-0.468398
-0.797526
-0.0432544
-0.0677013
-0.0679456
-0.106244
-0.10866
-0.18188
-0.197186
-0.356199
-0.466838
-0.80143
-0.0431154
-0.0677767
-0.0679855
-0.106678
-0.108958
-0.182969
-0.197716
-0.35779
-0.46481
-0.80731
-0.0429733
-0.0678426
-0.0680079
-0.107083
-0.109202
-0.183977
-0.198081
-0.359235
-0.462454
-0.816441
-0.0428415
-0.0679094
-0.0680659
-0.107514
-0.109553
-0.185106
-0.198772
-0.361243
-0.460265
-0.823644
-0.0106553
0.0293488
-0.0130758
0.0533258
-0.0291769
0.0757486
-0.0619314
0.094758
-0.12332
0.0632587
-0.0106436
0.0293245
-0.0130516
0.0532817
-0.0291277
0.075657
-0.061856
0.0945781
-0.123456
0.0636402
-0.0106312
0.0292985
-0.0130274
0.0532325
-0.0290824
0.0755562
-0.061793
0.0943836
-0.123644
0.0639364
-0.0106189
0.0292724
-0.013004
0.0531832
-0.0290384
0.0754551
-0.0617324
0.0941877
-0.123844
0.0642252
-0.0106066
0.029246
-0.0129809
0.053134
-0.0289945
0.0753547
-0.061671
0.0939904
-0.124047
0.064525
-0.0105943
0.0292195
-0.0129581
0.053085
-0.0289509
0.0752545
-0.0616099
0.0937914
-0.12426
0.0648432
-0.0105821
0.0291929
-0.0129355
0.0530362
-0.0289076
0.075155
-0.0615489
0.0935916
-0.12447
0.0651427
-0.0105694
0.029166
-0.0129117
0.0529861
-0.0288612
0.0750517
-0.061482
0.0933775
-0.124627
0.0652663
-0.0105551
0.0291368
-0.0128841
0.052929
-0.0288092
0.0749325
-0.061409
0.0931255
-0.124814
0.0653378
-0.0105414
0.0291035
-0.0128638
0.0528705
-0.028778
0.0748211
-0.0613793
0.0929284
-0.125535
0.0667121
-0.0107478
0.029569
-0.0132411
0.0537153
-0.0295088
0.0765257
-0.0624083
0.0961151
-0.121772
0.0610535
-0.0107396
0.0295498
-0.0132251
0.0536813
-0.0294759
0.0764576
-0.0623584
0.0959997
-0.12189
0.0612964
-0.0107305
0.029529
-0.0132083
0.0536429
-0.0294437
0.0763808
-0.0623145
0.0958686
-0.122034
0.0614939
-0.0107215
0.0295078
-0.0131919
0.053604
-0.0294124
0.0763032
-0.0622722
0.0957367
-0.122186
0.0616832
-0.0107124
0.0294863
-0.013176
0.0535652
-0.0293814
0.0762259
-0.0622298
0.095605
-0.122342
0.0618717
-0.0107033
0.0294644
-0.0131602
0.0535259
-0.0293506
0.076148
-0.0621874
0.0954717
-0.122504
0.0620575
-0.0106942
0.029442
-0.0131447
0.0534862
-0.02932
0.0760694
-0.0621455
0.0953364
-0.122672
0.0622372
-0.010685
0.0294192