/*--------------------------------*- C++ -*----------------------------------*\
  =========                 |
  \\      /  F ield         | OpenFOAM: The Open Source CFD Toolbox
   \\    /   O peration     | Website:  https://openfoam.org
    \\  /    A nd           | Version:  10
     \\/     M anipulation  |
\*---------------------------------------------------------------------------*/
FoamFile
{
    format      ascii;
    class       surfaceScalarField;
    location    "15";
    object      phi;
}
// * * * * * * * * * * * * * * * * * * * * * * * * * * * * * * * * * * * * * //

dimensions      [0 3 -1 0 0 0 0];

internalField   nonuniform List<scalar> 
6840
(
-0.000839368
0.000538927
-0.000598159
-0.000783985
0.00050518
-0.000560563
-0.000716654
0.000613215
-0.000680546
-0.000658406
0.000532778
-0.000591025
-0.000580459
0.000710336
-0.000788283
-0.000528886
0.000473428
-0.000525
-0.0004255
0.00094147
-0.00104486
-0.000383001
0.000394203
-0.000436702
-0.000279579
0.000826858
-0.00093028
0.00253112
-0.0028107
-0.00083856
0.00047951
-0.000782962
0.000449582
-0.000715404
0.000545657
-0.000656881
0.000474255
-0.000578659
0.000632114
-0.000526786
0.000421554
-0.000423056
0.00083774
-0.000380175
0.000351323
-0.000279938
0.000726621
0.00225118
-0.000837838
0.000419929
-0.000782051
0.000393794
-0.000714287
0.000477894
-0.000655525
0.000415493
-0.000577054
0.000553642
-0.000524919
0.00036942
-0.000420877
0.000733698
-0.000377667
0.000308113
-0.000280302
0.000629256
0.00197088
-0.000837205
0.000360203
-0.000781252
0.000337841
-0.000713309
0.000409951
-0.000654337
0.000356521
-0.000575647
0.000474952
-0.000523285
0.000317057
-0.000418971
0.000629383
-0.000375476
0.000264618
-0.000280661
0.000534442
0.00169022
-0.000836661
0.000300354
-0.000780566
0.000281746
-0.00071247
0.000341856
-0.000653319
0.000297369
-0.000574442
0.000396075
-0.000521886
0.000264501
-0.000417339
0.000524836
-0.000373602
0.000220881
-0.000281006
0.000441846
0.00140921
-0.000836207
0.000240403
-0.000779995
0.000225534
-0.000711772
0.000273633
-0.000652472
0.000238069
-0.00057344
0.000317043
-0.000520723
0.000211784
-0.000415984
0.000420097
-0.000372046
0.000176943
-0.000281328
0.000351128
0.00112788
-0.000835844
0.00018037
-0.000779539
0.000169229
-0.000711215
0.00020531
-0.000651797
0.000178651
-0.000572642
0.000237888
-0.000519799
0.000158942
-0.000414906
0.000315204
-0.000370809
0.000132846
-0.000281622
0.000261941
0.000846263
-0.000835572
0.000120278
-0.000779199
0.000112855
-0.000710801
0.000136912
-0.000651296
0.000119146
-0.000572049
0.000158641
-0.000519114
0.000106007
-0.000414108
0.000210198
-0.000369892
8.86299e-05
-0.000281881
0.00017393
0.000564382
-0.000835393
6.01479e-05
-0.000778975
5.64379e-05
-0.00071053
6.8467e-05
-0.000650969
5.95855e-05
-0.000571663
7.93343e-05
-0.000518671
5.30145e-05
-0.00041359
0.000105117
-0.000369294
4.43339e-05
-0.000282102
8.67379e-05
0.00028228
-0.000835305
9.67475e-10
-0.000778869
1.20534e-09
-0.000710402
7.63929e-10
-0.000650818
7.54581e-10
-0.000571483
-2.50555e-11
-0.000518469
1.69763e-10
-0.000413352
2.26293e-10
-0.000369019
3.22381e-10
-0.00028228
-1.8336e-10
-4.09112e-10
-0.000818441
0.00110145
-0.00115595
-0.000768069
0.00102882
-0.00107919
-0.000706441
0.00125149
-0.00131312
-0.000654147
0.00108088
-0.00113318
-0.000583157
0.00144769
-0.00151868
-0.000537564
0.000956472
-0.00100206
-0.000443418
0.00191941
-0.00201355
-0.000408507
0.000781494
-0.000816406
-0.000262157
0.00202743
-0.00217378
0.00518314
-0.00544529
-0.000816998
0.00104664
-0.000766243
0.000978065
-0.000704205
0.00118945
-0.000651416
0.0010281
-0.000579911
0.00137619
-0.00053377
0.000910331
-0.000438931
0.00182457
-0.000403209
0.000745772
-0.000262215
0.00188644
0.00492092
-0.000815616
0.000991504
-0.0007645
0.00092695
-0.000702065
0.00112702
-0.000648811
0.000974841
-0.000576805
0.00130418
-0.000530153
0.000863678
-0.000434645
0.00172906
-0.000398169
0.000709296
-0.000262382
0.00175065
0.00465854
-0.000814298
0.000936076
-0.000762839
0.000875491
-0.000700026
0.00106421
-0.000646331
0.000921146
-0.000573848
0.0012317
-0.000526711
0.000816541
-0.00043057
0.00163292
-0.000393388
0.000672114
-0.000262644
0.00161991
0.00439589
-0.000813047
0.000880366
-0.000761263
0.000823707
-0.000698092
0.00100103
-0.000643978
0.000867032
-0.000571045
0.00115877
-0.000523448
0.000768943
-0.000426711
0.00153618
-0.000388868
0.000634272
-0.000262988
0.00149403
0.00413291
-0.000811864
0.00082439
-0.000759773
0.000771616
-0.000696265
0.000937526
-0.000641756
0.000812523
-0.000568399
0.00108541
-0.000520368
0.000720912
-0.000423072
0.00143889
-0.000384614
0.000595814
-0.000263402
0.00137281
0.0038695
-0.000810751
0.000768164
-0.000758372
0.000719237
-0.000694547
0.000873701
-0.000639667
0.000757643
-0.000565913
0.00101166
-0.000517476
0.000672474
-0.000419658
0.00134107
-0.000380629
0.000556784
-0.000263877
0.00125606
0.00360563
-0.00080971
0.000711706
-0.000757062
0.000666589
-0.000692942
0.000809581
-0.000637716
0.000702417
-0.000563591
0.000937532
-0.000514775
0.000623659
-0.000416472
0.00124276
-0.000376915
0.000517228
-0.000264402
0.00114355
0.00334123
-0.000808741
0.000655031
-0.000755844
0.000613692
-0.00069145
0.000745188
-0.000635904
0.000646871
-0.000561435
0.000863063
-0.000512269
0.000574493
-0.000413518
0.00114401
-0.000373477
0.000477187
-0.000264966
0.00103504
0.00307626
-0.000807847
-0.000754718
-0.000690077
-0.000634231
-0.000559451
-0.000509959
-0.000410802
-0.000370317
-0.000265559
-0.000768742
0.00159574
-0.00164289
-0.000725975
0.00148224
-0.00152501
-0.000673237
0.00180817
-0.0018609
-0.000629909
0.00154723
-0.00159056
-0.00056997
0.00208523
-0.00214517
-0.000533325
0.00135926
-0.00139591
-0.000454543
0.00276178
-0.00284056
-0.000430941
0.00107097
-0.00109457
-0.000238028
0.00366163
-0.00385454
0.00756841
-0.00780644
-0.000767113
0.00154823
-0.000723911
0.00143904
-0.000670696
0.00175495
-0.000626789
0.00150332
-0.000566215
0.00202466
-0.000528911
0.00132196
-0.0004492
0.00268206
-0.000424588
0.00104635
-0.000237271
0.00347431
0.00733114
-0.000765515
0.00150036
-0.000721895
0.00139542
-0.000668204
0.00170126
-0.000623741
0.00145886
-0.000562534
0.00196345
-0.000524599
0.00128402
-0.000443968
0.00260143
-0.000418383
0.00102077
-0.000236656
0.00329258
0.00709448
-0.000763953
0.00145214
-0.000719922
0.00135139
-0.000665767
0.0016471
-0.000620761
0.00141386
-0.000558937
0.00190163
-0.000520385
0.00124547
-0.000438861
0.00251991
-0.000412324
0.000994232
-0.000236165
0.00311643
0.00685832
-0.000762426
0.00140357
-0.000717997
0.00130696
-0.000663389
0.0015925
-0.000617853
0.00136832
-0.000555428
0.0018392
-0.000516274
0.00120632
-0.000433882
0.00243752
-0.000406417
0.000966767
-0.000235791
0.0029458
0.00662253
-0.000760938
0.00135468
-0.00071612
0.00126214
-0.000661072
0.00153745
-0.000615019
0.00132227
-0.00055201
0.0017762
-0.000512269
0.00116657
-0.000429038
0.00235429
-0.000400668
0.000938396
-0.000235531
0.00278066
0.006387
-0.00075949
0.00130545
-0.000714293
0.00121694
-0.000658818
0.00148197
-0.000612263
0.00127571
-0.000548687
0.00171262
-0.000508375
0.00112626
-0.000424334
0.00227025
-0.000395085
0.000909147
-0.000235383
0.00262096
0.00615161
-0.000758084
0.00125592
-0.00071252
0.00117138
-0.00065663
0.00142608
-0.000609588
0.00122867
-0.000545463
0.0016485
-0.000504597
0.0010854
-0.000419773
0.00218542
-0.000389673
0.000879047
-0.000235341
0.00246663
0.00591627
-0.00075672
0.00120608
-0.000710801
0.00112546
-0.00065451
0.00136979
-0.000606996
0.00118115
-0.000542342
0.00158384
-0.000500939
0.00104399
-0.000415361
0.00209984
-0.000384439
0.000848125
-0.000235405
0.0023176
0.00568087
-0.000755403
-0.000709136
-0.000652465
-0.000604488
-0.000539331
-0.000497402
-0.000411109
-0.00037939
-0.000235574
-0.000687156
0.0020042
-0.00204275
-0.000652838
0.00184912
-0.00188343
-0.000610653
0.00226164
-0.00230382
-0.000577074
0.00191348
-0.00194706
-0.00053057
0.00259444
-0.00264095
-0.000503336
0.00166435
-0.00169158
-0.000443962
0.00342358
-0.00348296
-0.000429361
0.00125301
-0.00126761
-0.000207301
0.0056494
-0.00587146
0.00962642
-0.00983372
-0.000685684
0.00196528
-0.000651124
0.00181456
-0.000608315
0.00221883
-0.000574462
0.00187963
-0.000526994
0.00254697
-0.000499584
0.00163694
-0.000438631
0.00336263
-0.000424182
0.00123856
-0.000205642
0.00543086
0.00942078
-0.000684279
0.00192605
-0.000649348
0.00177962
-0.000606099
0.00217558
-0.000571728
0.00184526
-0.000523631
0.00249888
-0.000495608
0.00160891
-0.000433669
0.00330069
-0.000418483
0.00122338
-0.00020463
0.00521701
0.00921615
-0.000682887
0.0018865
-0.000647587
0.00174432
-0.000603902
0.0021319
-0.000569018
0.00181037
-0.000520298
0.00245016
-0.000491663
0.00158028
-0.00042875
0.00323778
-0.000412786
0.00120741
-0.000203701
0.00500792
0.00901244
-0.000681509
0.00184665
-0.000645844
0.00170866
-0.000601727
0.00208778
-0.000566334
0.00177498
-0.000516998
0.00240082
-0.000487756
0.00155104
-0.000423879
0.0031739
-0.000407124
0.00119066
-0.000202819
0.00480362
0.00880963
-0.000680146
0.00180649
-0.00064412
0.00167263
-0.000599576
0.00204323
-0.000563678
0.00173908
-0.000513733
0.00235087
-0.00048389
0.00152119
-0.000419062
0.00310907
-0.000401503
0.0011731
-0.000201997
0.00460411
0.00860763
-0.000678798
0.00176603
-0.000642415
0.00163625
-0.000597449
0.00199827
-0.000561053
0.00170269
-0.000510506
0.00230033
-0.000480066
0.00149075
-0.000414302
0.00304331
-0.000395925
0.00115472
-0.000201243
0.00440943
0.00840639
-0.000677467
0.00172527
-0.000640732
0.00159952
-0.00059535
0.00195289
-0.000558461
0.0016658
-0.000507321
0.00224919
-0.000476289
0.00145972
-0.000409604
0.00297662
-0.000390396
0.00113551
-0.000200559
0.00421959
0.00820583
-0.000676154
0.00168423
-0.000639072
0.00156243
-0.000593279
0.00190709
-0.000555904
0.00162842
-0.000504179
0.00219746
-0.000472563
0.00142811
-0.000404971
0.00290903
-0.000384924
0.00111547
-0.000199952
0.00403462
0.00800587
-0.000674862
-0.000637433
-0.000591243
-0.000553379
-0.000501089
-0.000468887
-0.000400416
-0.000379518
-0.000199437
-9.7614e-05
0.0182003
-0.0181265
-0.000169187
0.0184703
-0.0183987
-0.000241666
0.0185979
-0.0185254
-0.000310037
0.0189398
-0.0188714
-0.000378455
0.0191044
-0.019036
-0.000436737
0.0196133
-0.019555
-0.000492588
0.0198201
-0.0197643
-0.000504861
0.0206702
-0.0206579
-0.000423093
0.0199665
-0.0200483
0.0137049
-0.014128
-9.72207e-05
0.0182741
-0.000168651
0.0185417
-0.000240913
0.0186701
-0.000308819
0.0190077
-0.000376512
0.0191721
-0.000433456
0.0196703
-0.00048669
0.0198733
-0.000494513
0.020678
-0.000406764
0.0198787
0.0132982
-9.6824e-05
0.0183479
-0.000168131
0.018613
-0.000240156
0.0187422
-0.000307629
0.0190751
-0.000374566
0.019239
-0.000430222
0.0197259
-0.000480794
0.0199239
-0.000484218
0.0206814
-0.000389754
0.0197843
0.0129084
-9.64318e-05
0.0184216
-0.000167616
0.0186842
-0.0002394
0.018814
-0.000306437
0.0191422
-0.000372608
0.0193052
-0.000426951
0.0197803
-0.000474824
0.0199718
-0.000473865
0.0206804
-0.00037311
0.0196835
0.0125353
-9.60455e-05
0.0184953
-0.000167105
0.0187553
-0.000238647
0.0188855
-0.000305242
0.0192088
-0.00037063
0.0193706
-0.000423619
0.0198333
-0.000468729
0.0200169
-0.000463368
0.0206751
-0.000356919
0.0195771
0.0121784
-9.5668e-05
0.0185689
-0.000166603
0.0188262
-0.000237901
0.0189568
-0.000304048
0.0192749
-0.000368641
0.0194352
-0.000420238
0.0198848
-0.000462525
0.0200592
-0.00045274
0.0206653
-0.000341054
0.0194654
0.0118373
-9.53074e-05
0.0186425
-0.000166119
0.018897
-0.000237171
0.0190279
-0.00030287
0.0193406
-0.000366657
0.0194989
-0.000416833
0.019935
-0.000456251
0.0200986
-0.000442036
0.0206511
-0.000325548
0.0193489
0.0115118
-9.49833e-05
0.018716
-0.000165675
0.0189677
-0.000236485
0.0190987
-0.000301742
0.0194059
-0.000364727
0.0195619
-0.000413469
0.0199838
-0.000449991
0.0201351
-0.000431361
0.0206325
-0.000310502
0.019228
0.0112013
-9.47457e-05
0.0187896
-0.000165329
0.0190383
-0.000235916
0.0191692
-0.000300763
0.0194707
-0.000362984
0.0196241
-0.000410345
0.0200311
-0.000444034
0.0201688
-0.000421102
0.0206095
-0.000296333
0.0191033
0.0109049
-9.46698e-05
0.018863
-0.000165313
0.0191089
-0.00023559
0.0192395
-0.000300362
0.0195355
-0.000361753
0.0196855
-0.000408439
0.0200778
-0.000439471
0.0201998
-0.000413547
0.0205836
-0.000285031
0.0189748
0.0106199
-8.82384e-05
0.0176241
-0.0175681
-0.000142417
0.0179183
-0.0178641
-0.000197597
0.0180399
-0.0179847
-0.000249792
0.0184233
-0.0183711
-0.000302892
0.0185904
-0.0185373
-0.000348876
0.0191974
-0.0191514
-0.000399444
0.0194104
-0.0193598
-0.000420141
0.0206492
-0.0206285
-0.000390919
0.0205495
-0.0205787
0.0169759
-0.0173668
-8.76804e-05
0.0176801
-0.000141685
0.0179723
-0.000196639
0.0180948
-0.000248334
0.018475
-0.000300764
0.0186428
-0.000345487
0.0192421
-0.000393949
0.0194588
-0.000410497
0.0206657
-0.000375816
0.0205148
0.0166001
-8.71183e-05
0.017736
-0.000140968
0.0180261
-0.000195675
0.0181496
-0.000246901
0.0185262
-0.000298626
0.0186945
-0.000342144
0.0192856
-0.000388434
0.0195051
-0.000400996
0.0206783
-0.000360234
0.020474
0.0162399
-8.65603e-05
0.017792
-0.000140255
0.0180798
-0.000194713
0.018204
-0.000245469
0.018577
-0.00029648
0.0187455
-0.000338783
0.0193279
-0.000382862
0.0195492
-0.000391521
0.020687
-0.000344978
0.0204275
0.0158949
-8.6006e-05
0.0178478
-0.000139545
0.0181333
-0.000193753
0.0182582
-0.000244034
0.0186272
-0.000294318
0.0187958
-0.000335383
0.019369
-0.000377193
0.019591
-0.000381977
0.0206917
-0.000330125
0.0203756
0.0155648
-8.54561e-05
0.0179036
-0.00013884
0.0181867
-0.000192794
0.0183122
-0.000242597
0.018677
-0.000292142
0.0188454
-0.000331947
0.0194088
-0.000371433
0.0196305
-0.00037235
0.0206927
-0.000315543
0.0203188
0.0152492
-8.49105e-05
0.0179594
-0.000138139
0.01824
-0.000191837
0.0183659
-0.000241158
0.0187264
-0.000289954
0.0188942
-0.000328479
0.0194473
-0.000365592
0.0196676
-0.000362648
0.0206897
-0.000301176
0.0202574
0.014948
-8.43694e-05
0.0180152
-0.000137443
0.018293
-0.000190883
0.0184193
-0.00023972
0.0187752
-0.000287755
0.0189422
-0.000324982
0.0194846
-0.000359675
0.0197023
-0.000352878
0.0206829
-0.000287065
0.0201916
0.014661
-8.38332e-05
0.0180709
-0.000136753
0.018346
-0.000189931
0.0184725
-0.00023828
0.0188235
-0.000285544
0.0189895
-0.000321453
0.0195205
-0.000353683
0.0197345
-0.000343062
0.0206723
-0.000273318
0.0201218
0.0143877
-8.33052e-05
-0.000136063
-0.000188984
-0.000236832
-0.000283317
-0.000317886
-0.000347605
-0.000333193
-0.000259642
-7.75783e-05
0.0172441
-0.0172079
-0.000112747
0.0175561
-0.0175209
-0.000148776
0.0176719
-0.0176359
-0.000183418
0.0180821
-0.0180475
-0.000218903
0.0182474
-0.0182119
-0.000251521
0.0189143
-0.0188817
-0.000290218
0.0190896
-0.019051
-0.000316584
0.0205677
-0.0205413
-0.000322342
0.0207405
-0.0207348
0.0196398
-0.0199622
-7.68844e-05
0.0172803
-0.000111853
0.0175911
-0.00014764
0.0177077
-0.000181766
0.0181162
-0.000216632
0.0182822
-0.000247984
0.0189457
-0.000285069
0.0191267
-0.00030725
0.0205899
-0.000308028
0.0207413
0.0193318
-7.61877e-05
0.0173165
-0.000110968
0.0176259
-0.0001465
0.0177432
-0.000180127
0.0181499
-0.000214351
0.0183164
-0.000244468
0.0189758
-0.000279889
0.0191622
-0.000298052
0.020608
-0.000293556
0.0207368
0.0190383
-7.54927e-05
0.0173526
-0.000110085
0.0176604
-0.000145362
0.0177785
-0.000178487
0.018183
-0.000212063
0.01835
-0.000240939
0.0190047
-0.000274657
0.0191959
-0.000288923
0.0206223
-0.000279371
0.0207273
0.0187589
-7.47999e-05
0.0173886
-0.000109204
0.0176949
-0.000144224
0.0178135
-0.000176845
0.0182156
-0.000209761
0.0183829
-0.000237388
0.0190323
-0.000269351
0.0192278
-0.000279788
0.0206327
-0.000265503
0.020713
0.0184934
-7.41095e-05
0.0174246
-0.000108327
0.0177291
-0.000143088
0.0178483
-0.000175202
0.0182477
-0.000207448
0.0184152
-0.000233816
0.0190586
-0.000263978
0.019258
-0.000270625
0.0206394
-0.000251866
0.0206942
0.0182415
-7.34222e-05
0.0174605
-0.000107453
0.0177631
-0.000141954
0.0178828
-0.00017356
0.0182793
-0.000205126
0.0184467
-0.000230228
0.0190837
-0.000258546
0.0192863
-0.000261429
0.0206423
-0.000238407
0.0206712
0.0180031
-7.27379e-05
0.0174964
-0.000106584
0.0177969
-0.000140822
0.017917
-0.000171919
0.0183104
-0.000202797
0.0184776
-0.000226627
0.0191076
-0.000253063
0.0193128
-0.000252198
0.0206414
-0.000225124
0.0206441
0.017778
-7.2057e-05
0.0175323
-0.000105719
0.0178306
-0.000139694
0.017951
-0.000170279
0.018341
-0.00020046
0.0185078
-0.000223014
0.0191301
-0.000247528
0.0193373
-0.000242932
0.0206368
-0.000212055
0.0206132
0.0175659
-7.13827e-05
-0.000104856
-0.000138571
-0.000168637
-0.000198116
-0.000219388
-0.000241931
-0.000233623
-0.000199095
-6.53045e-05
0.0170728
-0.0170575
-8.05063e-05
0.0173939
-0.0173787
-9.63148e-05
0.0175057
-0.0174899
-0.000112385
0.0179259
-0.0179099
-0.000128721
0.0180922
-0.0180759
-0.000147541
0.0187697
-0.0187509
-0.00016937
0.0189154
-0.0188935
-0.000201739
0.0204346
-0.0204023
-0.000227956
0.0206917
-0.0206655
0.0214112
-0.0216392
-6.45436e-05
0.0170881
-7.95254e-05
0.0174089
-9.50654e-05
0.0175212
-0.000110632
0.0179415
-0.00012637
0.018108
-0.000143944
0.0187873
-0.000164499
0.0189359
-0.000192576
0.0204627
-0.000214212
0.0207134
0.021197
-6.37813e-05
0.0171033
-7.85433e-05
0.0174237
-9.38156e-05
0.0175365
-0.000108873
0.0179566
-0.000124013
0.0181231
-0.000140328
0.0188036
-0.000159584
0.0189552
-0.000183466
0.0204866
-0.000200615
0.0207305
0.0209964
-6.30172e-05
0.0171185
-7.75601e-05
0.0174382
-9.2565e-05
0.0175515
-0.000107111
0.0179711
-0.000121647
0.0181376
-0.000136689
0.0188187
-0.000154615
0.0189731
-0.00017441
0.0205064
-0.0001872
0.0207433
0.0208092
-6.22523e-05
0.0171335
-7.65769e-05
0.0174525
-9.13137e-05
0.0175662
-0.000105344
0.0179851
-0.00011927
0.0181516
-0.000133028
0.0188324
-0.000149589
0.0189897
-0.000165364
0.0205222
-0.000173925
0.0207519
0.0206353
-6.14865e-05
0.0171485
-7.55939e-05
0.0174667
-9.00623e-05
0.0175807
-0.000103574
0.0179987
-0.000116885
0.0181649
-0.000129348
0.0188449
-0.000144512
0.0190048
-0.000156302
0.020534
-0.000160748
0.0207563
0.0204745
-6.07203e-05
0.0171635
-7.46118e-05
0.0174805
-8.88118e-05
0.0175949
-0.000101802
0.0180116
-0.000114493
0.0181776
-0.000125656
0.018856
-0.000139392
0.0190186
-0.000147212
0.0205418
-0.000147637
0.0207567
0.0203269
-5.99545e-05
0.0171783
-7.36313e-05
0.0174942
-8.75627e-05
0.0176088
-0.000100031
0.0180241
-0.000112097
0.0181896
-0.000121953
0.0188659
-0.000134237
0.0190308
-0.000138085
0.0205456
-0.000134573
0.0207532
0.0201923
-5.91889e-05
0.0171931
-7.26528e-05
0.0175077
-8.63161e-05
0.0176225
-9.82602e-05
0.0180361
-0.000109697
0.0182011
-0.000118244
0.0188745
-0.00012905
0.0190417
-0.000128908
0.0205455
-0.000121554
0.0207459
0.0200707
-5.84263e-05
-7.16766e-05
-8.50745e-05
-9.64907e-05
-0.000107295
-0.000114533
-0.000123829
-0.000119666
-0.000108563
-5.08006e-05
0.0171136
-0.0171194
-4.57568e-05
0.0174351
-0.0174401
-4.10827e-05
0.0175446
-0.0175493
-3.78373e-05
0.0179615
-0.0179648
-3.46791e-05
0.0181306
-0.0181338
-3.85013e-05
0.0187727
-0.0187688
-4.19761e-05
0.0189109
-0.0189075
-7.98627e-05
0.0202571
-0.0202192
-0.000116129
0.0204978
-0.0204615
0.022119
-0.0222351
-5.00605e-05
0.0171078
-4.47781e-05
0.0174298
-3.98106e-05
0.0175397
-3.60925e-05
0.0179578
-3.23326e-05
0.0181269
-3.50168e-05
0.0187753
-3.73629e-05
0.0189133
-7.10455e-05
0.0202908
-0.000103359
0.0205301
0.0220156
-4.93192e-05
0.0171018
-4.37898e-05
0.0174242
-3.85401e-05
0.0175344
-3.43284e-05
0.0179536
-2.99816e-05
0.0181225
-3.14686e-05
0.0187768
-3.26976e-05
0.0189145
-6.21435e-05
0.0203202
-9.09593e-05
0.0205589
0.0219246
-4.85733e-05
0.0170958
-4.2798e-05
0.0174185
-3.72662e-05
0.0175289
-3.25544e-05
0.0179489
-2.76217e-05
0.0181176
-2.78777e-05
0.0187771
-2.7985e-05
0.0189146
-5.32127e-05
0.0203454
-7.85413e-05
0.0205842
0.0218461
-4.78229e-05
0.0170896
-4.18031e-05
0.0174124
-3.59904e-05
0.0175231
-3.07737e-05
0.0179437
-2.5257e-05
0.0181121
-2.42512e-05
0.0187761
-2.32423e-05
0.0189136
-4.42278e-05
0.0203664
-6.60222e-05
0.020606
0.0217801
-4.70687e-05
0.0170834
-4.08056e-05
0.0174062
-3.47133e-05
0.017517
-2.8987e-05
0.017938
-2.28897e-05
0.018106
-2.05913e-05
0.0187738
-1.84824e-05
0.0189115
-3.51521e-05
0.0203831
-5.34236e-05
0.0206243
0.0217267
-4.6311e-05
0.017077
-3.98061e-05
0.0173997
-3.34356e-05
0.0175106
-2.71953e-05
0.0179317
-2.05217e-05
0.0180993
-1.6898e-05
0.0187702
-1.37213e-05
0.0189083
-2.59445e-05
0.0203953
-4.07655e-05
0.0206391
0.0216859
-4.55499e-05
0.0170706
-3.8805e-05
0.0173929
-3.21581e-05
0.017504
-2.54e-05
0.017925
-1.81551e-05
0.0180921
-1.31694e-05
0.0187652
-8.98552e-06
0.0189041
-1.65387e-05
0.0204029
-2.807e-05
0.0206506
0.0216578
-4.47864e-05
0.0170641
-3.78035e-05
0.017386
-3.08815e-05
0.017497
-2.36026e-05
0.0179177
-1.57932e-05
0.0180842
-9.40144e-06
0.0187588
-4.33584e-06
0.0188991
-6.74332e-06
0.0204053
-1.54135e-05
0.0206593
0.0216424
-4.40209e-05
-3.68036e-05
-2.96088e-05
-2.18071e-05
-1.34415e-05
-5.58048e-06
-4.86634e-08
2.96643e-06
-3.24269e-06
-3.35473e-05
0.0173617
-0.017388
-8.59685e-06
0.0176769
-0.0177019
1.60972e-05
0.0177844
-0.0178091
3.88886e-05
0.0181896
-0.0182124
6.10956e-05
0.0183629
-0.0183851
7.40277e-05
0.0189267
-0.0189397
8.7288e-05
0.0190913
-0.0191045
4.78196e-05
0.0200164
-0.0199769
8.8021e-06
0.0202791
-0.0202401
0.021625
-0.0216162
-3.29018e-05
0.0173352
-7.69332e-06
0.0176517
1.73075e-05
0.0177594
4.05085e-05
0.0181664
6.33804e-05
0.01834
7.71243e-05
0.018913
9.17878e-05
0.0190766
5.55002e-05
0.0200527
2.01912e-05
0.0203145
0.0216452
-3.2256e-05
0.0173086
-6.77675e-06
0.0176262
1.85179e-05
0.0177341
4.21558e-05
0.0181428
6.56762e-05
0.0183165
8.03054e-05
0.0188984
9.6383e-05
0.0190605
6.33738e-05
0.0200857
3.1205e-05
0.0203466
0.0216764
-3.16037e-05
0.0172819
-5.85377e-06
0.0176005
1.97326e-05
0.0177085
4.3813e-05
0.0181187
6.79848e-05
0.0182924
8.3533e-05
0.0188828
0.000101049
0.019043
7.13537e-05
0.0201154
4.25263e-05
0.0203754
0.0217189
-3.09456e-05
0.0172551
-4.92411e-06
0.0175745
2.09501e-05
0.0176827
4.54762e-05
0.0180942
7.02979e-05
0.0182675
8.67917e-05
0.0188663
0.000105755
0.019024
7.94351e-05
0.0201417
5.42875e-05
0.0204006
0.0217732
-3.02814e-05
0.0172282
-3.98766e-06
0.0175482
2.21697e-05
0.0176565
4.71445e-05
0.0180692
7.26136e-05
0.0182421
9.00782e-05
0.0188489
0.000110493
0.0190036
8.76335e-05
0.0201646
6.64389e-05
0.0204218
0.0218396
-2.96119e-05
0.0172012
-3.04264e-06
0.0175216
2.33911e-05
0.0176301
4.88176e-05
0.0180438
7.49315e-05
0.018216
9.33909e-05
0.0188304
0.000115262
0.0189817
9.59604e-05
0.0201839
7.89691e-05
0.0204388
0.0219186
-2.89373e-05
0.017174
-2.08693e-06
0.0174948
2.46136e-05
0.0176034
5.04943e-05
0.0180179
7.72495e-05
0.0181892
9.67263e-05
0.0188109
0.000120053
0.0189584
0.000104422
0.0201995
9.19198e-05
0.0204513
0.0220105
-2.82583e-05
0.0171467
-1.11283e-06
0.0174676
2.58354e-05
0.0175764
5.21726e-05
0.0179916
7.95639e-05
0.0181618
0.000100079
0.0187904
0.000124853
0.0189336
0.000113021
0.0202113
0.000105348
0.020459
0.0221159
-2.75747e-05
-5.63036e-08
2.70544e-05
5.38467e-05
8.18685e-05
0.000103439
0.000129631
0.000121753
0.000119218
-1.34727e-05
0.0178052
-0.0178509
3.03269e-05
0.0181078
-0.0181516
7.42403e-05
0.0182177
-0.0182616
0.000116171
0.0186076
-0.0186495
0.000156335
0.0187757
-0.0188158
0.000188149
0.0192568
-0.0192886
0.000213419
0.0194056
-0.0194309
0.00018357
0.019806
-0.0197762
0.000140497
0.0200181
-0.019975
0.0198885
-0.019748
-1.29632e-05
0.0177594
3.10885e-05
0.0180637
7.53123e-05
0.0181735
0.000117611
0.0185653
0.000158424
0.0187349
0.000190829
0.0192244
0.000217638
0.0193788
0.00018957
0.0198341
0.000150191
0.0200575
0.0200387
-1.24532e-05
0.0177134
3.1865e-05
0.0180194
7.6385e-05
0.018129
0.000119084
0.0185226
0.000160536
0.0186934
0.000193598
0.0191913
0.000222009
0.0193504
0.000195846
0.0198603
0.000159055
0.0200943
0.0201977
-1.1937e-05
0.0176673
3.26458e-05
0.0179748
7.74622e-05
0.0180842
0.000120564
0.0184795
0.000162663
0.0186513
0.000196409
0.0191576
0.000226467
0.0193203
0.00020234
0.0198844
0.000168543
0.0201281
0.0203663
-1.14151e-05
0.017621
3.343e-05
0.01793
7.85414e-05
0.018039
0.000122047
0.018436
0.000164792
0.0186086
0.000199244
0.0191231
0.00023097
0.0192886
0.000209042
0.0199063
0.000178875
0.0201582
0.0205452
-1.08879e-05
0.0175747
3.42174e-05
0.0178849
7.96225e-05
0.0179936
0.000123531
0.0183921
0.000166924
0.0185652
0.0002021
0.019088
0.000235512
0.0192552
0.000215954
0.0199259
0.000189849
0.0201843
0.020735
-1.03552e-05
0.0175282
3.5008e-05
0.0178395
8.07051e-05
0.0179479
0.000125017
0.0183478
0.000169059
0.0185211
0.000204977
0.019052
0.000240092
0.0192201
0.000223071
0.0199429
0.000201393
0.020206
0.0209364
-9.81762e-06
0.0174816
3.58009e-05
0.0177939
8.17888e-05
0.017902
0.000126505
0.0183031
0.000171194
0.0184764
0.000207872
0.0190154
0.0002447
0.0191833
0.000230391
0.0199572
0.000213558
0.0202228
0.02115
-9.27545e-06
0.0174348
3.65954e-05
0.017748
8.28716e-05
0.0178557
0.000127991
0.0182579
0.000173325
0.0184311
0.00021078
0.0189779
0.000249316
0.0191447
0.000237903
0.0199686
0.000226393
0.0202344
0.0213764
-8.72908e-06
3.73866e-05
8.39517e-05
0.000129469
0.000175445
0.000213693
0.000253903
0.000245593
0.00023983
9.00448e-06
0.0184271
-0.0184908
6.97366e-05
0.0187136
-0.0187743
0.00013169
0.0188293
-0.0188913
0.000190693
0.0192059
-0.0192649
0.000248319
0.0193569
-0.0194145
0.000297478
0.0197705
-0.0198197
0.000332833
0.0198164
-0.0198518
0.000324078
0.0197384
-0.0197296
0.000256882
0.0195963
-0.0195291
0.0169724
-0.0167155
9.31528e-06
0.0183636
7.07811e-05
0.0186521
0.000132788
0.0187673
0.000193153
0.0191456
0.000251016
0.019299
0.000302199
0.0197193
0.000338868
0.0197798
0.000329893
0.0197474
0.000267439
0.0196587
0.0172399
9.69172e-06
0.0183
7.14155e-05
0.0185904
0.000133705
0.018705
0.000194447
0.0190848
0.000252879
0.0192406
0.00030464
0.0196676
0.000342661
0.0197417
0.00033459
0.0197554
0.000276225
0.0197171
0.0175161
1.00643e-05
0.0182362
7.2032e-05
0.0185284
0.00013458
0.0186425
0.000195673
0.0190237
0.000254637
0.0191816
0.000306947
0.0196153
0.000346444
0.0197023
0.000339444
0.0197624
0.000286005
0.0197705
0.0178021
1.04418e-05
0.0181723
7.26537e-05
0.0184662
0.000135464
0.0185796
0.000196918
0.0189623
0.00025644
0.0191221
0.000309335
0.0195624
0.000350392
0.0196612
0.000344467
0.0197683
0.000295967
0.019819
0.0180981
1.08247e-05
0.0181083
7.32809e-05
0.0184038
0.000136358
0.0185166
0.000198179
0.0189004
0.000258275
0.019062
0.00031178
0.0195089
0.00035445
0.0196185
0.000349727
0.0197731
0.00030638
0.0198624
0.0184044
1.12118e-05
0.0180441
7.39102e-05
0.0183411
0.000137252
0.0184532
0.000199439
0.0188383
0.000260114
0.0190013
0.000314235
0.0194547
0.000358567
0.0195742
0.000355241
0.0197764
0.000317483
0.0199001
0.0187219
1.16023e-05
0.0179798
7.45402e-05
0.0182781
0.000138146
0.0183896
0.000200694
0.0187757
0.000261948
0.0189401
0.000316691
0.0194
0.000362726
0.0195282
0.000360985
0.0197781
0.000329311
0.0199318
0.0190512
1.19956e-05
0.0179154
7.51694e-05
0.018215
0.000139035
0.0183258
0.000201943
0.0187128
0.000263777
0.0188783
0.000319148
0.0193446
0.000366914
0.0194804
0.000366932
0.0197781
0.000341833
0.0199569
0.0193931
1.23921e-05
7.57934e-05
0.000139921
0.000203181
0.000265599
0.000321599
0.0003711
0.000373049
0.000354936
0.000756662
4.72786e-06
-3.70673e-06
0.000757198
2.68968e-05
-2.74335e-05
0.000755867
-4.46266e-06
5.79375e-06
0.000754964
8.80002e-05
-8.70971e-05
0.000747897
0.000139567
-0.0001325
0.000736655
0.000535911
-0.000524669
0.000717441
0.0003435
-0.000324286
0.000654103
0.00260636
-0.00254302
0.000521103
0.00300663
-0.00287363
0.0217891
-0.021268
0.000756599
5.81131e-06
0.000757231
2.6265e-05
0.00075579
-3.0216e-06
0.000755016
8.87745e-05
0.000747712
0.000146871
0.000736765
0.000546858
0.000716966
0.0003633
0.000654619
0.00266871
0.000520684
0.00314056
0.0223097
0.000756538
6.95629e-06
0.000757264
2.5539e-05
0.000755715
-1.47261e-06
0.000755068
8.94216e-05
0.00074753
0.000154409
0.000736882
0.000557506
0.000716506
0.000383676
0.00065519
0.00273003
0.000520497
0.00327526
0.0228302
0.000756476
8.16256e-06
0.000757298
2.47179e-05
0.00075564
1.85016e-07
0.000755122
8.99396e-05
0.00074735
0.000162181
0.000737009
0.000567847
0.000716053
0.000404631
0.000655843
0.00279024
0.000520461
0.00341064
0.0233507
0.000756416
9.42974e-06
0.000757332
2.3801e-05
0.000755566
1.95178e-06
0.000755179
9.03267e-05
0.00074717
0.000170189
0.000737145
0.000577872
0.000715608
0.000426168
0.000656584
0.00284926
0.000520529
0.00354669
0.0238712
0.000756355
1.07573e-05
0.000757368
2.27878e-05
0.000755492
3.82786e-06
0.000755238
9.05813e-05
0.000746992
0.000178435
0.000737292
0.000587573
0.000715174
0.000448286
0.000657422
0.00290701
0.000520707
0.00368341
0.0243919
0.000756296
1.21444e-05
0.000757406
2.16779e-05
0.00075542
5.81322e-06
0.000755299
9.07021e-05
0.000746817
0.000186917
0.00073745
0.000596941
0.000714752
0.000470983
0.000658358
0.00296341
0.000520996
0.00382077
0.0249129
0.000756237
1.35901e-05
0.000757444
2.04711e-05
0.000755349
7.90764e-06
0.000755364
9.0688e-05
0.000746645
0.000195635
0.000737617
0.000605968
0.000714338
0.000494262
0.000659386
0.00301836
0.000521375
0.00395878
0.0254343
0.000756179
1.50935e-05
0.000757483
1.91673e-05
0.00075528
1.01107e-05
0.00075543
9.05378e-05
0.000746476
0.000204589
0.000737798
0.000614647
0.000713944
0.000518116
0.000660573
0.00307173
0.000521892
0.00409746
0.0259562
0.000756141
1.66355e-05
0.000757493
1.7815e-05
0.000755261
1.23426e-05
0.00075544
9.03587e-05
0.00074642
0.000213609
0.000737889
0.000623179
0.000713931
0.000542074
0.000661964
0.0031237
0.000523817
0.00423561
0.02648
0.000864031
-3.22113e-06
3.62428e-06
0.000863558
2.78333e-05
-2.73608e-05
0.000863304
-1.32753e-05
1.35299e-05
0.000861
7.23068e-05
-7.00029e-05
0.000855889
7.62573e-05
-7.11465e-05
0.000840366
0.000397878
-0.000382355
0.000827167
0.000182482
-0.000169283
0.000749298
0.00188663
-0.00180876
0.000641052
0.00187408
-0.00176584
0.0154976
-0.0148566
0.000863961
-2.74826e-06
0.000863586
2.82085e-05
0.000863222
-1.29115e-05
0.000861041
7.44876e-05
0.000855716
8.15826e-05
0.000840454
0.000413139
0.000826761
0.000196176
0.000749752
0.00196364