/*--------------------------------*- C++ -*----------------------------------*\
  =========                 |
  \\      /  F ield         | OpenFOAM: The Open Source CFD Toolbox
   \\    /   O peration     | Website:  https://openfoam.org
    \\  /    A nd           | Version:  10
     \\/     M anipulation  |
\*---------------------------------------------------------------------------*/
FoamFile
{
    format      ascii;
    class       volVectorField;
    location    "15";
    object      U;
}
// * * * * * * * * * * * * * * * * * * * * * * * * * * * * * * * * * * * * * //

dimensions      [0 1 -1 0 0 0 0];

internalField   nonuniform List<vector> 
3600
(
(0.921227 -0.00493947 -1.60909e-19)
(0.799555 -0.0046315 9.47879e-20)
(0.808472 -0.00561853 2.52782e-19)
(0.660686 -0.00488573 -2.26486e-18)
(0.690408 -0.00650674 1.84796e-18)
(0.499374 -0.00434464 -2.92838e-18)
(0.586891 -0.00862377 -5.48699e-18)
(0.285002 -0.00362356 6.64986e-18)
(0.502732 -0.00762691 7.87773e-18)
(0.0720593 -0.0231731 -2.42794e-18)
(0.920588 -0.00442456 -3.11243e-19)
(0.798525 -0.00414943 1.60831e-19)
(0.807385 -0.00503361 1.47079e-19)
(0.659173 -0.00437819 -2.12693e-18)
(0.688754 -0.00583012 2.09264e-18)
(0.497276 -0.0038943 -3.4232e-18)
(0.584612 -0.00772699 -4.91156e-18)
(0.282175 -0.00325042 5.73209e-18)
(0.499672 -0.00674503 7.15481e-18)
(0.0755616 -0.0207573 -1.73175e-18)
(0.920016 -0.00390772 -3.22122e-19)
(0.797606 -0.00366584 2.72737e-19)
(0.806415 -0.00444565 -1.23858e-19)
(0.657822 -0.00386914 -2.96107e-18)
(0.687278 -0.00514898 2.42595e-18)
(0.495404 -0.00344329 -2.9272e-18)
(0.582577 -0.0068235 -4.56265e-18)
(0.279655 -0.00287776 6.48214e-18)
(0.496953 -0.00588802 8.29704e-18)
(0.0787353 -0.018316 -2.27981e-19)
(0.919515 -0.00338952 -3.41083e-19)
(0.796799 -0.00318057 3.80897e-19)
(0.805563 -0.00385612 -2.15279e-19)
(0.656635 -0.00335789 -2.18101e-18)
(0.685981 -0.00446613 2.42747e-18)
(0.49376 -0.00298965 -2.50997e-18)
(0.58079 -0.0059181 -4.37147e-18)
(0.277445 -0.00250151 5.96304e-18)
(0.494574 -0.00505402 8.17983e-18)
(0.0815599 -0.015877 1.33807e-18)
(0.919084 -0.00287011 -3.7626e-19)
(0.796105 -0.00269384 4.87765e-19)
(0.80483 -0.0032652 -2.90739e-19)
(0.655615 -0.00284475 -1.61857e-18)
(0.684866 -0.00378171 2.53207e-18)
(0.492348 -0.00253382 -2.11614e-18)
(0.579253 -0.00501089 -4.35071e-18)
(0.275547 -0.00212239 7.27058e-18)
(0.492535 -0.00424068 6.46344e-18)
(0.0840165 -0.0134379 2.98473e-18)
(0.918723 -0.00234963 -2.69265e-19)
(0.795525 -0.0022059 6.26577e-19)
(0.804218 -0.00267299 -1.72117e-19)
(0.654763 -0.00233007 -1.15971e-18)
(0.683935 -0.00309571 2.71714e-18)
(0.491168 -0.00207633 -1.83796e-18)
(0.577969 -0.00410172 -4.59792e-18)
(0.273963 -0.0017412 7.25224e-18)
(0.490836 -0.00344506 4.93486e-18)
(0.0860889 -0.0109956 3.91806e-18)
(0.918434 -0.00182827 -1.74917e-19)
(0.795059 -0.00171696 8.01535e-19)
(0.803727 -0.00207966 -7.16018e-20)
(0.65408 -0.00181417 -7.11071e-19)
(0.683188 -0.00240836 2.58088e-18)
(0.490222 -0.00161754 -1.58007e-18)
(0.576939 -0.00319085 -4.89157e-18)
(0.272694 -0.00135836 6.13735e-18)
(0.489477 -0.00266417 5.3957e-18)
(0.0877634 -0.00855003 3.28584e-18)
(0.918217 -0.00130617 -9.11088e-20)
(0.79471 -0.00122729 9.66026e-19)
(0.803358 -0.00148536 -1.50275e-19)
(0.653566 -0.00129743 -2.26597e-19)
(0.682627 -0.00171978 2.5342e-18)
(0.489511 -0.00115798 -2.87775e-19)
(0.576165 -0.00227844 -4.45197e-18)
(0.271742 -0.000974527 3.84215e-18)
(0.488457 -0.00189512 7.77945e-18)
(0.0890289 -0.00610061 2.8204e-18)
(0.918072 -0.000783489 -2.5973e-20)
(0.794477 -0.000737121 1.16579e-18)
(0.803112 -0.000890267 -4.76188e-20)
(0.653223 -0.000780158 2.04194e-19)
(0.682252 -0.00103015 2.58077e-18)
(0.489037 -0.000698077 9.87641e-19)
(0.575649 -0.00136463 -3.31269e-18)
(0.271106 -0.00059043 1.51465e-18)
(0.487777 -0.00113477 1.04913e-17)
(0.089877 -0.00364639 1.58556e-18)
(0.918 -0.000260822 5.39355e-20)
(0.79436 -0.000246195 1.01027e-18)
(0.802989 -0.000295656 7.49917e-20)
(0.653052 -0.000261315 5.6656e-19)
(0.682065 -0.000341379 2.22281e-18)
(0.4888 -0.000235416 3.41921e-18)
(0.575391 -0.000451839 -2.27032e-18)
(0.270788 -0.000202085 -5.61336e-19)
(0.487437 -0.000378136 1.36119e-17)
(0.0903024 -0.00119816 1.35218e-18)
(0.930681 -0.00978208 2.27439e-19)
(0.814764 -0.0091396 6.61895e-19)
(0.824559 -0.0111094 -1.7226e-18)
(0.683165 -0.00960421 -1.44277e-18)
(0.715021 -0.012846 -1.64025e-18)
(0.530844 -0.00850598 3.75451e-18)
(0.621079 -0.0170307 -3.92066e-18)
(0.328202 -0.00696088 1.44426e-17)
(0.550492 -0.0181947 1.24348e-17)
(0.0248604 -0.0459718 -2.70331e-18)
(0.929489 -0.00931072 2.85799e-19)
(0.812847 -0.00870335 5.92171e-19)
(0.82253 -0.0105766 -1.64845e-18)
(0.680328 -0.00915098 -7.62109e-19)
(0.711916 -0.0122329 -1.38396e-18)
(0.526861 -0.00811035 3.27022e-18)
(0.616767 -0.0162186 -5.29047e-18)
(0.322695 -0.00665578 1.23544e-17)
(0.544339 -0.0169614 1.19729e-17)
(0.0301961 -0.043725 -3.34656e-18)
(0.928348 -0.00883611 3.72758e-19)
(0.811013 -0.00826383 5.5084e-19)
(0.820589 -0.010039 -1.62049e-18)
(0.677614 -0.00869359 -2.54376e-19)
(0.708946 -0.0116126 -7.15626e-19)
(0.523054 -0.00771053 2.92856e-18)
(0.612641 -0.0153952 -6.10494e-18)
(0.31744 -0.00634546 1.0583e-17)
(0.538482 -0.0157652 1.1847e-17)
(0.0354661 -0.0414468 -4.05129e-18)
(0.92726 -0.0083587 4.64223e-19)
(0.809263 -0.00782097 5.28157e-19)
(0.818738 -0.00949805 -1.28574e-18)
(0.675027 -0.00823186 -4.39799e-19)
(0.706113 -0.0109884 -5.49377e-19)
(0.519426 -0.00730568 1.64587e-18)
(0.608705 -0.014567 -7.04376e-18)
(0.312442 -0.00602757 9.03917e-18)
(0.532927 -0.0146127 1.22245e-17)
(0.0406436 -0.0391764 -4.98615e-18)
(0.926227 -0.00787858 5.74283e-19)
(0.807601 -0.00737496 5.17208e-19)
(0.81698 -0.00895381 -9.82171e-19)
(0.672569 -0.00776612 -7.30125e-19)
(0.703421 -0.0103602 -3.80597e-19)
(0.515983 -0.00689638 4.13684e-19)
(0.604966 -0.0137339 -8.25972e-18)
(0.307707 -0.00570325 7.97869e-18)
(0.527677 -0.0135035 1.10818e-17)
(0.0457017 -0.0369071 -5.15531e-18)
(0.925249 -0.00739585 5.51549e-19)
(0.806028 -0.00692598 5.2993e-19)
(0.815316 -0.00840629 -6.86418e-19)
(0.670244 -0.0072966 -9.86505e-19)
(0.700875 -0.00972797 -2.31706e-19)
(0.512727 -0.00648298 -8.04186e-19)
(0.601428 -0.0128953 -8.85003e-18)
(0.303237 -0.0053732 7.21106e-18)
(0.522735 -0.0124353 8.83373e-18)
(0.0506135 -0.034633 -4.62433e-18)
(0.924328 -0.00691064 3.97194e-19)
(0.804546 -0.0064742 1.48974e-19)
(0.813749 -0.00785565 -4.36423e-19)
(0.668055 -0.00682354 -1.24724e-18)
(0.698478 -0.00909181 -1.24812e-19)
(0.509664 -0.00606576 -1.98069e-18)
(0.598096 -0.0120515 -8.85868e-18)
(0.299038 -0.00503784 6.61091e-18)
(0.518104 -0.0114062 6.83918e-18)
(0.0553525 -0.0323535 -4.27899e-18)
(0.923466 -0.00642305 2.43252e-19)
(0.803159 -0.00601984 2.43804e-19)
(0.812282 -0.00730199 -1.81314e-19)
(0.666005 -0.00634733 -1.54637e-18)
(0.696232 -0.0084519 1.19578e-20)
(0.506796 -0.00564533 -2.10767e-18)
(0.594974 -0.011203 -8.32836e-18)
(0.295113 -0.00469826 6.2638e-18)
(0.513787 -0.0104148 6.74713e-18)
(0.0598926 -0.0300689 -3.21829e-18)
(0.922664 -0.0059332 9.84287e-20)
(0.801867 -0.00556309 3.4202e-19)
(0.810915 -0.00674539 7.02378e-20)
(0.664096 -0.00586824 -1.93454e-18)
(0.69414 -0.0078083 5.63384e-19)
(0.504128 -0.00522209 -2.26752e-18)
(0.592067 -0.0103498 -7.13685e-18)
(0.291467 -0.00435545 6.17419e-18)
(0.509786 -0.00945873 6.88048e-18)
(0.0642083 -0.0277781 -3.09535e-18)
(0.921921 -0.00544161 -3.42169e-20)
(0.800672 -0.0051036 -9.53221e-21)
(0.809652 -0.00618686 1.50993e-19)
(0.662331 -0.00538482 -2.35585e-18)
(0.692207 -0.00716202 1.15106e-18)
(0.501662 -0.00479271 -2.57049e-18)
(0.589379 -0.00949178 -6.25905e-18)
(0.288101 -0.00400314 6.3096e-18)
(0.506102 -0.00853146 7.12247e-18)
(0.0682753 -0.025477 -3.19998e-18)
(0.943856 -0.013979 -3.60712e-19)
(0.835963 -0.012987 -7.62382e-19)
(0.847073 -0.0158312 -6.77679e-19)
(0.714864 -0.0135576 -2.28603e-18)
(0.749877 -0.0182482 -1.39644e-18)
(0.576179 -0.0119188 1.41745e-18)
(0.670253 -0.0241649 3.45904e-18)
(0.39277 -0.0093995 1.64464e-17)
(0.623652 -0.0324247 9.51169e-18)
(-0.0266186 -0.0662413 2.59195e-18)
(0.942393 -0.0135757 -2.84418e-19)
(0.83361 -0.0126211 -5.59123e-19)
(0.844574 -0.0153803 -9.32044e-19)
(0.711341 -0.0131869 -2.28796e-18)
(0.746008 -0.017736 -1.58505e-18)
(0.571123 -0.0116057 1.03492e-18)
(0.664801 -0.0234927 3.44335e-18)
(0.385514 -0.00919732 1.59329e-17)
(0.61545 -0.0308117 8.66606e-18)
(-0.0218798 -0.0642224 2.17534e-18)
(0.940959 -0.0131689 -2.20166e-19)
(0.831305 -0.0122511 -3.0608e-19)
(0.842125 -0.0149239 -1.23341e-18)
(0.707889 -0.0128106 -2.38142e-18)
(0.742217 -0.0172156 -1.84113e-18)
(0.566173 -0.0112859 7.21915e-19)
(0.659454 -0.0228065 3.40269e-18)
(0.378421 -0.00898576 1.59753e-17)
(0.60742 -0.0292264 9.72492e-18)
(-0.0170051 -0.0621782 1.69884e-18)
(0.939557 -0.0127587 -1.61108e-19)
(0.829049 -0.0118771 -4.89945e-19)
(0.839729 -0.0144636 -1.3825e-18)
(0.704513 -0.0124289 -2.57408e-18)
(0.738506 -0.0166903 -2.18035e-18)
(0.561334 -0.0109597 1.4348e-18)
(0.654219 -0.0221138 2.59214e-18)
(0.371496 -0.00876389 1.52411e-17)
(0.599573 -0.0276894 1.14485e-17)
(-0.0120098 -0.0601561 1.28794e-18)
(0.938187 -0.0123453 -1.02803e-19)
(0.826845 -0.0114993 -2.91717e-19)
(0.837388 -0.0139991 -1.40123e-18)
(0.701215 -0.0120423 -2.82221e-18)
(0.734879 -0.0161597 -2.57909e-18)
(0.556609 -0.010628 2.14726e-18)
(0.649101 -0.021414 1.79831e-18)
(0.364746 -0.00853352 1.50364e-17)
(0.591918 -0.0262016 1.15064e-17)
(-0.00690982 -0.0581423 9.74208e-19)
(0.936851 -0.0119287 -5.50282e-20)
(0.824695 -0.0111178 -7.75047e-20)
(0.835105 -0.0135303 -1.44871e-18)
(0.697998 -0.0116509 -3.12769e-18)
(0.731342 -0.0156236 -3.04084e-18)
(0.552005 -0.0102909 2.95971e-18)
(0.644106 -0.0207061 2.43984e-19)
(0.358179 -0.0082951 1.52632e-17)
(0.584466 -0.0247604 1.19863e-17)
(-0.00172231 -0.0561281 6.36404e-19)
(0.93555 -0.0115088 -5.13821e-21)
(0.822602 -0.0107327 1.36587e-19)
(0.832881 -0.0130575 -1.54403e-18)
(0.694867 -0.0112548 -3.59513e-18)
(0.727896 -0.0150821 -2.81775e-18)
(0.547526 -0.00994849 3.87362e-18)
(0.639239 -0.0199905 -1.38494e-18)
(0.351799 -0.00804873 1.59467e-17)
(0.577225 -0.0233653 1.29406e-17)
(0.00353482 -0.0541133 3.76507e-19)
(0.934287 -0.0110858 5.12759e-20)
(0.820568 -0.0103441 3.2834e-19)
(0.83072 -0.0125805 -1.66228e-18)
(0.691825 -0.0108542 -3.4686e-18)
(0.724547 -0.0145353 -2.72362e-18)
(0.543176 -0.0096014 4.90893e-18)
(0.634506 -0.0192677 -2.36573e-18)
(0.345613 -0.00779539 1.58527e-17)
(0.570203 -0.0220171 1.25006e-17)
(0.00884276 -0.0521 1.181e-19)
(0.933061 -0.0106597 1.09641e-19)
(0.818595 -0.0099522 5.5334e-19)
(0.828624 -0.0120994 -1.83389e-18)
(0.688875 -0.0104496 -2.74361e-18)
(0.721298 -0.0139831 -2.27545e-18)
(0.538959 -0.00925006 5.04412e-18)
(0.629912 -0.0185376 -2.46829e-18)
(0.339627 -0.00753631 1.61884e-17)
(0.563408 -0.0207143 1.27437e-17)
(0.0141818 -0.0500881 -1.0782e-18)
(0.931875 -0.0102309 1.64569e-19)
(0.816685 -0.00955655 7.83199e-19)
(0.826595 -0.0116146 -1.83156e-18)
(0.68602 -0.0100391 -2.07428e-18)
(0.718153 -0.0134252 -1.93436e-18)
(0.534881 -0.00889086 4.3431e-18)
(0.625463 -0.0177973 -2.71245e-18)
(0.333846 -0.00726523 1.57396e-17)
(0.556848 -0.0194456 1.14555e-17)
(0.0195317 -0.0480552 -2.27054e-18)
(0.957805 -0.0173735 -1.10779e-19)
(0.85845 -0.0160365 -8.82665e-20)
(0.87109 -0.0195902 1.80894e-18)
(0.749114 -0.0166013 7.07093e-19)
(0.787804 -0.0224576 -3.98567e-19)
(0.626759 -0.0144629 -7.51584e-18)
(0.72506 -0.0296279 4.38127e-18)
(0.468214 -0.0109324 8.60089e-18)
(0.707707 -0.0494942 9.37086e-18)
(-0.0649559 -0.0834281 6.24964e-18)
(0.956354 -0.0170515 -1.14376e-19)
(0.856112 -0.0157466 -1.19701e-19)
(0.868595 -0.0192381 1.63198e-18)
(0.745552 -0.0163131 8.11682e-19)
(0.783871 -0.0220677 -6.46847e-19)
(0.621486 -0.0142199 -6.55118e-18)
(0.719394 -0.0291241 4.5003e-18)
(0.460305 -0.0107861 9.41366e-18)
(0.69917 -0.0474925 6.17895e-18)
(-0.0618985 -0.0818993 7.36877e-18)
(0.954915 -0.0167253 -1.28419e-19)
(0.853792 -0.0154559 -1.77513e-19)
(0.86612 -0.0188809 1.34639e-18)
(0.742017 -0.016026 2.96691e-19)
(0.779965 -0.0216736 -9.12489e-19)
(0.616254 -0.0139823 -4.891e-18)
(0.713761 -0.0286198 3.8978e-18)
(0.452464 -0.0106439 1.04659e-17)
(0.690638 -0.0457326 4.79205e-18)
(-0.0586572 -0.0799549 7.00626e-18)
(0.953488 -0.0163953 -1.33467e-19)
(0.851493 -0.0151624 -2.65487e-19)
(0.863665 -0.0185171 1.06933e-18)
(0.738512 -0.0157372 4.73523e-19)
(0.776088 -0.0212692 -1.20817e-18)
(0.611068 -0.013747 -3.27968e-18)
(0.708165 -0.0280993 3.36255e-18)
(0.444698 -0.0105167 1.05635e-17)
(0.68212 -0.0439648 5.14949e-18)
(-0.0552353 -0.078189 6.69455e-18)
(0.952076 -0.0160623 -1.52566e-19)
(0.849216 -0.0148652 3.14089e-20)
(0.861233 -0.0181489 8.37126e-19)
(0.73504 -0.0154436 6.03109e-19)
(0.772245 -0.0208581 -1.13748e-18)
(0.605931 -0.0135062 -1.76447e-18)
(0.70261 -0.0275678 3.61801e-18)
(0.437011 -0.010384 1.10724e-17)
(0.673626 -0.0422051 5.82242e-18)
(-0.0516366 -0.0765044 5.58355e-18)
(0.950678 -0.0157264 -1.76245e-19)
(0.846962 -0.0145645 -1.04817e-20)
(0.858825 -0.0177768 6.05968e-19)
(0.731604 -0.0151449 1.67836e-19)
(0.768437 -0.0204416 -1.08709e-18)
(0.600847 -0.013259 -1.19767e-18)
(0.697101 -0.0270279 3.22498e-18)
(0.429411 -0.0102419 1.1778e-17)
(0.665165 -0.0404858 6.6773e-18)
(-0.0478654 -0.0748122 4.57955e-18)
(0.949296 -0.0153875 -1.94081e-19)
(0.844733 -0.0142603 -9.95524e-20)
(0.856443 -0.0174007 3.83357e-19)
(0.728205 -0.0148415 -2.72114e-19)
(0.764669 -0.0200196 -1.09184e-18)
(0.59582 -0.0130063 -6.55574e-19)
(0.691643 -0.0264797 2.79881e-18)
(0.421902 -0.0100921 1.29133e-17)
(0.656748 -0.0388101 7.71016e-18)
(-0.043926 -0.0731135 3.61317e-18)
(0.94793 -0.0150456 -2.2861e-19)
(0.842532 -0.0139528 -1.67775e-19)
(0.854089 -0.0170206 1.63547e-19)
(0.724848 -0.0145337 -7.24411e-19)
(0.760943 -0.0195922 -1.0972e-18)
(0.590855 -0.0127486 -1.85729e-19)
(0.686239 -0.0259236 2.49181e-18)
(0.414492 -0.00993572 1.44224e-17)
(0.648385 -0.0371777 8.92774e-18)
(-0.039824 -0.0714242 2.83474e-18)
(0.946583 -0.0147008 -2.65105e-19)
(0.840359 -0.0136421 -5.95583e-19)
(0.851765 -0.0166362 -5.0662e-20)
(0.721533 -0.0142219 -1.20469e-18)
(0.757263 -0.0191591 -1.17789e-18)
(0.585955 -0.0124866 3.30938e-19)
(0.680896 -0.0253592 2.9893e-18)
(0.407185 -0.00977402 1.50343e-17)
(0.640087 -0.0355872 1.04314e-17)
(-0.0355656 -0.0697486 2.92753e-18)
(0.945255 -0.0143531 -3.06369e-19)
(0.838216 -0.0133278 -6.66932e-19)
(0.849473 -0.0162475 -4.32399e-19)
(0.718265 -0.0139041 -1.71627e-18)
(0.753631 -0.0187182 -1.25677e-18)
(0.581124 -0.0122168 8.76452e-19)
(0.675616 -0.0247805 3.56429e-18)
(0.399989 -0.00960216 1.61741e-17)
(0.631863 -0.0340151 1.06778e-17)
(-0.0311578 -0.0680435 3.19462e-18)
(1.14422 0.0311903 2.15613e-18)
(1.1613 0.0377336 4.90362e-18)
(1.16924 0.0256951 2.50829e-18)
(1.1909 0.031818 6.80711e-19)
(1.20106 1.85677e-05 1.60621e-18)
(1.23335 0.00105445 4.76175e-19)
(1.24582 -0.0722279 -5.37547e-18)
(1.30006 -0.0891876 1.71298e-18)
(1.25718 -0.263209 5.18375e-18)
(0.874609 -0.187948 1.25894e-17)
(1.14439 0.030713 2.09705e-18)
(1.16126 0.0371374 5.30008e-18)
(1.16922 0.0249285 1.9867e-18)
(1.19052 0.0306668 6.78383e-19)
(1.20063 -0.0016853 1.57809e-18)
(1.23213 -0.0017037 3.81156e-19)
(1.24434 -0.0765296 -3.64768e-18)
(1.29551 -0.0968503 1.55223e-18)
(1.24687 -0.272554 1.84433e-18)
(0.844241 -0.194695 1.15238e-17)
(1.14456 0.0302416 2.04677e-18)
(1.16121 0.0365464 5.15371e-18)
(1.16919 0.0241685 1.9069e-18)
(1.19013 0.0295188 5.92505e-19)
(1.20019 -0.003386 1.61759e-18)
(1.23088 -0.00447221 3.15212e-19)
(1.24282 -0.0808651 -3.55396e-18)
(1.29089 -0.104563 1.59661e-18)
(1.2364 -0.281788 2.18932e-18)
(0.815213 -0.201307 1.07606e-17)
(1.14472 0.0297769 2.02377e-18)
(1.16115 0.0359615 4.9903e-18)
(1.16914 0.0234159 2.01212e-18)
(1.18971 0.0283754 3.23167e-19)
(1.1997 -0.00508171 1.58394e-18)
(1.22955 -0.00724812 2.23531e-19)
(1.24109 -0.0852312 -3.29929e-18)
(1.28598 -0.112321 1.57337e-18)
(1.22558 -0.290967 3.13214e-18)
(0.788498 -0.20784 1.00474e-17)
(1.14487 0.0293204 1.9783e-18)
(1.16108 0.0353847 4.87449e-18)
(1.16908 0.022673 2.44722e-18)
(1.18927 0.0272393 -5.37107e-19)
(1.19915 -0.00676894 1.60835e-18)
(1.22813 -0.0100266 1.72965e-19)
(1.23918 -0.0896219 -2.99812e-18)
(1.28079 -0.120114 1.40926e-18)
(1.21441 -0.300125 6.85624e-18)
(0.76314 -0.214304 9.1888e-18)
(1.14502 0.0288762 1.97863e-18)
(1.16101 0.0348202 4.72478e-18)
(1.169 0.0219447 2.31908e-18)
(1.1888 0.0261162 -5.28889e-19)
(1.19856 -0.00844016 2.17122e-18)
(1.22664 -0.0127987 1.36032e-19)
(1.23711 -0.0940252 -2.41683e-18)
(1.27537 -0.127929 1.73231e-18)
(1.20297 -0.309262 6.46599e-18)
(0.738803 -0.220642 7.85637e-18)
(1.14517 0.0284542 2.02801e-18)
(1.16092 0.0342787 4.59236e-18)
(1.16891 0.0212436 2.26227e-18)
(1.18831 0.0250209 -5.60774e-19)
(1.19793 -0.0100756 1.40752e-18)
(1.22508 -0.0155405 3.31129e-19)
(1.23489 -0.0984072 -7.33755e-19)
(1.26973 -0.135724 1.75792e-18)
(1.19135 -0.318333 5.8464e-18)
(0.715639 -0.22671 6.65998e-18)
(1.14532 0.0280795 2.152e-18)
(1.16084 0.0337871 4.50612e-18)
(1.1688 0.020602 2.17161e-18)
(1.18779 0.0239922 -7.65148e-19)
(1.19725 -0.0116201 1.29921e-18)
(1.22344 -0.0181825 7.25312e-19)
(1.23252 -0.102662 -4.21837e-19)
(1.26388 -0.143365 2.30292e-18)
(1.17957 -0.327148 4.63136e-18)
(0.6936 -0.232201 2.19983e-18)
(1.14545 0.0278153 2.56815e-18)
(1.16073 0.0334152 4.5913e-18)
(1.16867 0.0201051 2.15946e-18)
(1.18724 0.0231363 -1.14453e-18)
(1.19651 -0.0129189 1.3817e-18)
(1.2217 -0.0205172 2.35659e-18)
(1.22991 -0.106453 6.39688e-19)
(1.25763 -0.150383 4.9462e-18)
(1.16713 -0.335021 4.40027e-19)
(0.671571 -0.236488 -5.25869e-18)
(1.14558 0.0278208 2.92087e-18)
(1.16063 0.0333419 4.91687e-18)
(1.16852 0.0199764 2.19794e-18)
(1.18667 0.0227423 -2.94413e-19)
(1.19569 -0.0135316 1.35526e-18)
(1.21985 -0.0219176 3.60779e-18)
(1.22699 -0.108696 -7.92962e-19)
(1.25077 -0.155117 4.76555e-18)
(1.15347 -0.339607 6.7059e-21)
(0.649613 -0.238342 -4.06867e-18)
(1.14231 0.0369561 2.49131e-18)
(1.16147 0.0447045 5.26683e-18)
(1.16927 0.0347883 6.19618e-19)
(1.19425 0.044383 2.36644e-18)
(1.20489 0.0189658 1.35105e-18)
(1.24449 0.0289622 3.91547e-19)
(1.25762 -0.0278289 -2.69472e-18)
(1.33871 -0.0164215 -8.17687e-18)
(1.33215 -0.161575 -1.09058e-17)
(1.11297 -0.100461 7.12645e-18)
(1.14252 0.0363531 2.84934e-18)
(1.1615 0.0439816 5.05022e-18)
(1.16933 0.0338406 4.4739e-19)
(1.19403 0.043111 2.23876e-18)
(1.20467 0.0170307 1.63628e-18)
(1.24367 0.0262191 -1.18701e-18)
(1.25698 -0.0322545 -2.40445e-18)
(1.33576 -0.0233831 -7.32436e-18)
(1.32594 -0.172359 -1.06126e-17)
(1.08419 -0.110192 1.63383e-17)
(1.14273 0.0357544 3.05155e-18)
(1.16151 0.043263 4.95417e-18)
(1.16939 0.0328988 -9.36584e-20)
(1.1938 0.0418407 2.0614e-18)
(1.20446 0.0151006 2.27784e-18)
(1.24282 0.0234624 -1.9994e-18)
(1.25635 -0.0366891 -9.39392e-19)
(1.33277 -0.0304234 -4.12773e-18)
(1.31971 -0.182898 -9.436e-18)
(1.05608 -0.119642 2.33504e-17)
(1.14293 0.0351604 2.76601e-18)
(1.16152 0.042549 4.81398e-18)
(1.16943 0.0319635 -3.52965e-20)
(1.19354 0.0405729 1.35424e-18)
(1.2042 0.0131765 1.82063e-18)
(1.2419 0.0206946 -3.62927e-18)
(1.25555 -0.0411306 -2.60902e-18)
(1.32951 -0.037534 -4.46879e-18)
(1.31309 -0.193263 -4.9442e-18)
(1.03024 -0.128885 2.01707e-17)
(1.14313 0.0345712 3.00572e-18)
(1.16152 0.04184 4.65196e-18)
(1.16945 0.0310352 1.49072e-19)
(1.19324 0.0393086 2.10012e-18)
(1.20388 0.0112598 7.82707e-19)
(1.24089 0.0179187 -4.8357e-18)
(1.25459 -0.0455752 -2.6656e-18)
(1.32598 -0.0447048 -4.13672e-18)
(1.30607 -0.203503 -3.41904e-18)
(1.00585 -0.137975 1.16672e-17)
(1.14332 0.033987 2.93575e-18)
(1.1615 0.0411363 4.4558e-18)
(1.16945 0.0301145 7.81652e-19)
(1.19291 0.0380486 2.04903e-18)
(1.20351 0.00935172 7.65304e-19)
(1.23981 0.0151371 -3.35025e-18)
(1.25348 -0.0500205 -3.15958e-18)
(1.32221 -0.0519279 -3.75158e-18)
(1.29874 -0.213649 3.97944e-19)
(0.982421 -0.146937 9.51725e-18)
(1.14351 0.0334081 2.76667e-18)
(1.16148 0.0404383 4.37658e-18)
(1.16944 0.0292018 9.76876e-19)
(1.19256 0.0367933 1.71899e-18)
(1.2031 0.00745314 6.82818e-19)
(1.23865 0.0123514 -3.1878e-18)
(1.25223 -0.0544643 -5.16306e-18)
(1.31823 -0.0591975 -3.46168e-18)
(1.29115 -0.22372 7.0894e-19)
(0.959925 -0.15578 1.81407e-18)
(1.1437 0.0328348 2.36062e-18)
(1.16145 0.0397459 4.36635e-18)
(1.16941 0.0282975 1.6534e-18)
(1.19218 0.0355427 7.4611e-19)
(1.20265 0.00556499 9.16293e-19)
(1.23742 0.0095622 -2.41446e-18)
(1.25084 -0.0589046 -6.40306e-18)
(1.31403 -0.0665097 -2.24035e-18)
(1.2833 -0.233732 1.05891e-18)
(0.938437 -0.164484 2.47007e-18)
(1.14388 0.0322674 2.3728e-18)
(1.16141 0.039059 4.41841e-18)
(1.16936 0.0274026 2.18854e-18)
(1.19176 0.034295 7.15267e-19)
(1.20215 0.00368784 1.77314e-18)
(1.23611 0.0067654 -8.32245e-19)
(1.2493 -0.0633394 -6.21735e-18)
(1.30962 -0.0738653 -1.64611e-18)
(1.27532 -0.243675 1.24801e-18)
(0.918515 -0.172957 5.30066e-18)
(1.14406 0.0317071 2.51745e-18)
(1.16135 0.0383765 4.89655e-18)
(1.16929 0.0265186 2.22433e-18)
(1.19132 0.0330433 6.23487e-19)
(1.20159 0.00182136 1.66184e-18)
(1.23471 0.00394138 4.81013e-19)
(1.24758 -0.0677689 -6.03603e-18)
(1.30502 -0.0812926 1.4822e-18)
(1.2676 -0.253473 2.2529e-18)
(0.900453 -0.180942 1.26834e-17)
(1.14001 0.0436924 2.99335e-18)
(1.16069 0.0526926 2.37244e-18)
(1.16828 0.0454421 5.20958e-19)
(1.19548 0.0578695 3.14063e-18)
(1.20627 0.0400143 8.39944e-20)
(1.25049 0.0563333 1.03499e-19)
(1.26153 0.0189537 4.53646e-18)
(1.35971 0.0478894 -1.85001e-17)
(1.37045 -0.0449569 -2.27315e-17)
(1.30977 0.013929 1.38879e-17)
(1.14025 0.0430067 2.8618e-18)
(1.16082 0.0518766 1.89341e-18)
(1.16845 0.044349 4.68201e-19)
(1.19549 0.0565126 2.96151e-18)
(1.20628 0.0378775 3.79151e-20)
(1.25021 0.0536576 -1.07703e-18)
(1.26154 0.0142343 2.72894e-18)
(1.3586 0.0418443 -1.5144e-17)
(1.36776 -0.0574255 -2.16286e-17)
(1.28613 0.0014919 2.3985e-17)
(1.1405 0.042322 2.76313e-18)
(1.16095 0.0510629 2.49048e-18)
(1.16861 0.0432592 2.88626e-19)
(1.19549 0.0551554 2.82011e-18)
(1.20632 0.0357425 1.16771e-19)
(1.24991 0.0509645 -1.00164e-18)
(1.26161 0.00951121 2.39184e-18)
(1.35743 0.035701 -1.46599e-17)
(1.36522 -0.069581 -2.03826e-17)
(1.26249 -0.0106322 3.07187e-17)
(1.14074 0.0416388 2.6466e-18)
(1.16106 0.0502518 2.62642e-18)
(1.16876 0.0421732 -3.1825e-19)
(1.19545 0.0537987 2.86816e-18)
(1.2063 0.0336105 1.26736e-19)
(1.24952 0.0482558 -8.41844e-19)
(1.26156 0.00478825 1.55277e-18)
(1.35598 0.0294671 -1.4948e-17)
(1.36234 -0.0814993 -1.93046e-17)
(1.24101 -0.0225102 2.97643e-17)
(1.14098 0.0409573 2.47921e-18)
(1.16115 0.0494438 3.27053e-18)
(1.16888 0.0410918 -4.51929e-19)
(1.19537 0.0524435 3.60222e-18)
(1.20623 0.0314833 8.67504e-20)
(1.24904 0.0455343 7.63351e-19)
(1.26136 7.06017e-05 -4.23151e-19)
(1.35425 0.0231546 -1.75441e-17)
(1.35905 -0.0932463 -1.77279e-17)
(1.22102 -0.0342049 2.62294e-17)
(1.14121 0.0402778 2.19848e-18)
(1.16124 0.0486394 3.81691e-18)
(1.16899 0.0400157 -8.6382e-19)
(1.19527 0.0510906 2.56377e-18)
(1.20611 0.0293624 1.72785e-19)
(1.24848 0.0428025 3.53682e-19)
(1.26105 -0.00463746 -4.89804e-19)
(1.35227 0.0167733 -1.65859e-17)
(1.35544 -0.104858 -1.36291e-17)
(1.20195 -0.0457475 1.762e-17)
(1.14144 0.0396007 2.50871e-18)
(1.16131 0.0478389 3.87341e-18)
(1.16908 0.0389455 -1.79865e-19)
(1.19512 0.0497408 2.42976e-18)
(1.20596 0.0272493 3.0892e-19)
(1.24784 0.0400624 -1.21483e-18)
(1.26061 -0.00933219 -7.00431e-19)
(1.35005 0.0103305 -1.25878e-17)
(1.35156 -0.116361 -1.3491e-17)
(1.18372 -0.0571567 1.67519e-17)
(1.14167 0.0389265 2.54435e-18)
(1.16137 0.0470426 4.53873e-18)
(1.16915 0.0378819 -1.50544e-19)
(1.19495 0.0483944 2.44967e-18)
(1.20576 0.0251455 1.32004e-18)
(1.24712 0.0373152 -8.04048e-19)
(1.26006 -0.0140095 -9.12151e-19)
(1.3476 0.00383174 -9.62178e-18)
(1.34742 -0.127779 -1.36146e-17)
(1.1664 -0.06844 1.50936e-17)
(1.14189 0.0382555 2.75383e-18)
(1.16141 0.0462506 5.09254e-18)
(1.16921 0.036826 5.78569e-20)
(1.19475 0.0470509 2.31672e-18)
(1.20551 0.0230529 1.52239e-18)
(1.24631 0.0345592 6.45542e-19)
(1.25939 -0.0186637 -2.40689e-18)
(1.34491 -0.00272409 -1.21069e-17)
(1.3431 -0.139124 -1.64904e-17)
(1.15043 -0.0795648 1.26361e-17)
(1.1421 0.0375892 2.38734e-18)
(1.16144 0.0454624 5.42102e-18)
(1.16924 0.0357806 6.92105e-19)
(1.1945 0.0457062 2.31569e-18)
(1.2052 0.0209751 2.32287e-18)
(1.24541 0.0317823 -5.42694e-19)
(1.25853 -0.0232827 -1.12169e-18)
(1.34194 -0.00937144 -8.67673e-18)
(1.33871 -0.150368 -1.55112e-17)
(1.13579 -0.0903645 1.20114e-17)
(1.13731 0.0508064 3.69567e-18)
(1.15872 0.0612377 5.93856e-18)
(1.16613 0.0570665 1.56285e-18)
(1.19413 0.071848 4.50918e-18)
(1.20518 0.0623598 4.00908e-19)
(1.25025 0.0828048 -9.67602e-19)
(1.25977 0.0679082 7.22906e-18)
(1.36068 0.103392 -1.05514e-17)
(1.37768 0.0850788 -1.49554e-17)
(1.43558 0.147114 -5.20953e-18)
(1.1376 0.0501038 3.68244e-18)
(1.15898 0.0603795 5.02236e-18)
(1.16642 0.0558965 1.97605e-18)
(1.19441 0.0704501 3.94553e-18)
(1.20543 0.0601304 2.79808e-19)
(1.25061 0.0802122 1.10954e-18)
(1.26025 0.0630554 9.02149e-18)
(1.36165 0.0982196 -1.05015e-17)
(1.37794 0.0715144 -1.86732e-17)
(1.41973 0.133251 -3.01875e-18)
(1.13789 0.0493977 3.88585e-18)
(1.15923 0.0595207 4.27472e-18)
(1.1667 0.0547253 1.32638e-18)
(1.19467 0.0690502 5.4669e-18)
(1.2057 0.0578935 3.57573e-19)
(1.25096 0.0776045 3.01218e-18)
(1.2608 0.0581735 9.72437e-18)
(1.36259 0.0929494 -1.09793e-17)
(1.37842 0.0582226 -1.85473e-17)
(1.40342 0.119613 5.21698e-18)
(1.13817 0.0486885 3.75755e-18)
(1.15946 0.0586616 4.08724e-18)
(1.16697 0.0535537 1.33085e-18)
(1.1949 0.0676489 4.47994e-18)
(1.20593 0.0556507 5.085e-19)
(1.25122 0.0749822 2.98009e-18)
(1.26126 0.053268 7.62301e-18)
(1.36322 0.0875861 -1.43101e-17)
(1.37864 0.0451256 -2.1303e-17)
(1.38915 0.106141 6.97005e-18)
(1.13845 0.0479766 3.64363e-18)
(1.15968 0.0578029 3.78743e-18)
(1.16721 0.0523823 1.22857e-18)
(1.19508 0.066247 5.04166e-18)
(1.20611 0.0534042 1.19676e-18)
(1.25138 0.0723477 2.50241e-18)
(1.2616 0.0483468 7.26968e-18)
(1.36353 0.0821401 -1.53239e-17)
(1.3785 0.0321482 -2.11888e-17)
(1.3764 0.0927686 1.60071e-17)
(1.13872 0.0472625 3.52471e-18)
(1.15989 0.0569448 3.06238e-18)
(1.16743 0.0512119 1.08547e-18)
(1.19524 0.0648455 3.87501e-18)
(1.20624 0.051156 2.80853e-19)
(1.25145 0.0697028 7.50287e-19)
(1.26185 0.043416 6.91918e-18)
(1.36357 0.0766209 -2.14089e-17)
(1.37805 0.0192485 -2.74032e-17)
(1.36454 0.0794639 1.55889e-17)
(1.13899 0.0465465 3.38873e-18)
(1.16008 0.056088 2.99177e-18)
(1.16764 0.0500432 3.48101e-19)
(1.19535 0.063445 3.88606e-18)
(1.20633 0.0489078 2.87136e-19)
(1.25143 0.0670491 6.5291e-19)
(1.262 0.0384814 6.96694e-18)
(1.36334 0.0710361 -2.11093e-17)
(1.37732 0.00639612 -2.53496e-17)
(1.35345 0.0662052 1.6209e-17)
(1.13925 0.0458289 3.28684e-18)
(1.16025 0.0552326 2.86021e-18)
(1.16783 0.048877 -4.56966e-20)
(1.19544 0.0620461 3.68277e-18)
(1.20639 0.0466616 3.33093e-19)
(1.25134 0.064388 4.87265e-19)
(1.26206 0.0335491 8.24955e-18)
(1.36286 0.0653921 -2.07282e-17)
(1.37634 -0.00643831 -2.1827e-17)
(1.34322 0.052974 2.22624e-17)
(1.13951 0.0451106 3.20682e-18)
(1.16041 0.0543791 2.70614e-18)
(1.168 0.0477147 5.65365e-19)
(1.19548 0.060649 3.39123e-18)
(1.2064 0.0444202 2.04511e-19)
(1.25115 0.0617191 3.47203e-19)
(1.26202 0.0286277 7.37191e-18)
(1.36211 0.0596909 -2.01936e-17)
(1.37515 -0.0192803 -2.49171e-17)
(1.33419 0.039767 2.03044e-17)
(1.13976 0.0443927 3.10654e-18)
(1.16055 0.0535275 2.60645e-18)
(1.16814 0.0465597 5.32763e-19)
(1.19548 0.0592522 3.28594e-18)
(1.20634 0.0421895 1.71512e-19)
(1.25084 0.0590367 3.15882e-19)
(1.2618 0.0237362 5.31944e-18)
(1.36102 0.0539101 -2.00765e-17)
(1.37367 -0.0321354 -2.38738e-17)
(1.32613 0.0266561 1.23617e-17)
(1.13421 0.0576035 5.04772e-18)
(1.15548 0.0697714 4.84023e-18)
(1.16275 0.0688797 2.93295e-18)
(1.19034 0.0858395 2.91376e-18)
(1.20159 0.0846313 2.04618e-18)
(1.24393 0.108462 4.65305e-18)
(1.25324 0.115674 -4.95494e-18)
(1.34141 0.152226 -5.52432e-18)
(1.35811 0.217349 -2.02269e-17)
(1.4724 0.282172 4.64386e-18)
(1.13454 0.0569522 5.16435e-18)
(1.15587 0.0689287 4.68139e-18)
(1.16316 0.0677106 2.87193e-18)
(1.19085 0.0844497 2.75856e-18)
(1.20209 0.0824525 1.93365e-18)
(1.24489 0.105931 4.63767e-18)
(1.25412 0.111116 -4.76037e-18)
(1.34448 0.147645 -6.10633e-18)
(1.36082 0.20429 -2.01853e-17)
(1.46575 0.268902 9.29213e-18)
(1.13487 0.0562934 4.77944e-18)
(1.15625 0.0680827 4.51428e-18)
(1.16357 0.0665365 2.92525e-18)
(1.19135 0.0830557 3.03096e-18)
(1.2026 0.0802572 1.04049e-18)
(1.24584 0.103388 4.34218e-18)
(1.25508 0.106488 -4.31674e-18)
(1.34748 0.142979 -6.82841e-18)
(1.36381 0.191344 -2.3079e-17)
(1.45846 0.255695 8.37837e-20)
(1.1352 0.0556275 4.91925e-18)
(1.15662 0.0672334 4.19701e-18)
(1.16396 0.065358 3.3628e-18)
(1.19182 0.0816582 4.16369e-18)
(1.20307 0.0780467 1.92245e-18)
(1.24671 0.100834 3.7538e-18)
(1.25596 0.101796 -3.82028e-18)
(1.3502 0.138233 -1.05433e-17)
(1.36657 0.17843 -2.11561e-17)
(1.45324 0.242492 -7.6767e-18)
(1.13552 0.0549549 4.70437e-18)
(1.15696 0.0663815 5.12052e-18)
(1.16432 0.0641756 3.08775e-18)
(1.19225 0.0802581 5.78255e-18)
(1.20349 0.0758229 1.60356e-18)
(1.24748 0.0982728 1.75185e-18)
(1.25674 0.0970468 -1.71984e-18)
(1.3526 0.133414 -1.42522e-17)
(1.36903 0.165472 -1.66482e-17)
(1.4495 0.229225 -7.88881e-18)
(1.13583 0.0542759 4.23635e-18)
(1.15729 0.0655273 4.96617e-18)
(1.16467 0.0629901 2.435e-18)
(1.19265 0.0788563 4.85671e-18)
(1.20387 0.0735878 6.32783e-19)
(1.24816 0.0957044 9.43002e-20)
(1.25744 0.0922485 -1.0542e-18)
(1.35471 0.12853 -1.62432e-17)
(1.37123 0.152429 -1.54057e-17)
(1.4466 0.215863 -1.47808e-17)
(1.13614 0.0535909 4.18979e-18)
(1.15761 0.0646712 4.95178e-18)
(1.165 0.061802 2.41632e-18)
(1.19301 0.0774535 4.90407e-18)
(1.20422 0.0713432 8.27303e-19)
(1.24876 0.0931305 -4.63945e-19)
(1.25806 0.0874079 1.16063e-18)
(1.35654 0.123587 -1.27673e-17)
(1.3732 0.139272 -1.13689e-17)
(1.44442 0.202388 -1.39944e-17)
(1.13644 0.0529003 4.32074e-18)
(1.15791 0.0638136 5.48458e-18)
(1.16531 0.0606122 2.36813e-18)
(1.19334 0.0760501 5.84614e-18)
(1.20453 0.0690913 1.80739e-18)
(1.24928 0.0905521 -2.16345e-18)
(1.25863 0.0825327 1.86229e-18)
(1.35807 0.118593 -1.58486e-17)
(1.37497 0.125969 -1.13124e-17)