/*--------------------------------*- C++ -*----------------------------------*\
  =========                 |
  \\      /  F ield         | OpenFOAM: The Open Source CFD Toolbox
   \\    /   O peration     | Website:  https://openfoam.org
    \\  /    A nd           | Version:  7
     \\/     M anipulation  |
\*---------------------------------------------------------------------------*/
FoamFile
{
    version     2.0;
    format      ascii;
    class       volVectorField;
    location    "106";
    object      U;
}
// * * * * * * * * * * * * * * * * * * * * * * * * * * * * * * * * * * * * * //

dimensions      [0 1 -1 0 0 0 0];

internalField   nonuniform List<vector> 
115
(
(0.68688 0.075615 3.85946e-19)
(0.706424 0.0790357 2.9648e-19)
(0.726615 0.0825135 1.94241e-18)
(0.747419 0.0860456 7.46867e-18)
(0.7688 0.089629 9.31868e-19)
(0.790717 0.0932607 1.0251e-17)
(0.813125 0.0969372 3.4297e-18)
(0.835976 0.100655 1.46282e-17)
(0.859216 0.10441 8.62855e-18)
(0.882788 0.108198 1.37656e-17)
(0.906629 0.112014 9.28654e-18)
(0.930674 0.115854 1.44154e-17)
(0.95485 0.119712 1.12987e-17)
(0.519608 0.0541125 2.49466e-18)
(0.535524 0.056806 1.18376e-18)
(0.552203 0.059573 -7.37066e-19)
(0.569637 0.0624133 -1.01277e-19)
(0.587814 0.0653266 -9.12738e-19)
(0.606722 0.0683125 -3.93732e-18)
(0.626344 0.0713704 1.98907e-18)
(0.646663 0.0744998 -4.29495e-18)
(0.667658 0.0776999 3.93199e-18)
(0.689305 0.08097 -1.90007e-18)
(0.711579 0.0843094 1.01421e-17)
(0.734448 0.0877173 -4.58666e-18)
(0.757879 0.0911927 1.12563e-17)
(0.781834 0.0947347 -6.05014e-18)
(0.806271 0.0983419 9.13912e-18)
(0.831141 0.102013 3.44411e-18)
(0.411811 0.0437657 8.2721e-18)
(0.425812 0.0459159 5.88459e-18)
(0.440561 0.0481412 -5.99508e-19)
(0.456056 0.0504427 8.8758e-19)
(0.472297 0.0528211 2.68065e-18)
(0.489283 0.0552769 8.77244e-18)
(0.507012 0.0578108 9.7116e-18)
(0.525478 0.0604235 8.29469e-18)
(0.544678 0.0631156 1.0506e-17)
(0.564606 0.0658882 8.72406e-18)
(0.585251 0.0687422 9.98423e-18)
(0.606606 0.0716788 1.13768e-18)
(0.628659 0.0746995 1.26093e-17)
(0.651394 0.0778057 1.5919e-18)
(0.674795 0.0809991 1.62579e-17)
(0.698841 0.0842816 1.19074e-17)
(0.311712 0.0348514 3.0135e-18)
(0.323635 0.0364897 1.82e-18)
(0.336248 0.0382003 -3.95014e-19)
(0.349556 0.0399843 -4.15985e-20)
(0.363564 0.0418429 -4.28468e-19)
(0.378279 0.0437771 -3.36981e-18)
(0.393705 0.0457879 2.47163e-18)
(0.409847 0.0478764 -3.65887e-18)
(0.42671 0.0500437 3.34577e-18)
(0.444297 0.0522913 -2.04491e-18)
(0.462612 0.0546209 9.78167e-18)
(0.48166 0.0570344 -5.52333e-18)
(0.501443 0.0595342 1.0814e-17)
(0.521964 0.0621228 -7.17733e-18)
(0.543225 0.0648032 7.94194e-18)
(0.565225 0.0675787 4.47382e-18)
(0.220942 0.0274012 8.50132e-18)
(0.230804 0.0285802 6.44982e-18)
(0.241275 0.0298261 -1.73986e-18)
(0.252363 0.0311401 -2.5904e-19)
(0.264076 0.0325234 6.41544e-19)
(0.276422 0.0339769 9.50381e-18)
(0.289411 0.0355016 9.89992e-18)
(0.30305 0.0370984 9.391e-18)
(0.317349 0.0387686 1.02666e-17)
(0.332317 0.0405133 9.51681e-18)
(0.347964 0.0423342 9.40594e-18)
(0.3643 0.044233 1.33706e-18)
(0.381337 0.0462121 1.07329e-17)
(0.399083 0.0482738 2.12721e-18)
(0.417553 0.0504214 1.38461e-17)
(0.436756 0.0526581 1.22744e-17)
(0.140201 0.0213416 1.31737e-18)
(0.148149 0.0221249 -3.39304e-19)
(0.156614 0.0229688 -8.01821e-18)
(0.165604 0.0238745 -1.5058e-18)
(0.175128 0.024843 -7.4358e-18)
(0.185196 0.0258752 1.92117e-18)
(0.195817 0.0269717 1.67505e-18)
(0.207001 0.0281333 1.78404e-18)
(0.218759 0.0293607 1.96047e-18)
(0.231101 0.0306549 1.92397e-18)
(0.244038 0.032017 1.41512e-18)
(0.257584 0.0334483 4.89033e-19)
(0.271751 0.0349505 1.8027e-18)
(0.286551 0.0365256 8.13871e-19)
(0.302001 0.0381762 2.65498e-18)
(0.318116 0.0399049 2.194e-18)
(0.0694768 0.0165305 1.90633e-19)
(0.0757376 0.0169857 -5.76091e-19)
(0.0824197 0.017495 -3.0402e-18)
(0.0895321 0.0180597 -1.07369e-18)
(0.0970835 0.0186807 -2.8194e-18)
(0.105083 0.0193585 6.94528e-20)
(0.113541 0.0200938 1.79128e-19)
(0.122466 0.020887 4.20364e-19)
(0.131868 0.0217384 4.4905e-19)
(0.141758 0.0226486 5.03786e-19)
(0.152148 0.0236182 1.20502e-19)
(0.163048 0.0246481 9.74999e-20)
(0.174472 0.0257393 3.047e-19)
(0.186432 0.0268934 7.26149e-20)
(0.198942 0.0281119 5.21555e-19)
(0.212018 0.0293971 5.06203e-19)
(0.0082799 0.0127882 4.27831e-20)
(0.0131187 0.012982 -9.0425e-19)
(0.0182866 0.0132238 -8.38466e-18)
(0.0237922 0.0135148 -2.0008e-18)
(0.0296441 0.0138558 -8.45405e-18)
(0.0358508 0.0142472 -9.06755e-19)
)
;

boundaryField
{
    inlet
    {
        type            uniformFixedValue;
        uniformValue    constant (1 0 0);
        value           nonuniform 0();
    }
    outlet
    {
        type            pressureInletOutletVelocity;
        value           nonuniform 0();
    }
    polygon
    {
        type            fixedValue;
        value           nonuniform 0();
    }
    top
    {
        type            symmetryPlane;
    }
    bottom
    {
        type            symmetryPlane;
    }
    outside
    {
        type            zeroGradient;
    }
    procBoundary52to44
    {
        type            processor;
        value           nonuniform List<vector> 
17
(
(0.0424213 0.0146896 -1.74282e-20)
(0.0493646 0.015183 4.45917e-20)
(0.05669 0.0157276 1.04574e-19)
(0.064407 0.0163237 8.16277e-20)
(0.0725257 0.0169715 8.21878e-20)
(0.0810566 0.0176715 -1.91332e-20)
(0.0900106 0.0184243 1.52931e-19)
(0.0993993 0.0192308 -4.0048e-20)
(0.109235 0.0200922 6.77045e-20)
(0.11953 0.0210098 2.73337e-19)
(-0.0441482 0.00992135 -9.7871e-20)
(-0.0404575 0.00991711 -2.73992e-19)
(-0.0365236 0.009955 -2.8858e-18)
(-0.0323385 0.0100362 -1.19008e-18)
(-0.0278939 0.0101614 -3.13683e-18)
(0.0424213 0.0146896 -1.74282e-20)
(-0.0231817 0.0103311 -9.74092e-19)
)
;
    }
    procBoundary52to45
    {
        type            processor;
        value           nonuniform List<vector> 2((0.0636285 0.016128 4.38017e-19) (0.00376169 0.0126409 5.02566e-20));
    }
    procBoundary52to51
    {
        type            processor;
        value           nonuniform List<vector> 7((0.979081 0.123583 1.217e-17) (0.856393 0.105746 4.81439e-18) (0.72351 0.0876549 1.29587e-17) (0.587965 0.0704532 5.15491e-18) (0.456706 0.0549881 1.26549e-17) (0.334912 0.0417152 2.13778e-18) (0.225675 0.0307514 3.97715e-19));
    }
    procBoundary52to53
    {
        type            processor;
        value           nonuniform List<vector> 5((0.504464 0.0514922 3.57082e-18) (0.398555 0.0416898 9.98384e-18) (0.300473 0.0332839 3.84687e-18) (0.211681 0.0262875 9.11079e-18) (0.13276 0.0206173 1.64754e-18));
    }
    procBoundary52to60
    {
        type            processor;
        value           nonuniform List<vector> 
17
(
(0.803337 0.0895716 -1.33692e-18)
(0.823426 0.0934206 -3.11127e-18)
(0.844006 0.0972976 -5.72695e-18)
(0.865026 0.101197 5.62642e-19)
(0.886429 0.105113 -5.9345e-18)
(0.908155 0.109039 3.31336e-18)
(0.93014 0.112969 -2.56577e-18)
(0.952317 0.116896 1.03605e-17)
(0.974613 0.120813 -3.86035e-18)
(0.996955 0.124713 1.02578e-17)
(1.01927 0.128588 -5.68083e-18)
(1.04147 0.132431 7.61741e-18)
(1.06347 0.136234 1.88678e-18)
(0.632407 0.0657182 6.67893e-18)
(0.649846 0.0689542 4.42992e-18)
(0.668012 0.0722537 -1.2769e-18)
(0.668012 0.0722537 -1.2769e-18)
)
;
    }
}


// ************************************************************************* //
