/*--------------------------------*- C++ -*----------------------------------*\
  =========                 |
  \\      /  F ield         | OpenFOAM: The Open Source CFD Toolbox
   \\    /   O peration     | Website:  https://openfoam.org
    \\  /    A nd           | Version:  7
     \\/     M anipulation  |
\*---------------------------------------------------------------------------*/
FoamFile
{
    version     2.0;
    format      ascii;
    class       volVectorField;
    location    "10";
    object      U;
}
// * * * * * * * * * * * * * * * * * * * * * * * * * * * * * * * * * * * * * //

dimensions      [0 1 -1 0 0 0 0];

internalField   nonuniform List<vector> 
50
(
(1.15225 0.119719 -4.41171e-17)
(1.13537 0.161202 4.29585e-19)
(1.1208 0.176528 -3.40213e-18)
(1.09291 0.212299 -2.79427e-17)
(1.15965 0.12279 -3.555e-17)
(1.14391 0.164282 -1.03856e-18)
(1.13065 0.180031 -2.01305e-19)
(1.10481 0.216474 -2.1301e-17)
(1.16666 0.125782 -3.34684e-17)
(1.15253 0.167018 3.46219e-18)
(1.14078 0.182974 -6.61556e-18)
(1.11823 0.219567 -2.41162e-17)
(1.09673 0.253941 -1.82655e-18)
(1.17314 0.128639 -1.80959e-17)
(1.1607 0.169372 -8.12536e-18)
(1.15023 0.18531 1.09742e-17)
(1.13089 0.221538 -4.85439e-18)
(1.1133 0.25701 -2.15482e-18)
(1.17949 0.1314 3.30592e-18)
(1.16863 0.171442 1.82763e-17)
(1.15929 0.187222 8.25582e-18)
(1.14287 0.222766 -4.59421e-18)
(1.12886 0.258813 -1.39509e-18)
(1.18592 0.13399 4.342e-18)
(1.1766 0.173107 -3.64022e-18)
(1.16829 0.188508 7.98494e-18)
(1.15475 0.222783 -3.72094e-18)
(1.14408 0.258881 -8.86231e-19)
(1.19248 0.136568 1.0696e-18)
(1.18459 0.174659 -3.19435e-18)
(1.1772 0.18966 2.48394e-18)
(1.16631 0.222632 -2.51945e-18)
(1.15885 0.258373 -8.00357e-19)
(1.19902 0.138804 8.28322e-18)
(1.19263 0.175551 -5.84305e-19)
(1.18598 0.189757 1.13963e-17)
(1.17778 0.220383 -2.79995e-18)
(1.17244 0.255374 -7.33823e-19)
(1.2056 0.141335 -1.022e-17)
(1.20044 0.176947 -4.93896e-18)
(1.19424 0.1908 -1.2192e-17)
(1.18808 0.220225 3.79174e-19)
(1.18453 0.254416 -7.26085e-19)
(1.18103 0.2829 4.47155e-18)
(1.21199 0.142884 -2.97417e-17)
(1.20833 0.176641 6.77676e-18)
(1.20238 0.188983 -1.65726e-17)
(1.19865 0.214374 -1.07578e-17)
(1.19528 0.247143 -5.74004e-19)
(1.19964 0.263904 2.39383e-19)
)
;

boundaryField
{
    inlet
    {
        type            uniformFixedValue;
        uniformValue    constant (1 0 0);
        value           nonuniform 0();
    }
    outlet
    {
        type            pressureInletOutletVelocity;
        value           nonuniform 0();
    }
    polygon
    {
        type            fixedValue;
        value           nonuniform 0();
    }
    top
    {
        type            symmetryPlane;
    }
    bottom
    {
        type            symmetryPlane;
    }
    outside
    {
        type            zeroGradient;
    }
    procBoundary13to9
    {
        type            processor;
        value           nonuniform List<vector> 
12
(
(1.06299 0.242866 -1.37969e-19)
(1.07859 0.249251 -1.0104e-18)
(1.07859 0.249251 -1.0104e-18)
(1.05344 0.297112 -4.27966e-18)
(1.07742 0.30015 7.85909e-18)
(1.1001 0.301268 5.81136e-18)
(1.12285 0.298677 5.32402e-18)
(1.14382 0.295585 5.99084e-18)
(1.16477 0.286183 2.89217e-18)
(1.16477 0.286183 2.89217e-18)
(1.17534 0.36372 -5.18549e-18)
(1.19126 0.342653 3.73462e-18)
)
;
    }
    procBoundary13to12
    {
        type            processor;
        value           nonuniform List<vector> 4((1.10952 0.101352 1.61832e-17) (1.08944 0.141723 2.5657e-20) (1.0719 0.154384 2.0901e-18) (1.04509 0.184643 1.46774e-17));
    }
    procBoundary13to14
    {
        type            processor;
        value           nonuniform List<vector> 6((1.21865 0.146004 -3.97261e-17) (1.21535 0.179206 8.17838e-18) (1.20937 0.192252 1.73366e-18) (1.20589 0.218788 -1.67879e-17) (1.20322 0.251187 3.03373e-17) (1.20468 0.272717 5.40481e-18));
    }
}


// ************************************************************************* //
