/*--------------------------------*- C++ -*----------------------------------*\
  =========                 |
  \\      /  F ield         | OpenFOAM: The Open Source CFD Toolbox
   \\    /   O peration     | Website:  https://openfoam.org
    \\  /    A nd           | Version:  7
     \\/     M anipulation  |
\*---------------------------------------------------------------------------*/
FoamFile
{
    version     2.0;
    format      ascii;
    class       surfaceScalarField;
    location    "15";
    object      phi;
}
// * * * * * * * * * * * * * * * * * * * * * * * * * * * * * * * * * * * * * //

dimensions      [0 3 -1 0 0 0 0];

internalField   nonuniform List<scalar> 
85
(
-4.80945e-05
0.0200044
-4.71421e-05
0.019999
-4.00388e-05
0.0199929
-2.53937e-05
0.0199854
0.0199746
-2.5937e-05
0.0199883
-1.15986e-05
0.0199847
3.04925e-08
0.0199813
6.75129e-06
0.0199786
0.0199814
-8.51081e-05
0.0199905
-7.8734e-05
0.0199783
-6.42924e-05
0.0199668
-4.21325e-05
0.0199565
0.0199392
-0.000271593
0.0199338
-0.00020476
0.0199115
-0.000131486
0.0198936
-5.45592e-05
0.0198795
0.0198847
-0.000452086
0.0199076
-0.000389612
0.019849
-0.000292603
0.0197965
-0.000172024
0.019759
0.0197126
-0.000846221
0.0197794
-0.000672856
0.0196757
-0.000459988
0.0195837
-0.000211263
0.0195102
0.0195014
-0.00145565
0.0197061
-0.00126766
0.0194877
-0.000962726
0.0192787
-0.000564161
0.0191117
0.0189372
-0.00309287
0.01943
-0.00261188
0.0190067
-0.00189985
0.0185667
-0.000976501
0.0181883
0.0179607
-0.00564186
0.0195474
-0.00538521
0.01875
-0.00458531
0.0177668
-0.00297686
0.0165799
0.0149839
-0.0121856
-0.0120871
-0.0104821
-0.00752978
)
;

boundaryField
{
    inlet
    {
        type            calculated;
        value           nonuniform List<scalar> 5(-0.02 -0.02 -0.02 -0.02 -0.02);
    }
    outlet
    {
        type            calculated;
        value           nonuniform 0();
    }
    polygon
    {
        type            calculated;
        value           nonuniform 0();
    }
    top
    {
        type            symmetryPlane;
        value           uniform 0;
    }
    bottom
    {
        type            symmetryPlane;
        value           uniform 0;
    }
    outside
    {
        type            calculated;
        value           nonuniform 0();
    }
    procBoundary8to4
    {
        type            processor;
        value           nonuniform List<scalar> 10(-5.76721e-13 1.21202e-13 -2.97869e-12 -4.21625e-13 -2.56618e-12 -1.3019e-13 -2.87581e-12 -6.24652e-14 -4.51062e-13 -1.39644e-12);
    }
    procBoundary8to9
    {
        type            processor;
        value           nonuniform List<scalar> 5(0.020047 0.0186515 0.0161618 0.0136276 0.00745407);
    }
    procBoundary8to12
    {
        type            processor;
        value           nonuniform List<scalar> 10(4.36477e-05 4.21289e-05 8.29094e-05 0.000328223 0.000478324 0.000974433 0.00152889 0.00336904 0.00552441 0.011686);
    }
}


// ************************************************************************* //
