/*--------------------------------*- C++ -*----------------------------------*\
  =========                 |
  \\      /  F ield         | OpenFOAM: The Open Source CFD Toolbox
   \\    /   O peration     | Website:  https://openfoam.org
    \\  /    A nd           | Version:  7
     \\/     M anipulation  |
\*---------------------------------------------------------------------------*/
FoamFile
{
    version     2.0;
    format      ascii;
    class       volVectorField;
    location    "68";
    object      U;
}
// * * * * * * * * * * * * * * * * * * * * * * * * * * * * * * * * * * * * * //

dimensions      [0 1 -1 0 0 0 0];

internalField   nonuniform List<vector> 
125
(
(0.493024 0.0221161 -8.43135e-20)
(0.488689 0.0205305 -1.92687e-19)
(0.484412 0.0188234 7.17856e-19)
(0.480218 0.0170017 1.59405e-18)
(0.476134 0.0150753 4.31344e-19)
(0.472191 0.0130493 1.90925e-18)
(0.619047 0.0302586 1.19839e-19)
(0.612345 0.0314994 -7.1952e-21)
(0.610165 0.0314242 2.60957e-20)
(0.605416 0.031817 -5.42902e-20)
(0.602089 0.0315499 -1.05725e-19)
(0.597949 0.0313049 1.02891e-19)
(0.594221 0.0306985 9.83506e-20)
(0.590243 0.0299665 -1.30231e-20)
(0.586373 0.028992 -6.00505e-20)
(0.58243 0.0278619 -5.51011e-19)
(0.578522 0.026545 -1.0912e-18)
(0.574613 0.0250791 -2.1318e-19)
(0.570743 0.0234589 -1.06582e-18)
(0.566923 0.0217033 5.69777e-19)
(0.563181 0.0198132 3.72603e-19)
(0.559544 0.0177976 1.93432e-19)
(0.556046 0.0156569 4.0803e-19)
(0.691956 0.0327117 1.1542e-19)
(0.686562 0.0339664 1.12149e-20)
(0.68488 0.0338772 7.14621e-20)
(0.681031 0.0343186 -3.81001e-20)
(0.678437 0.0340268 -2.56481e-20)
(0.675107 0.0338251 1.21777e-19)
(0.672169 0.03321 2.75315e-19)
(0.668989 0.0325059 4.04096e-20)
(0.665914 0.0315305 2.48179e-19)
(0.662762 0.0304112 -5.47765e-19)
(0.659638 0.0290863 -9.1799e-19)
(0.656503 0.027609 -1.85657e-19)
(0.653397 0.02596 -8.31161e-19)
(0.650327 0.0241625 7.2608e-19)
(0.64732 0.0222102 1.0283e-18)
(0.644403 0.0201116 2.30483e-19)
(0.641609 0.0178627 1.03877e-18)
(0.759229 0.0345604 7.61761e-20)
(0.755493 0.0358024 1.12411e-20)
(0.754412 0.035705 7.73114e-20)
(0.751791 0.0361625 -2.34052e-20)
(0.750123 0.0358506 7.99708e-21)
(0.747916 0.0356748 2.09778e-20)
(0.746026 0.0350514 1.54761e-20)
(0.743954 0.0343706 -3.37038e-20)
(0.741971 0.0333963 -7.60478e-20)
(0.739927 0.0322911 -2.8506e-19)
(0.737903 0.0309643 -5.85475e-19)
(0.735867 0.0294845 -1.20968e-19)
(0.733845 0.0278176 -5.86727e-19)
(0.731845 0.0259911 3.02362e-19)
(0.729888 0.0239887 1.14604e-19)
(0.727999 0.0218169 4.19425e-20)
(0.726207 0.0194628 1.24835e-19)
(0.817617 0.0356928 -6.82783e-20)
(0.815726 0.0368715 -4.65987e-20)
(0.815312 0.0367599 -1.38094e-19)
(0.814136 0.0371806 -9.25935e-21)
(0.813529 0.0368422 -1.08297e-19)
(0.812676 0.0366557 3.31401e-20)
(0.812033 0.0360153 -1.60813e-20)
(0.811321 0.0353378 -7.45652e-22)
(0.810676 0.0343586 3.397e-21)
(0.810017 0.0332611 4.22852e-20)
(0.809376 0.0319351 2.08617e-19)
(0.808738 0.0304602 3.89079e-20)
(0.808108 0.0287913 2.73693e-19)
(0.807494 0.0269609 -4.47842e-20)
(0.806903 0.0249467 5.10663e-21)
(0.806355 0.0227571 -2.98312e-21)
(0.805867 0.0203767 -2.9055e-20)
(0.863789 0.0361049 3.10911e-21)
(0.863664 0.0371546 1.66392e-20)
(0.863918 0.0370123 -3.58887e-21)
(0.864191 0.037329 2.39296e-20)
(0.864667 0.0369458 -4.05713e-20)
(0.86522 0.0366961 9.42004e-21)
(0.865884 0.0360143 -1.54515e-20)
(0.866626 0.035298 1.72252e-21)
(0.867429 0.0342849 -2.06653e-22)
(0.868294 0.033158 1.33912e-20)
(0.869195 0.0317995 2.73813e-20)
(0.870141 0.0302911 4.99011e-21)
(0.871114 0.0285791 -9.67007e-21)
(0.872123 0.0266956 -5.03828e-20)
(0.873161 0.0246099 -5.81787e-20)
(0.874244 0.0223255 -8.11169e-20)
(0.875379 0.0198176 -1.07617e-19)
(0.895099 0.0359129 3.41126e-20)
(0.896303 0.0367467 1.44122e-19)
(0.897128 0.0365631 3.97451e-20)
(0.898564 0.0367248 2.12955e-19)
(0.899959 0.036296 -7.73845e-20)
(0.901697 0.0359604 -2.72227e-22)
(0.903493 0.0352436 -2.12933e-20)
(0.905506 0.0344878 -1.9902e-20)
(0.9076 0.03346 -2.63588e-20)
(0.909844 0.0323268 -2.43734e-20)
(0.912165 0.0309774 4.32164e-21)
(0.914595 0.0294901 6.93098e-20)
(0.917091 0.027812 -6.05728e-20)
(0.919668 0.0259752 -7.51049e-20)
(0.922301 0.0239481 -9.56856e-20)
(0.925 0.0217345 -1.47885e-19)
(0.927758 0.0193101 -1.98492e-19)
(0.910454 0.0350215 -1.64834e-19)
(0.912213 0.0353415 -3.51568e-19)
(0.913408 0.0349753 -1.25876e-19)
(0.915469 0.0348009 -4.19482e-19)
(0.917408 0.0341601 1.37856e-19)
(0.919829 0.033564 -8.39486e-20)
(0.922304 0.0326388 -1.5018e-20)
(0.925084 0.031664 -6.68281e-20)
(0.92798 0.0304411 -1.13087e-19)
(0.931095 0.0291146 -1.86173e-19)
(0.934339 0.0275834 -3.058e-19)
(0.937754 0.0259182 -5.32567e-19)
(0.941295 0.0240671 1.29777e-19)
(0.944977 0.0220593 -1.89398e-19)
(0.948777 0.0198615 -1.28735e-19)
(0.952705 0.0174758 -2.59693e-19)
(0.956753 0.0148746 -4.09738e-19)
)
;

boundaryField
{
    inlet
    {
        type            uniformFixedValue;
        uniformValue    constant (1 0 0);
        value           nonuniform 0();
    }
    outlet
    {
        type            pressureInletOutletVelocity;
        value           nonuniform List<vector> 7((0.619047 0.0302586 1.19839e-19) (0.691956 0.0327117 1.1542e-19) (0.759229 0.0345604 7.61761e-20) (0.817617 0.0356928 -6.82783e-20) (0.863789 0.0361049 3.10911e-21) (0.895099 0.0359129 3.41126e-20) (0.910454 0.0350215 -1.64834e-19));
    }
    polygon
    {
        type            fixedValue;
        value           nonuniform 0();
    }
    top
    {
        type            symmetryPlane;
    }
    bottom
    {
        type            symmetryPlane;
    }
    outside
    {
        type            zeroGradient;
    }
    procBoundary7to6
    {
        type            processor;
        value           nonuniform List<vector> 7((0.552726 0.0133928 -4.51627e-20) (0.638975 0.0154635 -2.32604e-19) (0.724547 0.0169199 -5.92136e-20) (0.805466 0.0178011 -6.90014e-20) (0.87658 0.0170743 -1.24471e-19) (0.930573 0.0166675 -2.56365e-19) (0.960913 0.0120441 -6.55042e-19));
    }
    procBoundary7to14
    {
        type            processor;
        value           uniform (0.468426 0.0109287 8.28837e-19);
    }
    procBoundary7to15
    {
        type            processor;
        value           nonuniform List<vector> 
18
(
(0.413507 0.0189218 -3.66986e-19)
(0.408972 0.0173731 -1.54215e-18)
(0.404496 0.0157165 4.27772e-19)
(0.400102 0.0139632 3.74187e-19)
(0.395814 0.0121247 1.80787e-19)
(0.39166 0.0102093 4.11747e-19)
(0.543215 0.0273543 3.59235e-20)
(0.535623 0.028573 -1.34327e-20)
(0.533059 0.0285256 -6.0281e-21)
(0.527771 0.0288541 -1.99152e-20)
(0.523925 0.0286191 1.50516e-20)
(0.519298 0.0283278 2.07292e-19)
(0.515052 0.0277315 5.31385e-19)
(0.510587 0.026975 1.08636e-19)
(0.506217 0.0260034 6.08064e-19)
(0.501793 0.0248684 -4.06685e-19)
(0.497404 0.0235639 -3.99786e-19)
(0.497404 0.0235639 -3.99786e-19)
)
;
    }
}


// ************************************************************************* //
