/*--------------------------------*- C++ -*----------------------------------*\
  =========                 |
  \\      /  F ield         | OpenFOAM: The Open Source CFD Toolbox
   \\    /   O peration     | Website:  https://openfoam.org
    \\  /    A nd           | Version:  7
     \\/     M anipulation  |
\*---------------------------------------------------------------------------*/
FoamFile
{
    version     2.0;
    format      ascii;
    class       volScalarField;
    location    "6";
    object      p;
}
// * * * * * * * * * * * * * * * * * * * * * * * * * * * * * * * * * * * * * //

dimensions      [0 2 -2 0 0 0 0];

internalField   nonuniform List<scalar> 
4000
(
-0.25652
-0.247671
-0.244773
-0.239602
-0.237179
-0.234194
-0.232771
-0.231367
-0.23162
-0.231912
-0.23514
-0.237715
-0.247306
-0.253982
-0.277333
-0.302798
-0.363322
-0.474762
-0.638575
-1.15768
-0.266013
-0.257726
-0.255219
-0.250852
-0.24912
-0.247105
-0.246725
-0.246737
-0.248586
-0.251033
-0.256654
-0.262857
-0.276397
-0.292007
-0.322564
-0.353681
-0.405781
-0.4174
-0.501614
-0.280808
-0.274847
-0.266961
-0.264884
-0.261202
-0.260235
-0.259228
-0.260088
-0.261667
-0.265384
-0.270385
-0.278958
-0.289855
-0.308459
-0.331911
-0.367893
-0.403498
-0.455334
-0.505923
-0.555481
-0.696997
-0.283218
-0.27585
-0.274292
-0.27137
-0.271294
-0.271438
-0.273685
-0.276963
-0.282645
-0.290278
-0.302039
-0.317552
-0.340475
-0.368046
-0.402202
-0.428795
-0.462455
-0.457435
-0.517665
-0.404733
-0.291237
-0.284532
-0.283584
-0.281519
-0.28242
-0.283777
-0.287427
-0.292428
-0.300188
-0.310521
-0.325409
-0.34472
-0.37052
-0.398835
-0.426795
-0.443311
-0.465123
-0.491126
-0.49989
-0.526371
-0.298891
-0.292943
-0.292676
-0.29157
-0.293548
-0.296259
-0.301552
-0.308648
-0.318951
-0.332312
-0.350199
-0.372077
-0.398282
-0.422938
-0.440009
-0.446303
-0.464831
-0.459523
-0.488676
-0.44358
-0.306133
-0.301012
-0.301484
-0.301417
-0.304556
-0.308709
-0.315622
-0.324551
-0.336806
-0.352248
-0.371975
-0.394988
-0.419879
-0.438442
-0.446983
-0.449653
-0.463171
-0.473271
-0.48176
-0.476333
-0.312919
-0.308687
-0.309955
-0.311035
-0.315468
-0.321251
-0.330068
-0.341325
-0.356321
-0.374655
-0.396506
-0.419815
-0.441374
-0.452174
-0.454481
-0.457268
-0.469115
-0.463665
-0.475394
-0.44414
-0.319226
-0.315958
-0.318084
-0.320432
-0.326211
-0.33362
-0.344101
-0.357013
-0.37333
-0.392294
-0.413558
-0.435471
-0.453099
-0.457588
-0.45789
-0.460617
-0.470172
-0.468425
-0.474133
-0.443942
-0.325005
-0.322784
-0.325839
-0.3296
-0.33683
-0.346076
-0.358586
-0.373965
-0.393205
-0.415157
-0.43857
-0.46132
-0.478622
-0.485407
-0.487172
-0.487585
-0.485524
-0.468679
-0.456585
-0.400561
-0.154308
-0.136796
-0.130304
-0.115441
-0.105218
-0.090177
-0.0764844
-0.0592063
-0.040697
-0.018164
0.0075234
0.0389182
0.0745538
0.118781
0.16678
0.227736
0.284123
0.370247
0.416078
0.558227
-0.1646
-0.147598
-0.141689
-0.127601
-0.118354
-0.10448
-0.0923199
-0.0768581
-0.0608078
-0.0411908
-0.0194255
0.00780531
0.0376889
0.0762257
0.114015
0.170246
0.208327
0.294782
0.310684
0.447552
-0.174798
-0.158579
-0.15314
-0.140134
-0.131828
-0.119326
-0.108666
-0.0950381
-0.0812149
-0.0640643
-0.0453885
-0.0211581
0.00487873
0.0413433
0.0756489
0.132005
0.168915
0.254911
0.276009
0.395896
-0.184927
-0.169557
-0.164528
-0.152512
-0.145118
-0.133849
-0.124578
-0.112643
-0.100943
-0.0862266
-0.0708725
-0.0501145
-0.0294614
0.00286636
0.0283804
0.0821506
0.105058
0.195563
0.202104
0.333915
-0.195127
-0.18062
-0.176008
-0.164957
-0.158448
-0.148425
-0.140567
-0.130392
-0.120929
-0.108837
-0.0970483
-0.0800412
-0.0648071
-0.0370782
-0.0185326
0.0294023
0.0482609
0.12559
0.141421
0.248673
-0.205428
-0.191808
-0.187612
-0.177556
-0.171895
-0.163163
-0.156708
-0.14831
-0.141069
-0.1316
-0.123297
-0.110069
-0.100056
-0.0771873
-0.06569
-0.0226982
-0.013726
0.0685036
0.0708659
0.22403
-0.215767
-0.20306
-0.199248
-0.190203
-0.185342
-0.177896
-0.17277
-0.166113
-0.160986
-0.154174
-0.149203
-0.140123
-0.135142
-0.118905
-0.114039
-0.0829169
-0.0796285
-0.0328207
-0.0200548
0.0531897
-0.226092
-0.214327
-0.210852
-0.202813
-0.198686
-0.192495
-0.188592
-0.183601
-0.180407
-0.175866
-0.173884
-0.168153
-0.168453
-0.156725
-0.159509
-0.128925
-0.136491
-0.0562008
-0.0767283
0.165602
-0.236325
-0.22552
-0.222304
-0.215258
-0.211799
-0.206809
-0.203995
-0.200496
-0.198791
-0.196186
-0.196649
-0.194361
-0.199114
-0.195094
-0.206213
-0.195619
-0.216466
-0.228223
-0.265277
-0.316935
-0.246489
-0.236673
-0.233643
-0.227564
-0.224671
-0.220794
-0.218848
-0.216556
-0.21606
-0.215061
-0.217405
-0.217458
-0.225086
-0.223794
-0.236834
-0.217576
-0.216278
-0.12128
-0.113831
0.218743
-0.246489
-0.236673
-0.233643
-0.227564
-0.224672
-0.220794
-0.218848
-0.216556
-0.21606
-0.215061
-0.217405
-0.217458
-0.225086
-0.223795
-0.236834
-0.217576
-0.216278
-0.12128
-0.113831
0.218743
-0.236325
-0.22552
-0.222304
-0.215258
-0.211799
-0.206809
-0.203995
-0.200496
-0.198792
-0.196186
-0.196649
-0.194361
-0.199114
-0.195094
-0.206213
-0.195619
-0.216466
-0.228223
-0.265277
-0.316935
-0.226092
-0.214327
-0.210852
-0.202813
-0.198686
-0.192495
-0.188592
-0.183601
-0.180407
-0.175866
-0.173884
-0.168153
-0.168453
-0.156725
-0.159509
-0.128925
-0.136491
-0.0562008
-0.0767283
0.165602
-0.215767
-0.20306
-0.199248
-0.190203
-0.185342
-0.177896
-0.17277
-0.166113
-0.160986
-0.154174
-0.149203
-0.140123
-0.135142
-0.118905
-0.114039
-0.082917
-0.0796285
-0.0328207
-0.0200548
0.0531897
-0.205428
-0.191808
-0.187612
-0.177556
-0.171895
-0.163164
-0.156708
-0.14831
-0.141069
-0.1316
-0.123297
-0.110069
-0.100056
-0.0771873
-0.06569
-0.0226982
-0.013726
0.0685036
0.0708659
0.22403
-0.195127
-0.18062
-0.176008
-0.164957
-0.158448
-0.148425
-0.140567
-0.130392
-0.120929
-0.108837
-0.0970483
-0.0800412
-0.0648071
-0.0370782
-0.0185327
0.0294023
0.0482609
0.12559
0.141421
0.248673
-0.184927
-0.169557
-0.164528
-0.152512
-0.145118
-0.133849
-0.124578
-0.112643
-0.100943
-0.0862266
-0.0708725
-0.0501145
-0.0294614
0.00286634
0.0283804
0.0821506
0.105058
0.195563
0.202104
0.333915
-0.174798
-0.158579
-0.15314
-0.140134
-0.131828
-0.119326
-0.108666
-0.0950381
-0.0812149
-0.0640643
-0.0453885
-0.0211581
0.00487871
0.0413433
0.0756489
0.132005
0.168915
0.254911
0.276009
0.395895
-0.1646
-0.147598
-0.141689
-0.127601
-0.118354
-0.10448
-0.0923199
-0.0768581
-0.0608078
-0.0411908
-0.0194255
0.00780529
0.0376889
0.0762257
0.114015
0.170246
0.208327
0.294782
0.310684
0.447552
-0.154308
-0.136796
-0.130304
-0.115441
-0.105218
-0.090177
-0.0764844
-0.0592063
-0.040697
-0.018164
0.00752337
0.0389182
0.0745537
0.118781
0.16678
0.227736
0.284123
0.370247
0.416078
0.558227
-0.325006
-0.322784
-0.325839
-0.3296
-0.33683
-0.346076
-0.358587
-0.373965
-0.393205
-0.415157
-0.43857
-0.46132
-0.478622
-0.485407
-0.487172
-0.487585
-0.485524
-0.468679
-0.456585
-0.400561
-0.319226
-0.315958
-0.318084
-0.320432
-0.326211
-0.33362
-0.344102
-0.357013
-0.37333
-0.392294
-0.413558
-0.435471
-0.453099
-0.457588
-0.457891
-0.460617
-0.470172
-0.468425
-0.474133
-0.443942
-0.312919
-0.308687
-0.309955
-0.311035
-0.315469
-0.321251
-0.330069
-0.341325
-0.356321
-0.374655
-0.396506
-0.419815
-0.441374
-0.452174
-0.454481
-0.457268
-0.469115
-0.463665
-0.475394
-0.44414
-0.306133
-0.301012
-0.301484
-0.301417
-0.304556
-0.308709
-0.315622
-0.324551
-0.336806
-0.352248
-0.371975
-0.394988
-0.419879
-0.438442
-0.446983
-0.449653
-0.463171
-0.473271
-0.48176
-0.476333
-0.298892
-0.292943
-0.292676
-0.29157
-0.293548
-0.296259
-0.301552
-0.308648
-0.318951
-0.332312
-0.350199
-0.372077
-0.398282
-0.422938
-0.440009
-0.446303
-0.464831
-0.459523
-0.488676
-0.44358
-0.291237
-0.284532
-0.283584
-0.281519
-0.28242
-0.283777
-0.287427
-0.292428
-0.300188
-0.310521
-0.325409
-0.34472
-0.37052
-0.398835
-0.426795
-0.443311
-0.465123
-0.491126
-0.49989
-0.526371
-0.283218
-0.27585
-0.274292
-0.27137
-0.271294
-0.271439
-0.273685
-0.276964
-0.282645
-0.290278
-0.302039
-0.317552
-0.340475
-0.368046
-0.402202
-0.428795
-0.462455
-0.457435
-0.517665
-0.404733
-0.274847
-0.266961
-0.264884
-0.261202
-0.260235
-0.259228
-0.260088
-0.261667
-0.265384
-0.270385
-0.278958
-0.289855
-0.308459
-0.331911
-0.367893
-0.403498
-0.455334
-0.505923
-0.555481
-0.696997
-0.266013
-0.257726
-0.255219
-0.250852
-0.24912
-0.247105
-0.246726
-0.246737
-0.248586
-0.251033
-0.256654
-0.262857
-0.276397
-0.292007
-0.322564
-0.353681
-0.405781
-0.4174
-0.501614
-0.280808
-0.25652
-0.247671
-0.244773
-0.239602
-0.237179
-0.234194
-0.232771
-0.231367
-0.23162
-0.231912
-0.23514
-0.237715
-0.247306
-0.253982
-0.277333
-0.302798
-0.363322
-0.474762
-0.638575
-1.15768
-0.121162
-0.102955
-0.0943302
-0.0796954
-0.0669031
-0.0519457
-0.0362996
-0.0188924
0.000398517
0.022083
0.0466021
0.0746353
0.106836
0.14387
0.185758
0.232757
0.282956
0.337603
0.38792
0.436935
-0.0776673
-0.0613464
-0.0526891
-0.0387674
-0.0255879
-0.0104253
0.00607032
0.0242671
0.0442332
0.0661346
0.090025
0.115913
0.143651
0.172986
0.20346
0.234488
0.264495
0.294362
0.316229
0.337883
-0.0409647
-0.0265683
-0.0189738
-0.0070106
0.00419687
0.016722
0.0299808
0.0441545
0.0592868
0.0754227
0.0925634
0.110642
0.129534
0.148982
0.168626
0.187769
0.205934
0.221619
0.233931
0.241562
-0.0134302
-0.00148362
0.00505193
0.015361
0.025136
0.0360387
0.047537
0.0596836
0.0724105
0.0856228
0.0991972
0.112978
0.126754
0.140278
0.153223
0.165264
0.175878
0.184746
0.191046
0.194653
0.00768542
0.0170212
0.0220389
0.0299073
0.0372282
0.0453008
0.0537056
0.0624714
0.0715461
0.0808574
0.0903157
0.099803
0.109175
0.118245
0.126807
0.134589
0.141358
0.14677
0.150624
0.15264
0.0235932
0.0310511
0.0351137
0.0414929
0.0474466
0.0539918
0.0607461
0.0677112
0.0748098
0.0819575
0.0890602
0.0960141
0.102704
0.109007
0.114788
0.119916
0.124241
0.127644
0.129985
0.131189
0.0350393
0.0404557
0.0433877
0.0479828
0.0522511
0.0569192
0.061715
0.0666377
0.0716338
0.0766441
0.0816041
0.0864409
0.0910747
0.0954181
0.0993808
0.102867
0.105792
0.108068
0.109632
0.110429
0.0437762
0.0480602
0.0503755
0.0540125
0.0573706
0.0610322
0.0647627
0.0685589
0.072369
0.0761419
0.0798249
0.0833632
0.086701
0.0897829
0.0925534
0.0949606
0.096954
0.0984921
0.0995378
0.100067
0.0498244
0.0528001
0.0544233
0.0569609
0.0593164
0.0618786
0.0644921
0.0671517
0.069822
0.0724674
0.075051
0.0775341
0.079877
0.0820394
0.0839819
0.0856666
0.0870603
0.0881331
0.0888625
0.0892316
0.054521
0.0568919
0.0581667
0.0601659
0.0620011
0.063991
0.066004
0.0680374
0.0700615
0.0720484
0.0739703
0.0757993
0.0775083
0.0790713
0.0804635
0.0816623
0.0826476
0.0834024
0.0839132
0.084171
0.057711
0.0593073
0.0601767
0.0615434
0.062807
0.0641809
0.0655763
0.0669902
0.0684022
0.0697923
0.0711408
0.0724277
0.073633
0.0747373
0.0757225
0.0765715
0.0772697
0.0778047
0.0781671
0.0783499
0.0602088
0.0614984
0.062189
0.063271
0.0642606
0.0653301
0.066408
0.0674925
0.0685677
0.0696185
0.0706304
0.0715893
0.0724813
0.0732935
0.0740141
0.0746321
0.0751384
0.0755252
0.0757865
0.0759181
0.0618775
0.0627274
0.0631892
0.0639183
0.0645903
0.0653213
0.0660619
0.066811
0.067557
0.0682893
0.0689974
0.0696709
0.0702994
0.0708734
0.0713837
0.0718223
0.0721821
0.0724572
0.0726432
0.072737
0.0632227
0.0639248
0.0642953
0.0648828
0.0654151
0.065992
0.0665711
0.0671528
0.0677281
0.068289
0.0688279
0.0693374
0.0698102
0.0702398
0.0706202
0.0709459
0.0712123
0.0714155
0.0715527
0.0716218
0.0640707
0.0645284
0.0647741
0.0651668
0.0655259
0.0659179
0.0663143
0.0667149
0.0671134
0.0675041
0.0678814
0.0682395
0.0685734
0.0688777
0.069148
0.06938
0.0695701
0.0697154
0.0698136
0.069863
0.0648033
0.0651946
0.0653973
0.0657239
0.0660164
0.0663349
0.0666536
0.0669734
0.0672894
0.0675971
0.0678924
0.0681711
0.0684296
0.0686641
0.0688716
0.069049
0.069194
0.0693046
0.0693792
0.0694168
0.0652266
0.0654856
0.0656162
0.0658397
0.0660361
0.0662564
0.0664769
0.0667006
0.0669231
0.0671413
0.0673521
0.0675522
0.0677387
0.0679088
0.0680597
0.0681892
0.0682954
0.0683764
0.0684312
0.0684588
0.0656073
0.0658382
0.0659575
0.0661507
0.0663238
0.0665127
0.0667024
0.0668928
0.0670815
0.0672655
0.0674423
0.0676095
0.0677647
0.0679056
0.0680304
0.0681371
0.0682243
0.0682909
0.0683357
0.0683583
0.0658141
0.0659517
0.0660235
0.0661519
0.0662671
0.0663994
0.0665343
0.0666728
0.0668122
0.0669503
0.0670846
0.0672129
0.0673331
0.0674431
0.0675411
0.0676254
0.0676945
0.0677474
0.0677831
0.0678011
0.0659947
0.0661299
0.066218
0.0663455
0.0664731
0.0666097
0.0667511
0.066895
0.0670391
0.0671812
0.067319
0.0674502
0.0675726
0.0676843
0.0677834
0.0678684
0.0679379
0.067991
0.0680268
0.0680449
0.000683942
0.000685423
0.000686737
0.000688198
0.000689769
0.000691414
0.000693096
0.000694783
0.000696444
0.000698053
0.000699586
0.000701023
0.000702345
0.000703537
0.000704585
0.000705476
0.000706202
0.000706753
0.000707124
0.000707311
0.0020507
0.00205435
0.00205752
0.00206095
0.00206456
0.00206829
0.00207208
0.00207586
0.00207959
0.00208321
0.00208667
0.00208993
0.00209293
0.00209565
0.00209804
0.00210008
0.00210175
0.00210301
0.00210386
0.00210429
0.00341646
0.00342269
0.00342808
0.003434
0.00344026
0.00344673
0.00345329
0.00345986
0.00346632
0.00347258
0.00347857
0.00348419
0.00348937
0.00349406
0.00349819
0.0035017
0.00350457
0.00350675
0.00350822
0.00350896
0.00477941
0.00478869
0.00479644
0.00480499
0.00481398
0.00482322
0.00483256
0.00484187
0.00485102
0.00485988
0.00486834
0.00487627
0.00488359
0.00489019
0.00489601
0.00490097
0.004905
0.00490807
0.00491014
0.00491118
0.006139
0.00615234
0.00616303
0.00617496
0.00618742
0.00620019
0.00621306
0.00622587
0.00623842
0.00625055
0.00626211
0.00627294
0.00628292
0.00629192
0.00629983
0.00630658
0.00631206
0.00631623
0.00631904
0.00632045
0.00749406
0.00751245
0.00752663
0.00754257
0.00755909
0.00757592
0.00759283
0.00760959
0.00762598
0.00764178
0.0076568
0.00767086
0.00768379
0.00769545
0.00770569
0.0077144
0.00772149
0.00772688
0.0077305
0.00773232
0.00884373
0.00886865
0.00888716
0.00890816
0.00892976
0.00895164
0.00897355
0.00899519
0.00901629
0.0090366
0.00905587
0.00907387
0.00909041
0.0091053
0.00911836
0.00912947
0.00913851
0.00914537
0.00914998
0.0091523
0.010187
0.0102201
0.0102439
0.010271
0.0102988
0.0103267
0.0103546
0.010382
0.0104087
0.0104343
0.0104585
0.0104812
0.0105019
0.0105205
0.0105369
0.0105508
0.0105621
0.0105707
0.0105764
0.0105793
0.0115228
0.0115663
0.0115965
0.0116314
0.0116666
0.0117019
0.0117371
0.0117716
0.011805
0.011837
0.0118673
0.0118955
0.0119213
0.0119445
0.0119648
0.011982
0.011996
0.0120066
0.0120137
0.0120173
0.0128503
0.0129066
0.0129445
0.0129888
0.0130331
0.0130774
0.0131213
0.0131642
0.0132057
0.0132454
0.0132828
0.0133176
0.0133494
0.0133779
0.0134029
0.013424
0.0134412
0.0134542
0.013463
0.0134674
0.0141683
0.0142404
0.0142878
0.0143436
0.0143989
0.0144541
0.0145085
0.0145616
0.0146128
0.0146616
0.0147075
0.0147502
0.0147891
0.014824
0.0148545
0.0148803
0.0149013
0.0149172
0.0149279
0.0149332
0.0154758
0.0155674
0.015626
0.0156959
0.0157645
0.0158326
0.0158996
0.0159648
0.0160275
0.0160872
0.0161433
0.0161952
0.0162426
0.016285
0.016322
0.0163534
0.0163788
0.0163981
0.016411
0.0164175
0.0167719
0.0168872
0.0169594
0.0170461
0.0171306
0.0172142
0.0172962
0.0173759
0.0174523
0.0175249
0.0175929
0.0176559
0.0177133
0.0177645
0.0178093
0.0178471
0.0178778
0.017901
0.0179166
0.0179244
0.0180556
0.0181996
0.0182879
0.0183948
0.0184983
0.0186003
0.0187002
0.0187969
0.0188896
0.0189773
0.0190595
0.0191355
0.0192046
0.0192662
0.01932
0.0193655
0.0194023
0.0194301
0.0194488
0.0194582
0.0193263
0.0195048
0.0196121
0.0197432
0.0198691
0.019993
0.0201139
0.0202308
0.0203424
0.0204481
0.0205469
0.020638
0.0207208
0.0207947
0.0208591
0.0209134
0.0209574
0.0209907
0.021013
0.0210242
0.0205834
0.0208029
0.0209327
0.0210924
0.0212447
0.0213943
0.0215401
0.0216805
0.0218145
0.0219411
0.0220592
0.0221681
0.0222669
0.022355
0.0224317
0.0224964
0.0225487
0.0225883
0.0226149
0.0226282
0.0218266
0.0220946
0.0222509
0.0224442
0.0226276
0.0228072
0.022982
0.02315
0.02331
0.0234609
0.0236016
0.0237311
0.0238485
0.0239531
0.024044
0.0241208
0.0241829
0.0242298
0.0242612
0.024277
0.023056
0.0233811
0.0235681
0.0238008
0.0240203
0.0242351
0.0244435
0.0246435
0.0248337
0.0250128
0.0251795
0.0253329
0.0254719
0.0255956
0.0257031
0.0257938
0.0258671
0.0259225
0.0259596
0.0259782
0.0242721
0.0246636
0.0248865
0.025165
0.0254264
0.0256817
0.025929
0.026166
0.0263911
0.0266027
0.0267996
0.0269805
0.0271443
0.0272899
0.0274165
0.0275233
0.0276096
0.0276748
0.0277185
0.0277404
0.0254759
0.0259444
0.0262087
0.0265398
0.0268495
0.0271515
0.0274437
0.0277231
0.0279882
0.0282371
0.0284686
0.028681
0.0288733
0.0290443
0.0291929
0.0293182
0.0294194
0.0294959
0.0295472
0.0295729
0.0266693
0.0272258
0.0275377
0.0279291
0.0282941
0.0286495
0.0289928
0.0293208
0.0296315
0.0299232
0.030194
0.0304427
0.0306676
0.0308676
0.0310414
0.031188
0.0313065
0.031396
0.0314561
0.0314862
0.0278547
0.0285112
0.0288775
0.029337
0.0297649
0.0301809
0.0305823
0.0309654
0.031328
0.0316681
0.0319838
0.0322736
0.0325359
0.032769
0.0329718
0.0331429
0.0332813
0.0333859
0.0334561
0.0334913
0.0290356
0.0298042
0.0302321
0.0307681
0.0312669
0.0317511
0.032218
0.0326632
0.0330843
0.0334791
0.0338457
0.0341823
0.034487
0.0347581
0.0349941
0.0351935
0.0353548
0.0354769
0.0355588
0.0356
0.0302161
0.0311089
0.0316062
0.0322269
0.0328049
0.0333652
0.0339052
0.0344199
0.0349066
0.035363
0.035787
0.0361765
0.0365294
0.036844
0.0371182
0.0373501
0.0375381
0.0376806
0.0377763
0.0378244
0.031401
0.0324296
0.033004
0.0337175
0.0343831
0.0350275
0.0356485
0.0362403
0.0368
0.0373252
0.0378135
0.0382628
0.0386707
0.0390349
0.0393531
0.0396229
0.039842
0.0400085
0.0401204
0.0401767
0.0325955
0.0337699
0.0344294
0.0352428
0.0360043
0.0367405
0.0374502
0.0381268
0.0387672
0.0393689
0.0399292
0.0404458
0.0409161
0.0413373
0.0417064
0.0420205
0.0422763
0.0424711
0.0426025
0.0426686
0.0338046
0.0351325
0.0358842
0.0368038
0.0376685
0.0385039
0.0393096
0.0400788
0.0408077
0.0414938
0.0421344
0.0427269
0.0432681
0.0437549
0.0441833
0.0445494
0.0448488
0.0450776
0.0452323
0.0453103
0.0350316
0.0365175
0.0373677
0.0383978
0.039372
0.0403131
0.0412217
0.0420908
0.0429162
0.0436952
0.0444251
0.0451029
0.0457251
0.0462876
0.0467853
0.047213
0.0475646
0.0478346
0.0480177
0.0481103
0.0362776
0.0379212
0.0388746
0.0400174
0.0411057
0.0421577
0.0431753
0.0441512
0.0450811
0.0459621
0.0467913
0.0475653
0.04828
0.0489303
0.0495096
0.0500106
0.0504253
0.0507453
0.0509634
0.051074
0.0375391
0.0393344
0.0403933
0.041648
0.0428528
0.0440195
0.0451511
0.0462406
0.0472833
0.048276
0.0492158
0.0500986
0.0509196
0.0516721
0.0523478
0.0529367
0.0534276
0.0538089
0.0540702
0.0542031
0.0388067
0.0407407
0.0419042
0.0432667
0.0445876
0.0458711
0.0471208
0.0483304
0.0494946
0.0506101
0.0516735
0.0526801
0.0536237
0.0544959
0.0552858
0.0559801
0.0565635
0.05702
0.0573346
0.0574951
0.0400632
0.0421143
0.0433778
0.04484
0.0462735
0.047674
0.0490451
0.0503812
0.0516768
0.052928
0.0541306
0.055279
0.0563651
0.0573782
0.058304
0.059125
0.0598207
0.060369
0.0607491
0.0609439
0.041281
0.0434183
0.044773
0.0463226
0.0478619
0.0493776
0.0508725
0.0523421
0.0537805
0.0551829
0.056544
0.0578564
0.0591096
0.0602897
0.061378
0.0623515
0.0631831
0.0638433
0.0643036
0.0645404
0.0424209
0.0446029
0.0460353
0.0476553
0.0492904
0.0509175
0.0525383
0.0541492
0.055744
0.0573167
0.0588602
0.0603646
0.0618159
0.0631956
0.0644794
0.0656372
0.0666333
0.0674293
0.0679871
0.0682752
0.0434286
0.0456022
0.0470939
0.0487627
0.0504801
0.052213
0.0539616
0.055723
0.0574909
0.0592576
0.0610136
0.0627453
0.0644341
0.0660551
0.0675761
0.0689577
0.0701538
0.0711144
0.0717903
0.0721403
0.0442308
0.0463303
0.0478571
0.0495487
0.0513306
0.053162
0.0550403
0.0569635
0.058925
0.0609154
0.0629219
0.0649261
0.0669028
0.0688184
0.0706303
0.0722864
0.0737267
0.0748873
0.0757059
0.0761305
0.0447299
0.046675
0.0482051
0.0498903
0.0517132
0.0536334
0.0556435
0.057742
0.0599225
0.0621736
0.0644783
0.0668121
0.0691412
0.0714205
0.0735928
0.0755887
0.0773301
0.0787352
0.0797268
0.0802411
0.0448003
0.0464905
0.0479823
0.0496287
0.0514624
0.0534567
0.0555997
0.0578892
0.0603191
0.0628762
0.0655385
0.068274
0.0710375
0.0737688
0.0763911
0.0788118
0.0809276
0.0826341
0.0838363
0.0844589
0.0442853
0.0455966
0.0469875
0.0485515
0.0503611
0.0524082
0.0546818
0.0571788
0.0598932
0.06281
0.065902
0.0691277
0.072428
0.0757229
0.0789094
0.0818633
0.084448
0.0865286
0.087989
0.088743
0.0429595
0.0437729
0.0449519
0.0463817
0.0481264
0.0501969
0.0525917
0.0553096
0.0583449
0.061681
0.0652856
0.0691066
0.0730675
0.0770628
0.0809552
0.0845784
0.0877505
0.090297
0.0920756
0.0929895
0.0404539
0.0407253
0.041579
0.0427827
0.0444041
0.0464558
0.0489482
0.0518877
0.0552719
0.0590844
0.0632884
0.0678206
0.0725838
0.0774403
0.0822076
0.0866642
0.0905685
0.0936933
0.0958635
0.0969725
0.0364786
0.0360551
0.0365231
0.0373762
0.0387815
0.0407397
0.0432745
0.0464063
0.0501402
0.0544645
0.0593414
0.064697
0.0704106
0.0763038
0.0821363
0.0876142
0.0924184
0.0962534
0.098902
0.100248
0.0309354
0.0294561
0.0294508
0.0297538
0.0307902
0.0325178
0.0349784
0.038212
0.0422377
0.0470553
0.0526333
0.0588913
0.0656834
0.0727829
0.0798759
0.0865755
0.092463
0.0971547
0.100379
0.102009
0.0235704
0.020555
0.0199442
0.0194066
0.019859
0.0211322
0.0233088
0.0264532
0.0306081
0.0357952
0.0420019
0.0491523
0.0570794
0.0655032
0.0740228
0.0821364
0.0892991
0.095013
0.0989318
0.100906
0.0140155
0.00891124
0.00753421
0.00575362
0.00532363
0.00578826
0.00732906
0.010032
0.0139768
0.0192267
0.0258014
0.0336515
0.0426035
0.052326
0.0623224
0.0719559
0.0805273
0.0873947
0.0921091
0.0944822
0.00181793
-0.00598864
-0.00832032
-0.0118672
-0.013584
-0.0144617
-0.0141103
-0.0124445
-0.00932624
-0.00462224
0.00175101
0.00980132
0.0193968
0.0301858
0.0415866
0.0528154
0.0629773
0.0712224
0.0769298
0.0798153
-0.0134919
-0.0246453
-0.0281617
-0.0341314
-0.0376771
-0.0406611
-0.0423241
-0.042634
-0.0413761
-0.0383124
-0.0332457
-0.0260643
-0.0167889
-0.00570762
0.00655618
0.0190868
0.0307732
0.0404919
0.0473512
0.0508567
-0.03243
-0.0475516
-0.0525391
-0.061713
-0.0677903
-0.0738978
-0.0787261
-0.0823602
-0.0845067
-0.0847813
-0.0827902
-0.0781662
-0.0707118
-0.06048
-0.0480093
-0.034352
-0.0209293
-0.00930864
-0.00085688
0.00356231
-0.0555166
-0.0750916
-0.0818829
-0.0951117
-0.104578
-0.115101
-0.124612
-0.133458
-0.141223
-0.147349
-0.151126
-0.151758
-0.148563
-0.141278
-0.130121
-0.116164
-0.101176
-0.0873079
-0.0767513
-0.0710959
-0.0829317
-0.107241
-0.116151
-0.134225
-0.147942
-0.164253
-0.180119
-0.196386
-0.212429
-0.227459
-0.240197
-0.249055
-0.252564
-0.249901
-0.241037
-0.227024
-0.210165
-0.193606
-0.180237
-0.172847
-0.114057
-0.143265
-0.154543
-0.178111
-0.196778
-0.220101
-0.243863
-0.269721
-0.296727
-0.323824
-0.348846
-0.369063
-0.381991
-0.386104
-0.381109
-0.367755
-0.349046
-0.328817
-0.311983
-0.302348
-0.146887
-0.181755
-0.19518
-0.224732
-0.248513
-0.279425
-0.31176
-0.348272
-0.387459
-0.427859
-0.466022
-0.49792
-0.520262
-0.531232
-0.530388
-0.518312
-0.4983
-0.475032
-0.454839
-0.443042
-0.182456
-0.222251
-0.236494
-0.271737
-0.299653
-0.337525
-0.37753
-0.423909
-0.474248
-0.526617
-0.57611
-0.617665
-0.647778
-0.664907
-0.668379
-0.658508
-0.637912
-0.612817
-0.590235
-0.576891
-0.222186
-0.262424
-0.277823
-0.315551
-0.345754
-0.388342
-0.432949
-0.485847
-0.543239
-0.602779
-0.658312
-0.704333
-0.737988
-0.758615
-0.765298
-0.757787
-0.738377
-0.712885
-0.689195
-0.674914
-0.263351
-0.299121
-0.316114
-0.351602
-0.383064
-0.425238
-0.471654
-0.525754
-0.585005
-0.646353
-0.703058
-0.749494
-0.783694
-0.805939
-0.814943
-0.809295
-0.790731
-0.766187
-0.742682
-0.728395
-0.30047
-0.329231
-0.346402
-0.376603
-0.407305
-0.445587
-0.489782
-0.540485
-0.596268
-0.65291
-0.704292
-0.745002
-0.77461
-0.794278
-0.803107
-0.798489
-0.781754
-0.757645
-0.734472
-0.720049
-0.328868
-0.349463
-0.365071
-0.38886
-0.415978
-0.448671
-0.487295
-0.53162
-0.580466
-0.630035
-0.674297
-0.708021
-0.731175
-0.745952
-0.752335
-0.747843
-0.731771
-0.709078
-0.687012
-0.672841
-0.345382
-0.358105
-0.370983
-0.388494
-0.410102
-0.435743
-0.465754
-0.499703
-0.536324
-0.572375
-0.602434
-0.62263
-0.633586
-0.639666
-0.642524
-0.638876
-0.627903
-0.609797
-0.590824
-0.577119
-0.348286
-0.354436
-0.363964
-0.376584
-0.393145
-0.413341
-0.437398
-0.465047
-0.495426
-0.526031
-0.552598
-0.569812
-0.576982
-0.57975
-0.581009
-0.579452
-0.569328
-0.54983
-0.529134
-0.508124
-0.337564
-0.338283
-0.343641
-0.351022
-0.361658
-0.37509
-0.391393
-0.409924
-0.429544
-0.447444
-0.457614
-0.45575
-0.44426
-0.434632
-0.433039
-0.435343
-0.440413
-0.439351
-0.431208
-0.41763
0.0659947
0.0661298
0.0662179
0.0663455
0.066473
0.0666096
0.066751
0.0668949
0.067039
0.0671811
0.0673189
0.0674501
0.0675725
0.0676842
0.0677833
0.0678683
0.0679379
0.067991
0.0680268
0.0680449
0.065814
0.0659516
0.0660235
0.0661519
0.066267
0.0663993
0.0665342
0.0666727
0.0668122
0.0669502
0.0670845
0.0672129
0.0673331
0.0674431
0.0675411
0.0676253
0.0676945
0.0677474
0.0677831
0.0678011
0.0656072
0.0658381
0.0659574
0.0661507
0.0663237
0.0665126
0.0667023
0.0668928
0.0670814
0.0672654
0.0674423
0.0676095
0.0677647
0.0679056
0.0680303
0.0681371
0.0682243
0.0682909
0.0683357
0.0683583
0.0652266
0.0654856
0.0656161
0.0658397
0.0660361
0.0662563
0.0664769
0.0667006
0.0669231
0.0671413
0.0673521
0.0675522
0.0677387
0.0679087
0.0680597
0.0681892
0.0682953
0.0683764
0.0684312
0.0684588
0.0648033
0.0651946
0.0653973
0.0657239
0.0660163
0.0663349
0.0666535
0.0669734
0.0672893
0.0675971
0.0678923
0.0681711
0.0684296
0.0686641
0.0688715
0.069049
0.069194
0.0693046
0.0693792
0.0694168
0.0640706
0.0645284
0.0647741
0.0651668
0.0655259
0.0659179
0.0663143
0.0667149
0.0671134
0.0675041
0.0678813
0.0682395
0.0685733
0.0688777
0.069148
0.06938
0.0695701
0.0697154
0.0698136
0.069863
0.0632226
0.0639248
0.0642952
0.0648828
0.0654151
0.0659919
0.0665711
0.0671527
0.067728
0.068289
0.0688279
0.0693374
0.0698102
0.0702398
0.0706202
0.0709459
0.0712123
0.0714155
0.0715527
0.0716218
0.0618775
0.0627274
0.0631892
0.0639183
0.0645903
0.0653213
0.0660619
0.066811
0.067557
0.0682893
0.0689974
0.0696709
0.0702994
0.0708734
0.0713837
0.0718223
0.0721821
0.0724572
0.0726432
0.072737
0.0602088
0.0614984
0.062189
0.063271
0.0642606
0.0653302
0.066408
0.0674925
0.0685677
0.0696185
0.0706305
0.0715893
0.0724813
0.0732935
0.0740141
0.0746322
0.0751384
0.0755252
0.0757865
0.0759181
0.057711
0.0593074
0.0601767
0.0615434
0.062807
0.064181
0.0655763
0.0669903
0.0684022
0.0697923
0.0711408
0.0724277
0.073633
0.0747374
0.0757225
0.0765715
0.0772697
0.0778047
0.0781671
0.0783499
0.0545211
0.0568919
0.0581667
0.060166
0.0620012
0.063991
0.066004
0.0680374
0.0700616
0.0720485
0.0739703
0.0757993
0.0775084
0.0790713
0.0804635
0.0816623
0.0826476
0.0834024
0.0839132
0.084171
0.0498244
0.0528001
0.0544234
0.056961
0.0593165
0.0618787
0.0644922
0.0671518
0.0698221
0.0724674
0.075051
0.0775341
0.079877
0.0820394
0.0839819
0.0856667
0.0870603
0.0881331
0.0888625
0.0892316
0.0437762
0.0480603
0.0503756
0.0540125
0.0573707
0.0610323
0.0647628
0.0685589
0.0723691
0.076142
0.0798249
0.0833632
0.0867011
0.089783
0.0925535
0.0949606
0.096954
0.0984922
0.0995378
0.100067
0.0350393
0.0404558
0.0433877
0.0479829
0.0522511
0.0569193
0.061715
0.0666377
0.0716339
0.0766442
0.0816042
0.0864409
0.0910748
0.0954181
0.0993809
0.102867
0.105792
0.108068
0.109632
0.110429
0.0235932
0.0310511
0.0351137
0.0414929
0.0474466
0.0539918
0.0607462
0.0677112
0.0748099
0.0819575
0.0890602
0.0960142
0.102704
0.109007
0.114788
0.119916
0.124241
0.127644
0.129985
0.131189
0.00768546
0.0170212
0.0220389
0.0299073
0.0372282
0.0453009
0.0537056
0.0624715
0.0715461
0.0808574
0.0903158
0.099803
0.109175
0.118245
0.126807
0.134589
0.141358
0.14677
0.150624
0.15264
-0.0134302
-0.00148358
0.00505196
0.0153611
0.0251361
0.0360387
0.047537
0.0596837
0.0724105
0.0856228
0.0991973
0.112978
0.126754
0.140278
0.153223
0.165264
0.175878
0.184746
0.191046
0.194653
-0.0409647
-0.0265683
-0.0189738
-0.00701058
0.00419689
0.016722
0.0299808
0.0441545
0.0592868
0.0754227
0.0925634
0.110642
0.129534
0.148982
0.168626
0.187769
0.205934
0.221619
0.233931
0.241562
-0.0776672
-0.0613464
-0.0526891
-0.0387674
-0.0255879
-0.0104253
0.00607034
0.0242671
0.0442332
0.0661347
0.090025
0.115913
0.143651
0.172986
0.20346
0.234488
0.264495
0.294362
0.316229
0.337883
-0.121162
-0.102955
-0.0943301
-0.0796954
-0.0669031
-0.0519457
-0.0362995
-0.0188924
0.000398538
0.022083
0.0466021
0.0746353
0.106836
0.143871
0.185758
0.232757
0.282956
0.337603
0.38792
0.436935
-0.337563
-0.338283
-0.343641
-0.351022
-0.361658
-0.37509
-0.391393
-0.409924
-0.429544
-0.447444
-0.457614
-0.45575
-0.44426
-0.434632
-0.433039
-0.435343
-0.440413
-0.439351
-0.431208
-0.41763
-0.348286
-0.354435
-0.363964
-0.376584
-0.393145
-0.41334
-0.437398
-0.465046
-0.495426
-0.526031
-0.552597
-0.569812
-0.576982
-0.57975
-0.581008
-0.579452
-0.569328
-0.54983
-0.529134
-0.508124
-0.345382
-0.358105
-0.370983
-0.388494
-0.410102
-0.435743
-0.465754
-0.499703
-0.536324
-0.572375
-0.602434
-0.62263
-0.633586
-0.639666
-0.642524
-0.638876
-0.627903
-0.609797
-0.590824
-0.577119
-0.328868
-0.349463
-0.365071
-0.38886
-0.415978
-0.448671
-0.487295
-0.53162
-0.580466
-0.630035
-0.674297
-0.708021
-0.731175
-0.745952
-0.752335
-0.747843
-0.731771
-0.709078
-0.687012
-0.672841
-0.30047
-0.329231
-0.346402
-0.376603
-0.407305
-0.445587
-0.489782
-0.540485
-0.596268
-0.65291
-0.704292
-0.745002
-0.77461
-0.794278
-0.803107
-0.798489
-0.781754
-0.757645
-0.734472
-0.720049
-0.263351
-0.299121
-0.316114
-0.351602
-0.383064
-0.425238
-0.471654
-0.525754
-0.585005
-0.646353
-0.703058
-0.749494
-0.783694
-0.805939
-0.814943
-0.809295
-0.790731
-0.766187
-0.742682
-0.728395
-0.222186
-0.262424
-0.277823
-0.315551
-0.345754
-0.388342
-0.432949
-0.485847
-0.543239
-0.602779
-0.658312
-0.704333
-0.737988
-0.758615
-0.765298
-0.757787
-0.738377
-0.712885
-0.689195
-0.674914
-0.182456
-0.222251
-0.236494
-0.271737
-0.299653
-0.337525
-0.37753