/*--------------------------------*- C++ -*----------------------------------*\
  =========                 |
  \\      /  F ield         | OpenFOAM: The Open Source CFD Toolbox
   \\    /   O peration     | Website:  https://openfoam.org
    \\  /    A nd           | Version:  7
     \\/     M anipulation  |
\*---------------------------------------------------------------------------*/
FoamFile
{
    version     2.0;
    format      ascii;
    class       surfaceScalarField;
    location    "120";
    object      phi;
}
// * * * * * * * * * * * * * * * * * * * * * * * * * * * * * * * * * * * * * //

dimensions      [0 3 -1 0 0 0 0];

internalField   nonuniform List<scalar> 
205
(
0.0037876
4.52925e-06
0.0037883
-7.93124e-07
0.00378585
1.49982e-05
0.00378565
1.02787e-05
0.00378175
2.44561e-05
0.00377953
3.17503e-05
0.0037728
4.31507e-05
0.0037662
7.48756e-05
0.00375379
8.12237e-05
0.00373777
0.000162646
0.00371326
0.000162719
0.00367684
0.000345465
0.00362478
0.000346123
0.00354226
0.000749167
0.00342082
0.00079657
0.00322309
0.00175353
0.00823173
5.02742e-06
0.00823005
8.92289e-07
0.0082293
1.57502e-05
0.00822478
1.47949e-05
0.00822219
2.70438e-05
0.00821304
4.08996e-05
0.00820665
4.9541e-05
0.00818877
9.27553e-05
0.00817405
9.59529e-05
0.00813932
0.000197373
0.00810653
0.000195507
0.00803857
0.000413423
0.00796626
0.00041843
0.00783126
0.000884174
0.00767113
0.000956695
0.00202286
0.00823189
5.36832e-06
0.0082299
2.88515e-06
0.00822955
1.60988e-05
0.00822514
1.92079e-05
0.00822278
2.94002e-05
0.00821435
4.93336e-05
0.00820798
5.59087e-05
0.00819189
0.000108842
0.00817696
0.000110882
0.00814611
0.00022823
0.00811307
0.000228548
0.00805325
0.00047324
0.00798208
0.000489594
0.00786515
0.0010011
0.00771604
0.00110581
0.002247
0.0082317
5.90585e-06
0.0082303
4.27719e-06
0.00822945
1.69549e-05
0.00822603
2.26227e-05
0.00822312
3.23135e-05
0.00821629
5.61629e-05
0.00820931
6.28837e-05
0.0081959
0.000122262
0.0081805
0.000126275
0.00815424
0.000254495
0.00812165
0.000261131
0.00807017
0.000524729
0.00800329
0.000556467
0.00790259
0.00110181
0.00777387
0.00123452
0.00243661
0.00823173
6.40416e-06
0.00823056
5.44907e-06
0.00822963
1.78835e-05
0.0082268
2.54612e-05
0.00822391
3.51979e-05
0.0082181
6.19697e-05
0.00821144
6.95489e-05
0.00819981
0.000133889
0.00818549
0.000140595
0.00816242
0.000277567
0.00813303
0.000290516
0.00808743
0.000570332
0.00803002
0.000613882
0.00794075
0.00119108
0.00784143
0.00133384
0.00260129
0.00823193
6.71051e-06
0.00823077
6.60867e-06
0.0082301
1.85468e-05
0.00822744
2.81208e-05
0.00822516
3.74791e-05
0.00821977
6.73633e-05
0.00821435
7.49725e-05
0.00820357
0.00014466
0.00819186
0.000152309
0.00817052
0.000298905
0.00814688
0.000314154
0.00810486
0.000612358
0.00806098
0.00065776
0.00797959
0.00127247
0.00791385
0.00139958
0.00274468
0.00823229
6.65473e-06
0.00823091
7.98941e-06
0.00823082
0.008228
0.00822681
0.00822132
0.0082179
0.00820725
0.00819932
0.00817867
0.00816253
0.00812272
0.00809445
0.00801977
0.00798669
0.00823277
)
;

boundaryField
{
    inlet
    {
        type            calculated;
        value           nonuniform List<scalar> 8(-0.00378841 -0.00823223 -0.00823223 -0.00823223 -0.00823223 -0.00823223 -0.00823223 -0.00823223);
    }
    outlet
    {
        type            calculated;
        value           nonuniform 0();
    }
    polygon
    {
        type            calculated;
        value           nonuniform 0();
    }
    top
    {
        type            symmetryPlane;
        value           uniform 0;
    }
    bottom
    {
        type            symmetryPlane;
        value           uniform 0;
    }
    outside
    {
        type            calculated;
        value           nonuniform 0();
    }
    procBoundary40to32
    {
        type            processor;
        value           nonuniform List<scalar> 
17
(
-3.71793e-06
1.00355e-07
-1.25486e-05
-1.00793e-05
-2.05592e-05
-2.95334e-05
-3.64173e-05
-6.82804e-05
-6.88129e-05
-0.000146625
-0.000138206
-0.00030905
-0.000294056
-0.000666652
-0.000675126
-0.00155581
-0.00177908
)
;
    }
    procBoundary40to33
    {
        type            processor;
        value           nonuniform List<scalar> 7(0.00289591 0.00210627 0.00740181 0.00749189 0.00758426 0.00767675 0.00777046);
    }
    procBoundary40to41
    {
        type            processor;
        value           uniform 0.00786656;
    }
    procBoundary40to48
    {
        type            processor;
        value           nonuniform List<scalar> 
17
(
1.86317e-05
3.09453e-05
3.86701e-05
7.28484e-05
7.83923e-05
0.000155314
0.000160236
0.000319561
0.000330289
0.000652171
0.000686032
0.00134715
0.00143266
0.00286481
6.11398e-06
0.00823101
9.75567e-06
)
;
    }
}


// ************************************************************************* //
