/*--------------------------------*- C++ -*----------------------------------*\
  =========                 |
  \\      /  F ield         | OpenFOAM: The Open Source CFD Toolbox
   \\    /   O peration     | Website:  https://openfoam.org
    \\  /    A nd           | Version:  7
     \\/     M anipulation  |
\*---------------------------------------------------------------------------*/
FoamFile
{
    version     2.0;
    format      ascii;
    class       surfaceScalarField;
    location    "5";
    object      phi;
}
// * * * * * * * * * * * * * * * * * * * * * * * * * * * * * * * * * * * * * //

dimensions      [0 3 -1 0 0 0 0];

internalField   nonuniform List<scalar> 
132
(
-0.00305553
0.00286132
-0.00269803
0.00406277
0.0064221
-0.00356735
3.08659e-05
-0.00355132
0.000136316
-0.00352386
0.000239982
-0.003443
0.00070671
-0.00330555
0.00124613
-0.00302613
0.00258191
-0.00264241
0.00367904
0.00580398
-0.00356722
2.71505e-05
-0.00355085
0.000119954
-0.00352253
0.000211662
-0.00343915
0.000623323
-0.00329547
0.00110245
-0.00300148
0.00228791
-0.00259197
0.00326954
0.00514825
-0.00356709
2.33735e-05
-0.00355045
0.000103309
-0.00352139
0.000182602
-0.00343584
0.000537773
-0.00328685
0.000953463
-0.00298038
0.00198144
-0.0025489
0.00283806
0.00446159
-0.00356699
1.9545e-05
-0.0035501
8.64237e-05
-0.00352044
0.000152935
-0.0034331
0.000450434
-0.00327974
0.000800109
-0.00296297
0.00166466
-0.00251345
0.00238854
0.0037502
-0.0035669
1.56753e-05
-0.00354982
6.93423e-05
-0.00351968
0.000122789
-0.00343093
0.000361685
-0.00327415
0.000643332
-0.00294926
0.00133978
-0.00248559
0.00192486
0.00301977
-0.00356684
1.17753e-05
-0.0035496
5.21111e-05
-0.00351911
9.22955e-05
-0.00342933
0.0002719
-0.00327005
0.000484052
-0.00293916
0.00100889
-0.00246507
0.00145077
0.00227535
-0.00356679
7.85548e-06
-0.00354945
3.47774e-05
-0.00351874
6.15813e-05
-0.00342829
0.000181449
-0.0032674
0.000323161
-0.00293254
0.000674039
-0.00245152
0.000969742
0.00152142
-0.00356676
3.92707e-06
-0.00354937
1.739e-05
-0.00351856
3.07745e-05
-0.00342781
9.06978e-05
-0.00326617
0.000161518
-0.00292927
0.000337141
-0.00244459
0.00048506
0.000761844
-0.00356675
-0.00354936
-0.00351858
-0.00342789
-0.00326637
-0.00292923
-0.00244417
)
;

boundaryField
{
    inlet
    {
        type            calculated;
        value           nonuniform 0();
    }
    outlet
    {
        type            calculated;
        value           nonuniform List<scalar> 9(0.003571 0.00357093 0.00357087 0.00357082 0.00357077 0.00357074 0.00357071 0.00357069 0.00357068);
    }
    polygon
    {
        type            calculated;
        value           nonuniform 0();
    }
    top
    {
        type            symmetryPlane;
        value           uniform 0;
    }
    bottom
    {
        type            symmetryPlane;
        value           uniform 0;
    }
    outside
    {
        type            calculated;
        value           nonuniform 0();
    }
    procBoundary11to7
    {
        type            processor;
        value           nonuniform List<scalar> 8(-1.79534e-13 -3.33963e-12 -7.31019e-12 -1.3501e-11 -2.73634e-11 -1.30976e-11 1.71592e-11 5.58359e-11);
    }
    procBoundary11to10
    {
        type            processor;
        value           nonuniform List<scalar> 
11
(
-0.00212733
-0.0069928
-0.00202429
-0.00193624
-0.00186223
-0.00180206
-0.00175515
-0.00172065
-0.00169759
-0.00168502
-0.00168232
)
;
    }
    procBoundary11to15
    {
        type            processor;
        value           nonuniform List<scalar> 8(-3.45098e-05 -0.000152353 -0.000267437 -0.000787573 0.0033158 -0.00138358 -0.00312159 -0.00442027);
    }
}


// ************************************************************************* //
