/*--------------------------------*- C++ -*----------------------------------*\
  =========                 |
  \\      /  F ield         | OpenFOAM: The Open Source CFD Toolbox
   \\    /   O peration     | Website:  https://openfoam.org
    \\  /    A nd           | Version:  7
     \\/     M anipulation  |
\*---------------------------------------------------------------------------*/
FoamFile
{
    version     2.0;
    format      ascii;
    class       volVectorField;
    location    "5";
    object      U;
}
// * * * * * * * * * * * * * * * * * * * * * * * * * * * * * * * * * * * * * //

dimensions      [0 1 -1 0 0 0 0];

internalField   nonuniform List<vector> 
125
(
(1.02356 -0.0001993 -1.23671e-20)
(1.02109 -0.000647549 -2.16693e-19)
(1.01554 -0.00148876 -4.49984e-19)
(1.00279 -0.00358475 -5.2938e-19)
(0.971542 -0.00718638 -8.03324e-19)
(0.915433 -0.0135117 -5.75567e-20)
(0.808398 -0.0219359 -4.16555e-19)
(0.650132 -0.0288379 6.35806e-20)
(0.455991 -0.0244074 -1.59428e-18)
(1.02356 -0.000178624 -1.89109e-20)
(1.02107 -0.000580506 -2.16234e-19)
(1.01549 -0.00133502 -4.62165e-19)
(1.00263 -0.00321592 -5.38414e-19)
(0.971088 -0.00645192 -7.95529e-19)
(0.914255 -0.0121388 -3.11046e-20)
(0.805711 -0.0197172 -1.85344e-19)
(0.644975 -0.0258848 2.80896e-19)
(0.449504 -0.0215176 -1.46117e-19)
(1.02355 -0.00015788 -4.64267e-21)
(1.02105 -0.000513161 -1.96876e-19)
(1.01544 -0.00118036 -4.05567e-19)
(1.00249 -0.00284372 -4.85281e-19)
(0.970694 -0.00570843 -8.06364e-19)
(0.913237 -0.0107457 -2.56067e-20)
(0.803395 -0.0174573 2.30415e-19)
(0.640563 -0.0229011 4.18517e-19)
(0.444198 -0.0187188 -3.84204e-18)
(1.02355 -0.000137025 1.87662e-21)
(1.02104 -0.000445417 -1.54326e-19)
(1.01539 -0.00102464 -3.62727e-19)
(1.00237 -0.00246885 -5.42699e-19)
(0.970358 -0.00495833 -7.78096e-19)
(0.912369 -0.00933829 -5.04428e-20)
(0.80143 -0.0151737 9.12908e-19)
(0.63685 -0.0198924 4.3806e-19)
(0.439939 -0.0160092 -2.66666e-18)
(1.02355 -0.000116087 2.12813e-20)
(1.02103 -0.000377376 -1.47656e-19)
(1.01536 -0.000868171 -3.22647e-19)
(1.00227 -0.00209199 -5.51271e-19)
(0.970077 -0.00420322 -7.11117e-19)
(0.911645 -0.00791973 -1.0643e-19)
(0.799795 -0.012871 7.91791e-19)
(0.633786 -0.0168662 3.78342e-19)
(0.436594 -0.0133888 3.29868e-18)
(1.02354 -9.50856e-05 3.19573e-20)
(1.02102 -0.000309108 -1.20641e-19)
(1.01533 -0.000711128 -3.06014e-19)
(1.00218 -0.00171356 -5.50242e-19)
(0.969847 -0.00344403 -6.43492e-19)
(0.911055 -0.00649205 -1.62458e-19)
(0.79847 -0.010552 4.44846e-19)
(0.631322 -0.013827 1.36057e-19)
(0.434033 -0.0108482 1.01919e-17)
(1.02354 -7.40318e-05 3.36238e-20)
(1.02101 -0.000240658 -7.82845e-20)
(1.01531 -0.000553638 -2.48963e-19)
(1.00212 -0.00133388 -5.30324e-19)
(0.969666 -0.00268168 -4.92742e-19)
(0.910591 -0.00505727 -1.7583e-19)
(0.797434 -0.0082202 5.61683e-19)
(0.629412 -0.0107772 1.61281e-19)
(0.432138 -0.0083747 1.41932e-17)
(1.02354 -5.29407e-05 4.50139e-20)
(1.021 -0.000172078 -2.82187e-20)
(1.01529 -0.000395848 -1.76181e-19)
(1.00207 -0.000953331 -5.06639e-19)
(0.969532 -0.00191713 -3.02274e-19)
(0.910249 -0.00361776 -3.8144e-19)
(0.796673 -0.00587974 4.88271e-19)
(0.628016 -0.00772055 4.6064e-19)
(0.43081 -0.00595585 1.60975e-17)
(1.02354 -3.18289e-05 4.37154e-20)
(1.021 -0.000103426 2.56561e-20)
(1.01528 -0.000237903 7.20775e-21)
(1.00204 -0.000572227 -4.56867e-19)
(0.969443 -0.00115118 -9.33394e-20)
(0.910023 -0.0021754 -5.38371e-19)
(0.796172 -0.00353327 9.5435e-19)
(0.627103 -0.00466293 4.81454e-19)
(0.429968 -0.00358263 1.60701e-17)
(1.02354 -1.06679e-05 5.13317e-20)
(1.021 -3.46265e-05 8.08693e-22)
(1.01527 -7.96075e-05 8.30187e-20)
(1.00202 -0.000190632 -3.2398e-19)
(0.969398 -0.000383491 1.24325e-19)
(0.90991 -0.000726729 -4.09894e-19)
(0.795923 -0.00117613 7.21031e-19)
(0.626651 -0.00158312 3.37656e-19)
(0.429559 -0.00122472 1.42334e-17)
(0.922759 -0.0193432 -4.08532e-19)
(0.825429 -0.0312408 3.83358e-19)
(0.684025 -0.0411915 1.51534e-19)
(1.02359 -0.000270679 -2.09746e-20)
(1.02117 -0.000879547 -1.69329e-19)
(1.0158 -0.00202365 -3.37678e-19)
(1.00353 -0.00486561 -3.75884e-19)
(0.973677 -0.00972805 -4.95157e-19)
(0.921059 -0.0182345 -3.30849e-19)
(0.821468 -0.0294849 7.13331e-19)
(0.676068 -0.0388752 3.042e-19)
(1.02358 -0.000253413 -3.02626e-20)
(1.02115 -0.000823437 -1.76156e-19)
(1.01573 -0.00189433 -3.67047e-19)
(1.00333 -0.00455607 -3.69179e-19)
(0.973079 -0.00911694 -5.80894e-19)
(0.919482 -0.0171069 -2.49841e-19)
(0.817797 -0.0276922 5.15712e-19)
(0.668717 -0.0365149 -2.36263e-19)
(1.02358 -0.000236042 -3.03149e-20)
(1.02113 -0.000766933 -1.68656e-19)
(1.01566 -0.00176396 -3.92739e-19)
(1.00313 -0.00424333 -4.37908e-19)
(0.972529 -0.00849765 -6.58433e-19)
(0.91803 -0.0159616 -1.78467e-19)
(0.814413 -0.0258651 3.51869e-19)
(0.66197 -0.0341285 -1.95325e-19)
(1.02357 -0.000218551 -2.50364e-20)
(1.02111 -0.000709982 -2.00058e-19)
(1.0156 -0.00163232 -3.887e-19)
(1.00296 -0.00392681 -4.35771e-19)
(0.972026 -0.00786715 -7.33722e-19)
(0.9167 -0.0147869 -1.12138e-19)
(0.811315 -0.0239781 1.09394e-19)
(0.655815 -0.0316481 -3.04612e-19)
)
;

boundaryField
{
    inlet
    {
        type            uniformFixedValue;
        uniformValue    constant (1 0 0);
        value           nonuniform 0();
    }
    outlet
    {
        type            pressureInletOutletVelocity;
        value           nonuniform List<vector> 
14
(
(1.02356 -0.0001993 -1.23671e-20)
(1.02356 -0.000178624 -1.89109e-20)
(1.02355 -0.00015788 -4.64267e-21)
(1.02355 -0.000137025 1.87662e-21)
(1.02355 -0.000116087 2.12813e-20)
(1.02354 -9.50856e-05 3.19573e-20)
(1.02354 -7.40318e-05 3.36238e-20)
(1.02354 -5.29407e-05 4.50139e-20)
(1.02354 -3.18289e-05 4.37154e-20)
(1.02354 -1.06679e-05 5.13317e-20)
(1.02359 -0.000270679 -2.09746e-20)
(1.02358 -0.000253413 -3.02626e-20)
(1.02358 -0.000236042 -3.03149e-20)
(1.02357 -0.000218551 -2.50364e-20)
)
;
    }
    polygon
    {
        type            fixedValue;
        value           nonuniform 0();
    }
    top
    {
        type            symmetryPlane;
    }
    bottom
    {
        type            symmetryPlane;
    }
    outside
    {
        type            zeroGradient;
    }
    procBoundary11to7
    {
        type            processor;
        value           nonuniform List<vector> 9((1.02354 1.0668e-05 4.96519e-20) (1.021 3.46267e-05 2.473e-21) (1.01527 7.96074e-05 1.42897e-19) (1.00202 0.000190632 -2.53804e-19) (0.969398 0.000383491 3.2963e-19) (0.90991 0.00072673 -3.99787e-19) (0.795923 0.00117613 4.56056e-19) (0.626651 0.00158312 6.44926e-20) (0.429559 0.00122472 1.01286e-17));
    }
    procBoundary11to10
    {
        type            processor;
        value           nonuniform List<vector> 
16
(
(0.297211 -0.0596761 -1.43569e-17)
(0.463511 -0.0273654 -3.45233e-18)
(0.304448 -0.0535979 -1.89502e-17)
(0.311694 -0.0474042 -2.1006e-17)
(0.31874 -0.0412125 -1.50086e-17)
(0.325362 -0.0349937 -1.14952e-17)
(0.331329 -0.0287274 -1.01597e-17)
(0.336419 -0.0224143 -4.25498e-18)
(0.340433 -0.0160624 1.11832e-18)
(0.343205 -0.00967251 6.98008e-18)
(0.344621 -0.00321088 7.95921e-18)
(0.504424 -0.038969 -7.44853e-18)
(0.49245 -0.0359216 -7.32216e-18)
(0.481669 -0.0329789 -8.24342e-18)
(0.47204 -0.0301539 -5.45759e-18)
(0.463511 -0.0273654 -3.45233e-18)
)
;
    }
    procBoundary11to15
    {
        type            processor;
        value           nonuniform List<vector> 9((0.924581 -0.0204298 -4.37201e-19) (0.829676 -0.0329535 2.02835e-19) (0.692583 -0.0434499 3.77775e-20) (1.0236 -0.000287829 -2.11506e-20) (1.0212 -0.000935227 -1.52041e-19) (1.01588 -0.00215185 -3.12369e-19) (1.00376 -0.00517193 -3.31688e-19) (0.974322 -0.0103308 -4.11737e-19) (0.974322 -0.0103308 -4.11737e-19));
    }
}


// ************************************************************************* //
