/*--------------------------------*- C++ -*----------------------------------*\
  =========                 |
  \\      /  F ield         | OpenFOAM: The Open Source CFD Toolbox
   \\    /   O peration     | Website:  https://openfoam.org
    \\  /    A nd           | Version:  7
     \\/     M anipulation  |
\*---------------------------------------------------------------------------*/
FoamFile
{
    version     2.0;
    format      ascii;
    class       volVectorField;
    location    "110";
    object      U;
}
// * * * * * * * * * * * * * * * * * * * * * * * * * * * * * * * * * * * * * //

dimensions      [0 1 -1 0 0 0 0];

internalField   nonuniform List<vector> 
115
(
(1.29771 0.219623 -1.39973e-18)
(1.29855 0.229063 -2.4995e-18)
(1.30042 0.23882 1.66493e-18)
(1.30355 0.248805 -5.45449e-19)
(1.30826 0.258976 6.3358e-19)
(1.31472 0.269133 1.10392e-18)
(1.3019 0.220688 -5.9472e-20)
(1.30298 0.229983 -5.34437e-19)
(1.30515 0.239547 2.17352e-18)
(1.30864 0.249223 -5.23953e-19)
(1.31359 0.258816 6.43039e-19)
(1.31955 0.26768 3.89877e-19)
(1.28808 0.228583 -4.4722e-20)
(1.28938 0.239093 1.4272e-18)
(1.29185 0.249995 -2.11077e-18)
(1.29584 0.261314 -4.11048e-19)
(1.30173 0.273011 1.44538e-18)
(1.29301 0.219033 1.4776e-18)
(1.29361 0.228764 -3.09923e-18)
(1.29519 0.238859 2.51811e-18)
(1.29799 0.249237 -1.95689e-18)
(1.30225 0.259831 1.07143e-18)
(1.3081 0.270408 1.09692e-18)
(1.27553 0.228051 1.37025e-18)
(1.2762 0.239467 3.98058e-18)
(1.27794 0.251435 -6.31936e-19)
(1.28107 0.264033 -1.0485e-18)
(1.28597 0.277325 2.54574e-18)
(1.28214 0.228017 -1.89574e-18)
(1.28313 0.23889 3.08e-18)
(1.28524 0.250209 -2.72954e-18)
(1.28872 0.261996 -3.14282e-19)
(1.29392 0.274244 1.11685e-18)
(1.26098 0.227488 -8.28329e-19)
(1.26091 0.239958 7.66324e-18)
(1.26183 0.253149 -2.13732e-18)
(1.26399 0.267199 -5.3925e-19)
(1.26774 0.282291 3.79206e-18)
(1.27359 0.298396 6.91884e-18)
(1.26858 0.227395 -4.56986e-19)
(1.2689 0.239233 5.44586e-18)
(1.27024 0.251688 -1.6646e-18)
(1.27286 0.264859 1.05578e-18)
(1.27712 0.278882 3.81141e-18)
(1.24453 0.226912 5.55794e-19)
(1.24364 0.240574 7.70666e-18)
(1.24359 0.255128 4.3272e-19)
(1.24463 0.270789 -3.60029e-18)
(1.24706 0.287886 2.3907e-18)
(1.25307 0.22679 2.61436e-18)
(1.25263 0.239747 4.88616e-18)
(1.2531 0.253497 2.32852e-18)
(1.25473 0.26821 3.53489e-18)
(1.25786 0.284155 7.7459e-18)
(1.22705 0.226343 5.05754e-18)
(1.22505 0.241305 1.26265e-17)
(1.22373 0.257283 2.23612e-18)
(1.2232 0.274655 3.65478e-18)
(1.22382 0.293878 4.90909e-18)
(1.23587 0.226206 6.89909e-18)
(1.23449 0.240411 9.9664e-18)
(1.23389 0.255565 2.54161e-18)
(1.23424 0.271937 -1.93461e-18)
(1.23589 0.289932 -8.3315e-19)
(1.21409 0.210841 4.91499e-18)
(1.21076 0.225927 -2.2952e-18)
(1.20772 0.242129 1.2794e-17)
(1.2052 0.259537 2.15364e-18)
(1.20331 0.278615 -5.6273e-18)
(1.20215 0.299906 -4.05277e-18)
(1.21889 0.225637 6.11565e-18)
(1.2163 0.241137 8.67024e-18)
(1.21431 0.257694 2.34286e-18)
(1.21299 0.275766 1.90135e-18)
(1.21262 0.29587 2.33819e-18)
(1.19525 0.210002 3.69903e-18)
(1.1904 0.226294 3.55267e-18)
(1.18571 0.24387 2.47475e-17)
(1.18137 0.262934 -1.39842e-18)
(1.17741 0.283889 1.83061e-18)
(1.17387 0.307267 -1.65052e-17)
(1.20543 0.210043 1.65597e-18)
(1.20166 0.22562 1.6452e-17)
(1.1982 0.242358 2.3926e-17)
(1.1953 0.260425 1.07599e-17)
(1.19303 0.280243 5.09268e-18)
(1.19142 0.302328 -3.85783e-18)
(1.02677 0.092667 -1.13306e-17)
(1.02866 0.192401 5.7217e-18)
(1.08506 0.173156 -6.49746e-20)
(1.10024 0.289945 9.85747e-18)
(1.03621 0.0895996 -1.00947e-17)
(1.04165 0.181569 2.57697e-18)
(1.09729 0.165837 -7.89157e-19)
(1.11451 0.265917 6.81546e-18)
(1.05358 0.170361 6.21292e-17)
(1.1079 0.158249 4.23645e-18)
(1.12752 0.244171 5.22007e-17)
(1.06462 0.158948 1.68867e-17)
(1.11727 0.150386 -1.50297e-18)
(1.1393 0.224329 2.46027e-17)
(1.07483 0.147439 6.64559e-18)
(1.12572 0.142273 -3.99875e-18)
(1.15 0.206033 7.86922e-18)
(1.32151 0.21731 -2.34741e-20)
(1.31049 0.219608 -4.23936e-20)
(1.32332 0.22424 9.49275e-20)
(1.31209 0.227925 -1.37782e-19)
(1.32612 0.231168 7.63316e-19)
(1.31485 0.236361 1.39825e-18)
(1.32992 0.237918 -1.52959e-19)
(1.31892 0.244729 -2.75242e-19)
(1.33422 0.24422 2.91322e-19)
(1.32426 0.2528 5.07199e-19)
(1.3369 0.249287 9.69141e-20)
)
;

boundaryField
{
    inlet
    {
        type            uniformFixedValue;
        uniformValue    constant (1 0 0);
        value           nonuniform 0();
    }
    outlet
    {
        type            pressureInletOutletVelocity;
        value           nonuniform 0();
    }
    polygon
    {
        type            fixedValue;
        value           nonuniform 0();
    }
    top
    {
        type            symmetryPlane;
    }
    bottom
    {
        type            symmetryPlane;
    }
    outside
    {
        type            zeroGradient;
    }
    procBoundary49to41
    {
        type            processor;
        value           nonuniform List<vector> 
27
(
(1.32239 0.278677 1.81627e-19)
(1.32405 0.274193 -5.98573e-20)
(1.32975 0.259922 2.66064e-19)
(1.30977 0.284843 1.84064e-18)
(1.3152 0.280445 7.19213e-19)
(1.29306 0.291201 4.02966e-18)
(1.30116 0.286846 2.56457e-18)
(1.28171 0.316003 -1.04741e-18)
(1.28354 0.293764 4.44219e-18)
(1.26305 0.301351 1.20157e-17)
(1.28354 0.293764 4.44219e-18)
(1.2514 0.306425 9.74509e-18)
(1.26305 0.301351 1.20157e-17)
(1.22602 0.314993 1.29163e-17)
(1.23934 0.309556 1.49535e-17)
(1.20193 0.323636 1.63008e-17)
(1.21355 0.31808 1.24205e-17)
(1.1708 0.333517 2.60296e-17)
(1.0847 0.316739 1.96815e-17)
(1.19058 0.327036 2.05888e-17)
(1.01722 0.0955946 -1.57569e-17)
(1.0142 0.202562 2.52371e-17)
(1.07085 0.180261 1.79674e-18)
(1.0847 0.316739 1.96815e-17)
(1.32975 0.259922 2.66064e-19)
(1.32975 0.259922 2.66064e-19)
(1.33186 0.251215 -2.11917e-19)
)
;
    }
    procBoundary49to48
    {
        type            processor;
        value           nonuniform List<vector> 4((1.00322 0.106052 -2.1365e-17) (1.01264 0.103358 -1.24241e-17) (1.04518 0.0863087 -2.28094e-17) (1.04518 0.0863087 -2.28094e-17));
    }
    procBoundary49to50
    {
        type            processor;
        value           nonuniform List<vector> 4((1.33464 0.226599 4.40931e-19) (1.33768 0.2321 5.04056e-20) (1.34026 0.236957 2.15024e-19) (1.3391 0.240145 1.55931e-19));
    }
    procBoundary49to56
    {
        type            processor;
        value           nonuniform List<vector> 2((1.05353 0.0826748 -1.68722e-17) (1.06121 0.0786467 -8.66376e-18));
    }
    procBoundary49to57
    {
        type            processor;
        value           nonuniform List<vector> 
23
(
(1.29772 0.210376 3.64494e-18)
(1.3017 0.211535 2.92189e-18)
(1.28775 0.2185 -1.22747e-18)
(1.28775 0.2185 -1.22747e-18)
(1.29323 0.209545 2.75073e-18)
(1.27576 0.217183 6.13839e-18)
(1.28206 0.217618 2.81454e-18)
(1.26185 0.2157 5.66169e-18)
(1.2691 0.216156 2.49328e-18)
(1.24619 0.214084 1.44548e-17)
(1.25429 0.214578 6.67042e-18)
(1.22968 0.212359 7.69206e-18)
(1.23798 0.212895 1.02423e-17)
(1.21785 0.196708 -4.76357e-18)
(1.22191 0.211175 1.08694e-17)
(1.22191 0.211175 1.08694e-17)
(1.20032 0.194834 -7.30787e-18)
(1.20961 0.195494 -6.83228e-18)
(1.08426 0.135922 1.73709e-17)
(1.13339 0.13391 -4.64218e-17)
(1.15981 0.189036 -1.05776e-17)
(1.32056 0.210341 1.08028e-18)
(1.30981 0.211339 1.88122e-18)
)
;
    }
    procBoundary49to58
    {
        type            processor;
        value           nonuniform List<vector> 2((1.33053 0.21503 3.31789e-20) (1.3322 0.220844 1.45849e-19));
    }
}


// ************************************************************************* //
