/*--------------------------------*- C++ -*----------------------------------*\
  =========                 |
  \\      /  F ield         | OpenFOAM: The Open Source CFD Toolbox
   \\    /   O peration     | Website:  https://openfoam.org
    \\  /    A nd           | Version:  7
     \\/     M anipulation  |
\*---------------------------------------------------------------------------*/
FoamFile
{
    version     2.0;
    format      ascii;
    class       volScalarField;
    location    "90";
    object      p;
}
// * * * * * * * * * * * * * * * * * * * * * * * * * * * * * * * * * * * * * //

dimensions      [0 2 -2 0 0 0 0];

internalField   nonuniform List<scalar> 
8000
(
-0.000624428
-0.00212989
-0.00362502
-0.00524451
-0.00689018
-0.00852786
-0.0101318
-0.0116795
-0.0131548
-0.0145464
-0.0158442
-0.0170479
-0.0181519
-0.0191569
-0.0200639
-0.0208755
-0.0215953
-0.0222278
-0.0227782
-0.023252
-0.0236553
-0.0239945
-0.0242763
-0.0245073
-0.0246946
-0.024845
-0.0249655
-0.0250628
-0.0251435
-0.025214
-0.0252802
-0.0253476
-0.0254215
-0.0255064
-0.0256065
-0.0257256
-0.0258668
-0.0260329
-0.0262262
-0.0264487
-0.0267019
-0.0269872
-0.0273055
-0.0276575
-0.0280438
-0.0284647
-0.0289203
-0.0294108
-0.029936
-0.0304958
-0.03109
-0.0317183
-0.0323804
-0.0330761
-0.033805
-0.0345667
-0.035361
-0.0361876
-0.0370462
-0.0379365
-0.0388584
-0.0398117
-0.0407961
-0.0418115
-0.0428577
-0.0439346
-0.045042
-0.0461797
-0.0473475
-0.048545
-0.0497718
-0.0510274
-0.0523108
-0.053621
-0.0549567
-0.0563161
-0.0576971
-0.0590969
-0.0605123
-0.0619392
-0.0633726
-0.0648065
-0.0662338
-0.0676456
-0.0690317
-0.0703795
-0.0716745
-0.0728995
-0.0740344
-0.0750542
-0.0759384
-0.0766462
-0.077188
-0.0774396
-0.0776992
-0.0771983
-0.0784009
-0.0763295
-0.0838518
-0.0802359
-0.000655924
-0.00214989
-0.00364478
-0.00524801
-0.00687512
-0.00849621
-0.0100858
-0.0116216
-0.0130874
-0.0144716
-0.0157651
-0.0169669
-0.01807
-0.0190752
-0.0199833
-0.0207968
-0.0215192
-0.0221548
-0.0227087
-0.0231864
-0.0235939
-0.0239375
-0.0242239
-0.0244597
-0.0246519
-0.0248072
-0.0249325
-0.0250345
-0.0251199
-0.0251947
-0.025265
-0.0253362
-0.0254135
-0.0255014
-0.0256041
-0.0257253
-0.0258682
-0.0260355
-0.0262295
-0.0264523
-0.0267054
-0.02699
-0.0273073
-0.0276579
-0.0280424
-0.0284612
-0.0289144
-0.0294021
-0.0299243
-0.0304808
-0.0310716
-0.0316962
-0.0323545
-0.0330461
-0.0337709
-0.0345284
-0.0353184
-0.0361406
-0.0369948
-0.0378808
-0.0387983
-0.0397472
-0.0407272
-0.0417382
-0.0427805
-0.0438537
-0.0449574
-0.0460916
-0.0472562
-0.0484506
-0.0496741
-0.0509264
-0.0522064
-0.0535134
-0.0548458
-0.0562019
-0.0575796
-0.0589763
-0.0603885
-0.0618122
-0.0632426
-0.0646735
-0.0660978
-0.0675066
-0.0688896
-0.0702341
-0.0715252
-0.072745
-0.073873
-0.0748824
-0.0757521
-0.0764341
-0.0769427
-0.077135
-0.0773329
-0.0767106
-0.0776418
-0.0754325
-0.0811812
-0.0786419
-0.000679795
-0.00216501
-0.00366168
-0.00524974
-0.00686044
-0.00846637
-0.0100426
-0.0115676
-0.0130252
-0.0144037
-0.0156934
-0.0168917
-0.0179932
-0.0189981
-0.0199069
-0.020722
-0.0214466
-0.0220851
-0.0226423
-0.0231236
-0.0235352
-0.0238831
-0.0241738
-0.0244142
-0.0246109
-0.0247708
-0.0249007
-0.0250071
-0.0250966
-0.0251754
-0.0252494
-0.0253239
-0.0254041
-0.0254946
-0.0255994
-0.0257222
-0.0258663
-0.0260344
-0.0262289
-0.0264516
-0.0267044
-0.0269883
-0.0273046
-0.0276539
-0.0280368
-0.0284538
-0.028905
-0.0293905
-0.0299104
-0.0304645
-0.0310527
-0.0316748
-0.0323304
-0.0330194
-0.0337414
-0.0344962
-0.0352836
-0.0361031
-0.0369547
-0.0378381
-0.0387531
-0.0396993
-0.0406773
-0.0416866
-0.0427253
-0.0437949
-0.0448953
-0.0460256
-0.0471849
-0.0483741
-0.049593
-0.0508404
-0.0521155
-0.0534173
-0.0547445
-0.0560952
-0.0574674
-0.0588583
-0.0602647
-0.0616825
-0.0631068
-0.0645315
-0.0659494
-0.0673517
-0.0687281
-0.0700656
-0.0713495
-0.0725613
-0.0736807
-0.0746791
-0.0755362
-0.0761978
-0.0766832
-0.0768244
-0.0769586
-0.0762239
-0.0768822
-0.0745884
-0.0788365
-0.0769291
-0.000697379
-0.00217843
-0.00367633
-0.00525146
-0.00684765
-0.00843977
-0.0100038
-0.0115186
-0.0129682
-0.0143407
-0.0156264
-0.0168223
-0.0179225
-0.0189272
-0.0198367
-0.0206533
-0.02138
-0.0220211
-0.0225813
-0.0230661
-0.0234813
-0.0238331
-0.0241279
-0.0243724
-0.0245734
-0.0247375
-0.0248715
-0.0249819
-0.0250753
-0.0251577
-0.025235
-0.0253125
-0.0253954
-0.0254881
-0.0255949
-0.0257193
-0.0258645
-0.0260333
-0.0262281
-0.0264509
-0.0267033
-0.0269866
-0.0273019
-0.0276499
-0.0280313
-0.0284465
-0.0288957
-0.029379
-0.0298965
-0.030448
-0.0310335
-0.0316526
-0.0323052
-0.032991
-0.0337097
-0.0344611
-0.0352448
-0.0360607
-0.0369084
-0.0377876
-0.0386985
-0.0396406
-0.0406123
-0.0416144
-0.0426505
-0.0437167
-0.0448122
-0.0459386
-0.0470972
-0.0482852
-0.0495003
-0.050744
-0.0520157
-0.0533139
-0.0546372
-0.0559838
-0.0573517
-0.0587381
-0.0601398
-0.0615528
-0.062972
-0.0643914
-0.0658039
-0.0672005
-0.0685706
-0.0699015
-0.071178
-0.0723812
-0.0734905
-0.0744758
-0.075317
-0.0759541
-0.0764107
-0.0764985
-0.0765594
-0.075718
-0.0760991
-0.0737664
-0.0767987
-0.0751271
-0.000710164
-0.00218947
-0.00368811
-0.00525228
-0.00683579
-0.00841553
-0.00996842
-0.011474
-0.0129164
-0.014284
-0.0155658
-0.016759
-0.0178581
-0.0188625
-0.0197728
-0.0205907
-0.0213194
-0.0219629
-0.022526
-0.0230139
-0.0234325
-0.0237878
-0.0240864
-0.0243347
-0.0245395
-0.0247074
-0.0248451
-0.0249592
-0.025056
-0.0251417
-0.0252219
-0.0253022
-0.0253874
-0.0254821
-0.0255905
-0.0257161
-0.0258622
-0.0260316
-0.0262266
-0.0264492
-0.026701
-0.0269835
-0.0272976
-0.0276442
-0.028024
-0.0284372
-0.0288843
-0.0293652
-0.0298802
-0.030429
-0.0310116
-0.0316278
-0.0322773
-0.03296
-0.0336756
-0.0344238
-0.0352045
-0.0360174
-0.0368623
-0.0377392
-0.0386475
-0.0395864
-0.0405604
-0.041567
-0.0425963
-0.0436582
-0.0447531
-0.0458766
-0.0470245
-0.0482027
-0.0494143
-0.0506537
-0.0519196
-0.0532123
-0.0545303
-0.0558718
-0.0572346
-0.0586159
-0.0600126
-0.0614204
-0.0628345
-0.0642488
-0.065656
-0.0670474
-0.0684122
-0.0697374
-0.0710079
-0.072204
-0.0733053
-0.0742796
-0.0751071
-0.0757219
-0.0761506
-0.0761886
-0.0761792
-0.0752452
-0.0753635
-0.0729976
-0.0750502
-0.0733787
-0.000719294
-0.00219799
-0.00369699
-0.00525197
-0.00682463
-0.00839362
-0.00993677
-0.0114342
-0.0128698
-0.0142306
-0.0155115
-0.0167025
-0.0178006
-0.0188049
-0.0197157
-0.0205349
-0.0212654
-0.0219111
-0.0224767
-0.0229674
-0.023389
-0.0237476
-0.0240495
-0.0243012
-0.0245094
-0.0246807
-0.0248218
-0.0249391
-0.0250389
-0.0251274
-0.0252102
-0.0252927
-0.0253799
-0.0254763
-0.0255859
-0.0257125
-0.0258592
-0.0260289
-0.0262238
-0.026446
-0.0266971
-0.0269785
-0.0272914
-0.0276365
-0.0280144
-0.0284257
-0.0288705
-0.0293491
-0.0298615
-0.0304076
-0.0309874
-0.0316005
-0.032247
-0.0329264
-0.0336386
-0.0343832
-0.03516
-0.0359687
-0.0368089
-0.0376804
-0.0385836
-0.0395204
-0.0404805
-0.0414708
-0.0425006
-0.0435591
-0.0446459
-0.045765
-0.0469203
-0.0481047
-0.0493087
-0.0505432
-0.0518075
-0.0530982
-0.0544133
-0.0557513
-0.0571104
-0.0584878
-0.0598804
-0.0612841
-0.062694
-0.0641041
-0.0655071
-0.0668942
-0.0682547
-0.0695756
-0.0708415
-0.0720326
-0.0731282
-0.0740946
-0.0749125
-0.0755106
-0.0759179
-0.0759165
-0.0758474
-0.0748407
-0.074726
-0.0723284
-0.0735986
-0.0717299
-0.000725586
-0.00220412
-0.00370304
-0.00525046
-0.0068141
-0.00837404
-0.00990895
-0.0113994
-0.01283
-0.0141884
-0.0154648
-0.0166535
-0.0177506
-0.0187547
-0.0196661
-0.0204864
-0.0212185
-0.0218661
-0.022434
-0.0229272
-0.0233516
-0.023713
-0.0240178
-0.0242725
-0.0244836
-0.0246579
-0.0248018
-0.0249218
-0.0250242
-0.025115
-0.0251999
-0.0252843
-0.025373
-0.0254706
-0.0255812
-0.0257084
-0.0258555
-0.0260251
-0.0262196
-0.0264412
-0.0266914
-0.0269717
-0.0272831
-0.0276265
-0.0280026
-0.0284118
-0.0288544
-0.0293305
-0.0298404
-0.0303838
-0.0309609
-0.0315713
-0.0322149
-0.0328915
-0.0336009
-0.0343429
-0.0351173
-0.035924
-0.0367629
-0.0376339
-0.0385368
-0.0394651
-0.0404312
-0.0414284
-0.0424522
-0.043507
-0.0445932
-0.0457084
-0.0468501
-0.0480215
-0.049232
-0.0504642
-0.0517193
-0.0530018
-0.0543105
-0.0556428
-0.0569964
-0.0583684
-0.0597558
-0.0611543
-0.0625592
-0.0639645
-0.065363
-0.0667457
-0.0681023
-0.0694194
-0.0706819
-0.0718696
-0.0729621
-0.0739244
-0.0747379
-0.0753267
-0.0757225
-0.0756955
-0.0755828
-0.0745256
-0.0742209
-0.0717913
-0.0724512
-0.0702325
-0.000729625
-0.00220795
-0.00370635
-0.00524774
-0.00680414
-0.00835674
-0.00988485
-0.0113694
-0.0127947
-0.0141486
-0.0154242
-0.0166119
-0.0177084
-0.0187127
-0.0196246
-0.0204459
-0.0211793
-0.0218287
-0.0223985
-0.0228939
-0.0233205
-0.0236843
-0.0239915
-0.0242487
-0.0244624
-0.024639
-0.0247853
-0.0249075
-0.025012
-0.0251047
-0.0251912
-0.025277
-0.0253668
-0.0254653
-0.0255765
-0.025704
-0.025851
-0.0260203
-0.0262143
-0.026435
-0.0266842
-0.0269631
-0.0272729
-0.0276145
-0.0279885
-0.0283954
-0.0288355
-0.029309
-0.029816
-0.0303563
-0.03093
-0.0315369
-0.0321767
-0.0328493
-0.0335544
-0.0342917
-0.035061
-0.0358619
-0.036694
-0.037557
-0.0384515
-0.0393806
-0.0403388
-0.0413267
-0.0423471
-0.0433975
-0.0444774
-0.0455879
-0.0467292
-0.0478987
-0.0490922
-0.0503214
-0.0515799
-0.052864
-0.0541713
-0.0555011
-0.0568521
-0.0582217
-0.0596065
-0.0610027
-0.0624055
-0.0638089
-0.0652058
-0.0665874
-0.0679433
-0.0692605
-0.0705238
-0.0717128
-0.0728075
-0.073772
-0.0745886
-0.0751776
-0.0755741
-0.0755373
-0.0754039
-0.0743208
-0.0738814
-0.0714216
-0.0716236
-0.0689676
-0.0007319
-0.00220975
-0.00370723
-0.00524408
-0.0067952
-0.00834254
-0.00986594
-0.0113468
-0.0127698
-0.0141232
-0.015395
-0.0165805
-0.017676
-0.0186798
-0.019592
-0.0204139
-0.0211483
-0.0217989
-0.0223702
-0.0228673
-0.0232957
-0.0236615
-0.0239708
-0.02423
-0.0244456
-0.0246242
-0.0247723
-0.0248962
-0.0250022
-0.0250962
-0.0251839
-0.0252706
-0.0253611
-0.02546
-0.0255714
-0.0256988
-0.0258455
-0.0260142
-0.0262074
-0.0264272
-0.0266751
-0.0269527
-0.0272611
-0.0276011
-0.0279734
-0.0283785
-0.0288167
-0.0292883
-0.0297934
-0.0303318
-0.0309037
-0.0315088
-0.032147
-0.0328181
-0.0335218
-0.0342581
-0.0350267
-0.0358274
-0.0366602
-0.037525
-0.0384208
-0.0393458
-0.0403022
-0.0412899
-0.0423076
-0.0433558
-0.0444346
-0.0455434
-0.0466815
-0.04785
-0.0490496
-0.0502726
-0.0515196
-0.0527931
-0.0540944
-0.0554196
-0.0567659
-0.0581305
-0.0595105
-0.060902
-0.0623002
-0.0636993
-0.0650923
-0.0664704
-0.0678235
-0.0691386
-0.0704007
-0.0715897
-0.072686
-0.0736532
-0.0744752
-0.0750691
-0.0754735
-0.075444
-0.0753284
-0.0742479
-0.0737513
-0.0712636
-0.0711763
-0.0680222
-0.000732226
-0.00220839
-0.00370397
-0.00523702
-0.00678384
-0.00832676
-0.00984592
-0.0113228
-0.0127419
-0.0140909
-0.0153639
-0.0165499
-0.0176459
-0.0186505
-0.0195637
-0.0203868
-0.0211227
-0.0217749
-0.0223478
-0.0228467
-0.0232769
-0.0236444
-0.0239554
-0.0242162
-0.0244334
-0.0246134
-0.0247627
-0.0248877
-0.0249947
-0.0250894
-0.0251777
-0.0252646
-0.0253552
-0.025454
-0.0255649
-0.0256916
-0.0258373
-0.0260048
-0.0261964
-0.0264143
-0.0266601
-0.0269352
-0.0272408
-0.0275778
-0.0279469
-0.0283484
-0.0287829
-0.0292504
-0.0297511
-0.030285
-0.030852
-0.031452
-0.0320848
-0.0327501
-0.0334479
-0.0341778
-0.0349396
-0.0357331
-0.036558
-0.0374142
-0.0383019
-0.0392226
-0.0401733
-0.0411542
-0.0421658
-0.0432075
-0.0442793
-0.0453809
-0.046512
-0.0476714
-0.0488586
-0.0500775
-0.0513286
-0.0526052
-0.0539022
-0.0552218
-0.0565633
-0.057924
-0.0593006
-0.0606893
-0.0620854
-0.0634833
-0.0648761
-0.0662554
-0.0676111
-0.0689306
-0.0701995
-0.0713978
-0.0725068
-0.0734897
-0.0743328
-0.0749496
-0.0753859
-0.0753728
-0.0752768
-0.0742027
-0.0736959
-0.0711516
-0.0708772
-0.0671637
0.0746415
0.0803459
0.0824248
0.0847905
0.0857514
0.0858612
0.0847739
0.0824482
0.0786424
0.0731422
0.0655198
0.0554136
0.0419948
0.0246532
0.00146246
-0.0289405
-0.072457
-0.129697
-0.215152
-0.317508
0.0689239
0.0743982
0.076331
0.0784577
0.0792007
0.079079
0.0777614
0.0751995
0.0711599
0.0654263
0.0575959
0.0472365
0.03362
0.0159417
-0.00779016
-0.0394458
-0.0852252
-0.144272
-0.209991
-0.258359
0.0634492
0.0687437
0.070523
0.0724146
0.0728922
0.0724715
0.0708075
0.067846
0.0633399
0.057053
0.0485705
0.0374101
0.022779
0.00371557
-0.021826
-0.0553399
-0.101185
-0.155407
-0.199278
-0.25038
0.0581651
0.0632694
0.064887
0.0665494
0.0667615
0.0660341
0.0640094
0.0606285
0.0556322
0.048767
0.0396083
0.0276421
0.0120384
-0.00818864
-0.0349343
-0.0691748
-0.112623
-0.160588
-0.190226
-0.232593
0.053042
0.0579325
0.0593784
0.0608169
0.0607801
0.0597694
0.0574205
0.053673
0.0482632
0.0409314
0.0312563
0.0187153
0.00249596
-0.0182981
-0.0452628
-0.079022
-0.118538
-0.157763
-0.18134
-0.211487
0.0480806
0.0527405
0.0540075
0.0552262
0.0549548
0.0536843
0.0510478
0.0469855
0.0412339
0.0335333
0.0234732
0.0105358
-0.00604945
-0.0270157
-0.0534885
-0.0858392
-0.120966
-0.149623
-0.172077
-0.187158
0.0432907
0.0477074
0.048793
0.0497958
0.0493001
0.0477869
0.0448889
0.0405479
0.0345041
0.0265051
0.016163
0.00299491
-0.0136969
-0.0344551
-0.0598393
-0.0899701
-0.121117
-0.139905
-0.162176
-0.165559
0.0386798
0.0428383
0.0437439
0.0445345
0.0438244
0.0420827
0.0389446
0.0343544
0.0280591
0.0198166
0.00926274
-0.00404728
-0.0207341
-0.0411437
-0.0651511
-0.0923096
-0.119204
-0.131311
-0.151378
-0.147009
0.0342543
0.0381255
0.038862
0.0394415
0.0385305
0.0365749
0.0332193
0.0284095
0.0219052
0.013484
0.00282834
-0.0104142
-0.0266968
-0.0461315
-0.0680457
-0.0916279
-0.114616
-0.12448
-0.139956
-0.131673
0.0300229
0.0335582
0.0341517
0.0345133
0.0334152
0.0312545
0.0276979
0.0226898
0.0160072
0.00744688
-0.00327775
-0.0164805
-0.0325441
-0.0514695
-0.0720932
-0.0929917
-0.112689
-0.12278
-0.13528
-0.117791
0.140844
0.149764
0.154107
0.159439
0.163695
0.167543
0.170707
0.173136
0.174658
0.17512
0.17426
0.171892
0.167515
0.160966
0.15102
0.137882
0.118983
0.0979807
0.0704514
0.0575191
0.132783
0.141587
0.145262
0.150116
0.153602
0.156556
0.15863
0.159772
0.159775
0.158449
0.155471
0.150624
0.143362
0.13355
0.119805
0.10263
0.0790433
0.0546802
0.0244787
0.0282706
0.125399
0.133928
0.137236
0.141737
0.144765
0.147222
0.148716
0.149226
0.148534
0.146469
0.142705
0.137038
0.128806
0.117923
0.102751
0.0841771
0.0583068
0.0327551
-0.00151762
0.00624623
0.118675
0.126834
0.129975
0.1342
0.136923
0.139059
0.140174
0.140266
0.139101
0.136506
0.132117
0.125718
0.116507
0.104441
0.0875528
0.0671456
0.0382195
0.0106323
-0.0282157
-0.0190928
0.112184
0.119965
0.122964
0.12692
0.129348
0.131158
0.131878
0.131512
0.129801
0.126553
0.121355
0.113981
0.103509
0.0899527
0.0709988
0.0483982
0.016045
-0.0138282
-0.0559944
-0.0449495
0.105715
0.113134
0.115962
0.119633
0.121751
0.123207
0.123504
0.122648
0.120357
0.116431
0.110413
0.102086
0.0904318
0.0755283
0.0547385
0.0302555
-0.00505541
-0.0368846
-0.0818473
-0.069879
0.0992732
0.106341
0.108988
0.11237
0.114187
0.115296
0.115194
0.113889
0.111085
0.106579
0.09989
0.0908161
0.0782585
0.0623191
0.0400794
0.0139256
-0.0241722
-0.0589745
-0.107186
-0.0948201
0.0929189
0.0996425
0.102119
0.105225
0.10677
0.107567
0.107121
0.10544
0.102224
0.0972696
0.0900743
0.0804492
0.0672343
0.050482
0.0271754
-0.000343221
-0.0402523
-0.0773833
-0.128773
-0.119652
0.0866922
0.0930749
0.0953993
0.0982459
0.0995542
0.100075
0.0993421
0.097354
0.0938172
0.0885248
0.0809681
0.0709606
0.0573418
0.039977
0.0159937
-0.0132109
-0.055231
-0.0986327
-0.154343
-0.155084
0.0805974
0.0866407
0.0888373
0.0914402
0.0925523
0.0928378
0.0918797
0.0896595
0.0859012
0.0803895
0.0726239
0.0624039
0.0485485
0.0307387
0.0067307
-0.0229076
-0.0636613
-0.106503
-0.161074
-0.148666
0.38957
0.388797
0.390103
0.389068
0.39111
0.389825
0.393162
0.391595
0.397193
0.395419
0.405152
0.403444
0.421154
0.420201
0.454555
0.455967
0.529044
0.538611
0.703254
0.76455
0.389568
0.388798
0.3901
0.389077
0.391108
0.389847
0.393168
0.39165
0.397227
0.395552
0.405261
0.403763
0.421455
0.420975
0.455327
0.457888
0.531059
0.54301
0.708834
0.757321
0.389565
0.388795
0.390095
0.389077
0.391101
0.389854
0.393162
0.391672
0.397227
0.39561
0.405284
0.403909
0.421533
0.421329
0.455526
0.458709
0.531458
0.544135
0.709125
0.744862
0.389561
0.388791
0.390086
0.38908
0.391089
0.389861
0.393148
0.391694
0.397215
0.39567
0.405287
0.404063
0.421586
0.421705
0.45568
0.459541
0.531651
0.544687
0.708209
0.725929
0.389556
0.388784
0.390075
0.389078
0.391072
0.389863
0.393124
0.391705
0.397184
0.395707
0.405251
0.404163
0.421546
0.421946
0.455591
0.459979
0.531076
0.543769
0.704558
0.700803
0.389551
0.388775
0.390062
0.389076
0.391051
0.389861
0.393092
0.391708
0.397135
0.395726
0.405179
0.404223
0.42143
0.42209
0.455314
0.460123
0.529888
0.541654
0.698462
0.669513
0.389544
0.388764
0.390046
0.389071
0.391025
0.389855
0.393051
0.391702
0.397069
0.395725
0.405071
0.404238
0.421233
0.422123
0.454834
0.45994
0.528034
0.538333
0.689721
0.631827
0.389537
0.38875
0.390028
0.389065
0.390995
0.389845
0.393001
0.391686
0.396984
0.395703
0.404924
0.404207
0.420953
0.422041
0.454148
0.459425
0.525517
0.533868
0.678067
0.587327
0.38953
0.388732
0.390008
0.389055
0.390963
0.389829
0.392946
0.391659
0.396888
0.395659
0.404749
0.404125
0.4206
0.421834
0.453258
0.458549
0.522332
0.528269
0.663396
0.535614
0.389521
0.388715
0.389981
0.389043
0.390917
0.38981
0.39287
0.391632
0.39676
0.395614
0.404533
0.404045
0.420195
0.421626
0.45229
0.457632
0.518812
0.522281
0.64651
0.475547
0.389521
0.388715
0.389981
0.389043
0.390917
0.38981
0.39287
0.391632
0.39676
0.395614
0.404533
0.404045
0.420195
0.421626
0.45229
0.457632
0.518812
0.522281
0.64651
0.475548
0.38953
0.388732
0.390008
0.389055
0.390963
0.389829
0.392946
0.39166
0.396889
0.395659
0.404749
0.404126
0.4206
0.421834
0.453258
0.458549
0.522332
0.528269
0.663396
0.535615
0.389537
0.38875
0.390028
0.389065
0.390995
0.389845
0.393001
0.391686
0.396984
0.395703
0.404924
0.404207
0.420953
0.422041
0.454148
0.459425
0.525517
0.533868
0.678067
0.587328
0.389544
0.388764
0.390046
0.389071
0.391025
0.389855
0.393051
0.391702
0.397069
0.395725
0.405071
0.404238
0.421233
0.422123
0.454834
0.45994
0.528034
0.538333
0.689721
0.631828
0.389551
0.388775
0.390062
0.389076
0.391051
0.389861
0.393092
0.391708
0.397135
0.395726
0.405179
0.404223
0.42143
0.42209
0.455314
0.460123
0.529888
0.541654
0.698462
0.669513
0.389556
0.388784
0.390075
0.389078
0.391072
0.389863
0.393124
0.391705
0.397184
0.395707
0.405251
0.404163
0.421546
0.421946
0.455591
0.459979
0.531076
0.543769
0.704558
0.700804
0.389561
0.388791
0.390086
0.38908
0.391089
0.389861
0.393148
0.391694
0.397215
0.39567
0.405287
0.404063
0.421586
0.421705
0.45568
0.459541
0.531651
0.544687
0.708209
0.725929
0.389565
0.388795
0.390095
0.389077
0.391101
0.389854
0.393162
0.391672
0.397227
0.39561
0.405284
0.403909
0.421533
0.421329
0.455526
0.458709
0.531458
0.544135
0.709125
0.744862
0.389568
0.388798
0.3901
0.389077
0.391108
0.389847
0.393168
0.39165
0.397227
0.395552
0.405261
0.403763
0.421455
0.420975
0.455327
0.457888
0.531059
0.54301
0.708834
0.757321
0.38957
0.388797
0.390103
0.389068
0.39111
0.389825
0.393162
0.391595
0.397193
0.395419
0.405152
0.403444
0.421154
0.420201
0.454555
0.455967
0.529044
0.538611
0.703254
0.76455
0.0805975
0.0866409
0.0888375
0.0914405
0.0925526
0.0928383
0.0918803
0.0896602
0.085902
0.0803904
0.0726249
0.0624051
0.0485498
0.0307401
0.00673228
-0.0229058
-0.0636594
-0.106501
-0.161071
-0.148663
0.0866923
0.0930751
0.0953996
0.0982462
0.0995546
0.100076
0.0993427
0.0973546
0.093818
0.0885257
0.0809692
0.0709617
0.0573431
0.0399784
0.0159952
-0.0132092
-0.0552291
-0.0986306
-0.154341
-0.155082
0.092919
0.0996427
0.102119
0.105226
0.106771
0.107568
0.107122
0.105441
0.102225
0.0972705
0.0900753
0.0804503
0.0672355
0.0504833
0.0271769
-0.000341565
-0.0402504
-0.0773813
-0.128771
-0.119649
0.0992734
0.106341
0.108988
0.112371
0.114187
0.115297
0.115194
0.113889
0.111085
0.10658
0.099891
0.0908172
0.0782597
0.0623204
0.0400809
0.0139272
-0.0241704
-0.0589726
-0.107184
-0.0948181
0.105715
0.113134
0.115963
0.119634
0.121752
0.123208
0.123504
0.122649
0.120358
0.116431
0.110414
0.102087
0.090433
0.0755296
0.0547399
0.030257
-0.0050537
-0.0368827
-0.0818452
-0.0698771
0.112184
0.119966
0.122964
0.126921
0.129349
0.131158
0.131879
0.131513
0.129801
0.126554
0.121356
0.113982
0.10351
0.089954
0.0710001
0.0483997
0.0160466
-0.0138264
-0.0559925
-0.0449477
0.118675
0.126835
0.129975
0.134201
0.136924
0.139059
0.140175
0.140267
0.139102
0.136506
0.132118
0.125719
0.116508
0.104442
0.0875541
0.067147
0.0382211
0.0106339
-0.0282139
-0.0190911
0.1254
0.133928
0.137236
0.141737
0.144765
0.147222
0.148717
0.149226
0.148534
0.146469
0.142706
0.137039
0.128807
0.117924
0.102752
0.0841785
0.0583083
0.0327567
-0.00151592
0.0062479
0.132783
0.141587
0.145262
0.150116
0.153603
0.156557
0.15863
0.159773
0.159775
0.158449
0.155472
0.150625
0.143363
0.133551
0.119806
0.102631
0.0790447
0.0546817
0.0244803
0.0282722
0.140844
0.149764
0.154107
0.159439
0.163696
0.167544
0.170707
0.173136
0.174659
0.175121
0.174261
0.171893
0.167516
0.160967
0.151021
0.137883
0.118984
0.0979821
0.0704529
0.0575206
0.0300225
0.0335579
0.0341515
0.0345133
0.0334153
0.0312547
0.0276983
0.0226904
0.016008
0.00744795
-0.00327645
-0.016479
-0.0325423
-0.0514675
-0.072091
-0.0929893
-0.112686
-0.122777
-0.135277
-0.117789
0.0342539
0.0381253
0.0388619
0.0394415
0.0385307
0.0365752
0.0332197
0.0284102
0.021906
0.0134851
0.0028296
-0.0104127
-0.0266951
-0.0461296
-0.0680435
-0.0916255
-0.114614
-0.124478
-0.139954
-0.13167
0.0386795
0.0428381
0.0437438
0.0445345
0.0438246
0.0420831
0.038945
0.034355
0.0280599
0.0198176
0.00926396
-0.00404585
-0.0207324
-0.0411419
-0.065149
-0.0923073
-0.119202
-0.131308
-0.151375
-0.147006
0.0432905
0.0477073
0.048793
0.0497959
0.0493003
0.0477872
0.0448894
0.0405485
0.0345049
0.026506
0.0161642
0.0029963
-0.0136953
-0.0344533
-0.0598373
-0.0899679
-0.121115
-0.139903
-0.162173
-0.165556
0.0480804
0.0527404
0.0540075
0.0552263
0.054955
0.0536846
0.0510483
0.0469861
0.0412347
0.0335342
0.0234743
0.0105371
-0.00604792
-0.027014
-0.0534866
-0.085837
-0.120964
-0.14962
-0.172075
-0.187156
0.0530419
0.0579324
0.0593784
0.0608171
0.0607804
0.0597698
0.057421
0.0536736
0.048264
0.0409323
0.0312574
0.0187166
0.00249743
-0.0182964
-0.0452609
-0.07902
-0.118536
-0.15776
-0.181337
-0.211484
0.058165
0.0632694
0.0648871
0.0665496
0.0667618
0.0660345
0.06401
0.0606291
0.055633
0.048768
0.0396093
0.0276434
0.0120399
-0.00818705
-0.0349325
-0.0691728
-0.112621
-0.160585
-0.190224
-0.23259
0.0634491
0.0687438
0.0705231
0.0724148
0.0728925
0.0724719
0.070808
0.0678466
0.0633407
0.0570539
0.0485715
0.0374113
0.0227803
0.00371709
-0.0218243
-0.055338
-0.101183
-0.155404
-0.199275
-0.250377
0.0689239
0.0743982
0.0763311
0.0784579
0.079201
0.0790794
0.0777619
0.0752002
0.0711606
0.0654271
0.0575969
0.0472376
0.0336213
0.0159432
-0.00778854
-0.039444
-0.0852232
-0.144269
-0.209988
-0.258356
0.0746415
0.080346
0.082425
0.0847907
0.0857517
0.0858617
0.0847745
0.0824488
0.0786431
0.0731431
0.0655208
0.0554147
0.0419961
0.0246547
0.00146404
-0.0289388
-0.072455
-0.129695
-0.215149
-0.317505
-0.000732257
-0.00220847
-0.00370408
-0.00523712
-0.0067839
-0.00832674
-0.00984574
-0.0113223
-0.012741
-0.0140922
-0.0153644
-0.01655
-0.0176458
-0.0186502
-0.0195632
-0.0203863
-0.021122
-0.0217741
-0.0223471
-0.0228458
-0.023276
-0.0236435
-0.0239545
-0.0242154
-0.0244326
-0.0246127
-0.0247621
-0.0248873
-0.0249943
-0.0250892
-0.0251775
-0.0252646
-0.0253553
-0.0254541
-0.0255651
-0.0256919
-0.0258377
-0.0260052
-0.0261969
-0.0264148
-0.0266606
-0.0269358
-0.0272414
-0.0275784
-0.0279474
-0.028349
-0.0287834
-0.0292509
-0.0297517
-0.0302856
-0.0308526
-0.0314526
-0.0320855
-0.032751
-0.0334489
-0.0341789
-0.0349409
-0.0357344
-0.0365591
-0.0374146
-0.0383034
-0.0392255
-0.0401772
-0.0411594
-0.042172
-0.0432146
-0.044287
-0.0453891
-0.0465209
-0.0476826
-0.0488728
-0.050088
-0.0513288
-0.0525939
-0.0538939
-0.0552173
-0.0565609
-0.0579228
-0.0593001
-0.0606894
-0.0620859
-0.0634839
-0.0648768
-0.0662561
-0.0676118
-0.0689312
-0.0702001
-0.0713982
-0.0725071
-0.0734899
-0.0743329
-0.0749497
-0.0753858
-0.0753728
-0.0752767
-0.0742026
-0.0736959
-0.0711516
-0.0708771
-0.0671634
-0.000732005
-0.00221006
-0.00370769
-0.00524465
-0.00679582
-0.00834316
-0.00986655
-0.0113474
-0.0127705
-0.0141217
-0.0153939
-0.0165794
-0.0176747
-0.0186783
-0.0195902
-0.0204119
-0.0211461
-0.0217965
-0.0223677
-0.0228647
-0.0232931
-0.0236589
-0.0239683
-0.0242276
-0.0244434
-0.0246222
-0.0247705
-0.0248948
-0.0250011
-0.0250955
-0.0251835
-0.0252705
-0.0253614
-0.0254606
-0.0255723
-0.0257
-0.0258469
-0.0260158
-0.0262092
-0.0264291
-0.0266771
-0.0269547
-0.027263
-0.0276028
-0.027975
-0.0283798
-0.0288178
-0.0292891
-0.0297938
-0.0303318
-0.0309033
-0.0315079
-0.0321456
-0.0328162
-0.0335195
-0.0342553
-0.0350235
-0.0358239
-0.0366567
-0.0375221
-0.0384172
-0.0393406
-0.040296
-0.0412822
-0.0422991
-0.0433468
-0.0444254
-0.0455344
-0.0466732
-0.04784
-0.0490361
-0.0502643
-0.0515189
-0.0528033
-0.0541031
-0.0554254
-0.05677
-0.0581337
-0.0595131
-0.0609042
-0.0623021
-0.0637009
-0.0650936
-0.0664715
-0.0678244
-0.0691392
-0.0704012
-0.0715899
-0.0726861
-0.0736531
-0.074475
-0.0750688
-0.0754731
-0.0754436
-0.075328
-0.0742474
-0.0737509
-0.0712632
-0.0711759
-0.0680215
-0.000729797
-0.00220844
-0.00370708
-0.0052486
-0.00680503
-0.00835754
-0.00988543
-0.0113696
-0.0127945
-0.0141487
-0.0154236
-0.0166106
-0.0177066
-0.0187103
-0.0196218
-0.0204427
-0.0211757
-0.0218247
-0.0223943
-0.0228895
-0.0233161
-0.0236799
-0.0239873
-0.0242447
-0.0244586
-0.0246357
-0.0247824
-0.0249051
-0.0250101
-0.0251034
-0.0251905
-0.0252768
-0.0253673
-0.0254663
-0.025578
-0.025706
-0.0258534
-0.026023
-0.0262173
-0.0264382
-0.0266874
-0.0269664
-0.0272761
-0.0276175
-0.0279913
-0.0283979
-0.0288376
-0.0293107
-0.0298172
-0.030357
-0.0309302
-0.0315365
-0.0321759
-0.032848
-0.0335527
-0.0342896
-0.0350586
-0.0358592
-0.0366911
-0.0375533
-0.0384457
-0.0393776
-0.0403365
-0.0413272
-0.0423488
-0.0434001
-0.0444809
-0.045591
-0.046731
-0.047903
-0.0491032
-0.0503249
-0.05158
-0.0528607
-0.054169
-0.0555011
-0.0568535
-0.058224
-0.0596094
-0.0610058
-0.0624086
-0.0638119
-0.0652086
-0.0665899
-0.0679454
-0.0692621
-0.0705249
-0.0717135
-0.0728078
-0.0737719
-0.0745882
-0.075177
-0.0755734
-0.0755365
-0.0754031
-0.07432
-0.0738806
-0.0714209
-0.0716229
-0.0689667
-0.00072583
-0.00220481
-0.00370406
-0.00525168
-0.00681536
-0.00837519
-0.00990985
-0.0114
-0.01283
-0.014187
-0.0154634
-0.0166515
-0.0177479
-0.0187514
-0.0196622
-0.0204818
-0.0212134
-0.0218606
-0.0224281
-0.0229212
-0.0233454
-0.0237069
-0.0240118
-0.0242668
-0.0244784
-0.0246532
-0.0247977
-0.0249184
-0.0250216
-0.0251132
-0.0251989
-0.0252841
-0.0253737
-0.0254721
-0.0255834
-0.0257113
-0.0258589
-0.0260289
-0.0262239
-0.0264457
-0.026696
-0.0269763
-0.0272876
-0.0276308
-0.0280065
-0.0284152
-0.0288573
-0.0293328
-0.0298419
-0.0303846
-0.0309608
-0.0315703
-0.0322131
-0.0328889
-0.0335975
-0.0343388
-0.0351125
-0.0359186
-0.036757
-0.0376282
-0.0385321
-0.039459
-0.0404249
-0.0414181
-0.0424414
-0.0434963
-0.0445829
-0.0457009
-0.0468488
-0.0480201
-0.0492198
-0.0504609
-0.0517229
-0.0530076
-0.0543161
-0.0556479
-0.0570013
-0.0583733
-0.0597606
-0.061159
-0.0625637
-0.0639687
-0.0653667
-0.066749
-0.068105
-0.0694215
-0.0706834
-0.0718705
-0.0729624
-0.0739243
-0.0747373
-0.0753258
-0.0757214
-0.0756944
-0.0755817
-0.0745245
-0.0742199
-0.0717903
-0.0724503
-0.0702313
-0.000719609
-0.00219888
-0.0036983
-0.00525353
-0.00682625
-0.00839509
-0.00993791
-0.0114348
-0.0128699
-0.014231
-0.0155102
-0.0167
-0.0177972
-0.0188006
-0.0197106
-0.020529
-0.0212588
-0.021904
-0.0224691
-0.0229596
-0.0233811
-0.0237398
-0.0240419
-0.024294
-0.0245027
-0.0246747
-0.0248166
-0.0249348
-0.0250356
-0.0251251
-0.025209
-0.0252926
-0.0253808
-0.0254782
-0.0255888
-0.0257162
-0.0258637
-0.0260339
-0.0262293
-0.0264518
-0.0267031
-0.0269845
-0.0272972
-0.027642
-0.0280195
-0.0284301
-0.0288743
-0.029352
-0.0298635
-0.0304086
-0.0309873
-0.0315994
-0.0322448
-0.0329232
-0.0336344
-0.0343782
-0.0351543
-0.0359624
-0.0368022
-0.0376732
-0.0385752
-0.0395108
-0.0404704
-0.0414703
-0.0425012
-0.0435609
-0.0446492
-0.0457654
-0.0469107
-0.0480979
-0.0493146
-0.0505472
-0.0518093
-0.0531
-0.0544161
-0.0557554
-0.0571154
-0.0584934
-0.0598863
-0.0612901
-0.0626998
-0.0641095
-0.065512
-0.0668984
-0.0682582
-0.0695783
-0.0708434
-0.0720336
-0.0731285
-0.0740943
-0.0749117
-0.0755095
-0.0759165
-0.075915
-0.0758458
-0.0748393
-0.0747246
-0.0723272
-0.0735974
-0.0717285
-0.000710552
-0.00219055
-0.00368971
-0.00525419
-0.00683776
-0.00841732
-0.0099698
-0.0114747
-0.0129161
-0.0142807
-0.0155639
-0.0167559
-0.0178539
-0.0188573
-0.0197665
-0.0205835
-0.0213114
-0.0219542
-0.0225167
-0.0230043
-0.0234228
-0.0237782
-0.024077
-0.0243258
-0.0245313
-0.0247
-0.0248387
-0.024954
-0.025052
-0.0251389
-0.0252205
-0.025302
-0.0253885
-0.0254845
-0.025594
-0.0257207
-0.0258677
-0.0260378
-0.0262334
-0.0264563
-0.0267084
-0.0269908
-0.0273048
-0.027651
-0.0280301
-0.0284426
-0.0288888
-0.0293687
-0.0298825
-0.0304301
-0.0310114
-0.0316263
-0.0322745
-0.032956
-0.0336704
-0.0344175
-0.0351972
-0.0360093
-0.0368536
-0.0377301
-0.0386386
-0.0395781
-0.0405531
-0.0415511
-0.0425801
-0.0436422
-0.0447377
-0.0458662
-0.0470265
-0.0482048
-0.0494123
-0.050654
-0.0519228
-0.053217
-0.0545358
-0.055878
-0.0572414
-0.0586231
-0.0600199
-0.0614277
-0.0628415
-0.0642554
-0.0656619
-0.0670524
-0.0684163
-0.0697406
-0.07101
-0.0722052
-0.0733056
-0.0742791
-0.075106
-0.0757205
-0.0761489
-0.0761868
-0.0761773
-0.0752434
-0.0753618
-0.0729961
-0.0750488
-0.073377
-0.000697839
-0.00217972
-0.00367822
-0.00525371
-0.00684997
-0.00844187
-0.0100054
-0.0115195
-0.0129683
-0.0143407
-0.0156243
-0.0168186
-0.0179176
-0.018921
-0.0198293
-0.0206448
-0.0213705
-0.0220108
-0.0225704
-0.0230548
-0.0234698
-0.0238217
-0.0241169
-0.024362
-0.0245637
-0.0247288
-0.024864
-0.0249758
-0.0250706
-0.0251545
-0.0252333
-0.0253124
-0.0253968
-0.025491