/*--------------------------------*- C++ -*----------------------------------*\
  =========                 |
  \\      /  F ield         | OpenFOAM: The Open Source CFD Toolbox
   \\    /   O peration     | Website:  https://openfoam.org
    \\  /    A nd           | Version:  7
     \\/     M anipulation  |
\*---------------------------------------------------------------------------*/
FoamFile
{
    version     2.0;
    format      ascii;
    class       surfaceScalarField;
    location    "90";
    object      phi;
}
// * * * * * * * * * * * * * * * * * * * * * * * * * * * * * * * * * * * * * //

dimensions      [0 3 -1 0 0 0 0];

internalField   nonuniform List<scalar> 
15760
(
0.00086734
3.40905e-06
-4.87258e-06
0.000870211
8.85421e-06
-1.17252e-05
0.000874463
1.58557e-05
-2.01081e-05
0.000879438
2.07549e-05
-2.57298e-05
0.000884592
2.30013e-05
-2.81548e-05
0.000889561
2.28034e-05
-2.77726e-05
0.000894101
2.04858e-05
-2.50259e-05
0.000898048
1.64628e-05
-2.04097e-05
0.000901294
1.11444e-05
-1.43902e-05
0.000903767
4.89769e-06
-7.37054e-06
0.000905446
-1.99659e-06
3.17436e-07
0.0009063
-9.33215e-06
8.47817e-06
0.000906334
-1.68265e-05
1.6792e-05
0.000905558
-2.43385e-05
2.51145e-05
0.000903992
-3.17386e-05
3.3305e-05
0.000901663
-3.89226e-05
4.12517e-05
0.000898605
-4.58081e-05
4.8866e-05
0.000894856
-5.23293e-05
5.6078e-05
0.000890459
-5.84336e-05
6.28308e-05
0.000885458
-6.40783e-05
6.90788e-05
0.000879903
-6.92285e-05
7.4784e-05
0.000873843
-7.38549e-05
7.99147e-05
0.000867332
-7.79332e-05
8.44444e-05
0.000860425
-8.14437e-05
8.83511e-05
0.000853178
-8.43712e-05
9.1618e-05
0.000845649
-8.67058e-05
9.42342e-05
0.000837898
-8.84437e-05
9.6195e-05
0.000829982
-8.95875e-05
9.75036e-05
0.000821958
-9.01469e-05
9.81708e-05
0.000813882
-9.01389e-05
9.82153e-05
0.000805805
-8.95874e-05
9.76639e-05
0.000797778
-8.85224e-05
9.655e-05
0.000789844
-8.69795e-05
9.49134e-05
0.000782044
-8.49989e-05
9.27988e-05
0.000774413
-8.26241e-05
9.02546e-05
0.000766982
-7.99011e-05
8.7332e-05
0.000759776
-7.68772e-05
8.40834e-05
0.000752815
-7.36005e-05
8.0562e-05
0.000746112
-7.01183e-05
7.68204e-05
0.00073968
-6.64772e-05
7.29101e-05
0.000733521
-6.27223e-05
6.88808e-05
0.000727637
-5.88965e-05
6.47801e-05
0.000722025
-5.50406e-05
6.06527e-05
0.000716677
-5.11927e-05
5.65406e-05
0.000711583
-4.7388e-05
5.24827e-05
0.000706727
-4.36588e-05
4.85143e-05
0.000702094
-4.00345e-05
4.46677e-05
0.000697664
-3.65412e-05
4.09713e-05
0.000693415
-3.3202e-05
3.74505e-05
0.000689326
-3.0037e-05
3.41268e-05
0.00068537
-2.7063e-05
3.10189e-05
0.000681522
-2.42943e-05
2.81417e-05
0.000677757
-2.1742e-05
2.55074e-05
0.000674047
-1.94148e-05
2.31251e-05
0.000670364
-1.73188e-05
2.10013e-05
0.000666682
-1.54581e-05
1.91401e-05
0.000662973
-1.38347e-05
1.75437e-05
0.00065921
-1.24491e-05
1.62121e-05
0.000655366
-1.13003e-05
1.51446e-05
0.000651413
-1.03862e-05
1.43389e-05
0.000647325
-9.70586e-06
1.37937e-05
0.000643076
-9.25904e-06
1.35083e-05
0.000638639
-9.04567e-06
1.34824e-05
0.000633988
-9.06049e-06
1.37118e-05
0.000629096
-9.30957e-06
1.42012e-05
0.000623937
-9.78911e-06
1.49484e-05
0.000618482
-1.05036e-05
1.5959e-05
0.000612701
-1.14608e-05
1.7241e-05
0.000606567
-1.26724e-05
1.88069e-05
0.000600046
-1.41474e-05
2.06682e-05
0.000593106
-1.59079e-05
2.2848e-05
0.000585711
-1.79746e-05
2.53692e-05
0.000577825
-2.03775e-05
2.82638e-05
0.000569406
-2.31463e-05
3.15653e-05
0.00056041
-2.63231e-05
3.53189e-05
0.00055079
-2.99577e-05
3.95783e-05
0.000540492
-3.4109e-05
4.44069e-05
0.000529459
-3.8849e-05
4.98819e-05
0.000517628
-4.42625e-05
5.60935e-05
0.000504929
-5.04522e-05
6.3151e-05
0.000491286
-5.75418e-05
7.1185e-05
0.000476613
-6.56808e-05
8.03532e-05
0.000460818
-7.50513e-05
9.08463e-05
0.000443798
-8.58782e-05
0.000102898
0.00042544
-9.84397e-05
0.000116798
0.000405623
-0.000113088
0.000132906
0.000384218
-0.000130261
0.000151666
0.000361087
-0.000150566
0.000173697
0.000336107
-0.000174703
0.000199683
0.000309172
-0.000203712
0.000230648
0.000280232
-0.000238802
0.000267742
0.000249322
-0.000281936
0.000312846
0.000216804
-0.000334985
0.000367503
0.000182914
-0.000401728
0.000435618
0.000150042
-0.000485254
0.000518126
0.000117911
-0.000585676
0.000617807
9.50664e-05
-0.00071814
0.000740985
7.35931e-05
-0.000812378
0.000833851
5.05085e-05
-0.000956955
0.00098004
-0.000558973
0.000609481
0.000916933
2.37715e-06
0.000919147
6.64018e-06
0.00092259
1.24131e-05
0.000926759
1.65852e-05
0.000931164
1.85969e-05
0.000935452
1.85155e-05
0.000939368
1.65694e-05
0.000942734
1.30973e-05
0.000945424
8.45344e-06
0.000947361
2.96102e-06
0.00094851
-3.14577e-06
0.000948832
-9.65344e-06
0.000948326
-1.63208e-05
0.000947001
-2.30136e-05
0.000944876
-2.96134e-05
0.000941978
-3.60247e-05
0.000938341
-4.21717e-05
0.000934006
-4.79939e-05
0.000929015
-5.3443e-05
0.000923417
-5.84798e-05
0.000917261
-6.30724e-05
0.0009106
-6.71944e-05
0.000903491
-7.08237e-05
0.00089599
-7.39426e-05
0.000888156
-7.65376e-05
0.00088005
-7.86e-05
0.000871733
-8.01263e-05
0.000863264
-8.11188e-05
0.000854704
-8.15863e-05
0.000846108
-8.15437e-05
0.000837533
-8.1012e-05
0.000829029
-8.00179e-05
0.000820642
-7.85931e-05
0.000812416
-7.67729e-05
0.000804388
-7.45962e-05
0.000796591
-7.21039e-05
0.000789052
-6.93379e-05
0.000781793
-6.63411e-05
0.00077483
-6.31558e-05
0.000768176
-5.98235e-05
0.000761839
-5.63845e-05
0.000755819
-5.28773e-05
0.000750117
-4.93382e-05
0.000744726
-4.58015e-05
0.000739637
-4.22989e-05
0.000734837
-3.88593e-05
0.000730312
-3.55092e-05
0.000726043
-3.22721e-05
0.00072201
-2.9169e-05
0.000718191
-2.62181e-05
0.000714563
-2.34347e-05
0.0007111
-2.08317e-05
0.000707777
-1.84195e-05
0.000704569
-1.6206e-05
0.000701447
-1.41971e-05
0.000698385
-1.23965e-05
0.000695357
-1.08063e-05
0.000692335
-9.42692e-06
0.000689292
-8.25756e-06
0.000686202
-7.2961e-06
0.000683038
-6.54152e-06
0.000679773
-5.99425e-06
0.000676382
-5.65511e-06
0.00067284
-5.51804e-06
0.000669119
-5.58891e-06
0.000665193
-5.86318e-06
0.000661034
-6.34487e-06
0.000656615
-7.04113e-06
0.000651905
-7.96208e-06
0.000646872
-9.11457e-06
0.000641484
-1.05202e-05
0.000635706
-1.21968e-05
0.000629501
-1.41725e-05
0.000622828
-1.64728e-05
0.000615641
-1.91361e-05
0.000607891
-2.2208e-05
0.000599524
-2.57422e-05
0.00059048
-2.98046e-05
0.000580691
-3.44735e-05
0.000570082
-3.98435e-05
0.000558569
-4.6029e-05
0.000546057
-5.3169e-05
0.00053244
-6.14335e-05
0.000517595
-7.10331e-05
0.000501385
-8.22297e-05
0.000483655
-9.53583e-05
0.000464229
-0.000110836
0.000442907
-0.000129243
0.000419473
-0.00015127
0.000393693
-0.000177932
0.000365339
-0.000210449
0.000334169
-0.000250766
0.000300165
-0.000300981
0.000263028
-0.000364591
0.000224014
-0.00044624
0.000182335
-0.000543997
0.000142427
-0.000678232
9.97789e-05
-0.00076973
4.10318e-05
-0.000898208
-0.000517941
0.000961414
1.64805e-06
0.0009631
4.95476e-06
0.000965876
9.63615e-06
0.000969345
1.31162e-05
0.000973081
1.48614e-05
0.00097675
1.48461e-05
0.000980096
1.32236e-05
0.000982929
1.02641e-05
0.000985115
6.26746e-06
0.000986563
1.51307e-06
0.00098723
-3.81242e-06
0.000987071
-9.49466e-06
0.00098608
-1.533e-05
0.000984263
-2.11965e-05
0.000981638
-2.69878e-05
0.00097823
-3.26175e-05
0.000974076
-3.80174e-05
0.000969215
-4.31329e-05
0.000963692
-4.79203e-05
0.000957557
-5.23444e-05
0.000950861
-5.63766e-05
0.00094366
-5.99931e-05
0.000936011
-6.31745e-05
0.000927973
-6.5905e-05
0.000919608
-6.81728e-05
0.000910978
-6.99701e-05
0.000902146
-7.12939e-05
0.000893174
-7.21462e-05
0.000884122
-7.25346e-05
0.00087505
-7.24721e-05
0.000866015
-7.1977e-05
0.00085707
-7.10726e-05
0.000848263
-6.97863e-05
0.00083964
-6.81492e-05
0.000831238
-6.61951e-05
0.000823094
-6.39598e-05
0.000815237
-6.14803e-05
0.000807689
-5.87939e-05
0.000800471
-5.59378e-05
0.000793597
-5.29485e-05
0.000787074
-4.98615e-05
0.000780907
-4.67107e-05
0.000775097
-4.3528e-05
0.000769639
-4.03438e-05
0.000764526
-3.71859e-05
0.000759747
-3.408e-05
0.000755287
-3.10496e-05
0.000751131
-2.81155e-05
0.000747258
-2.52964e-05
0.000743648
-2.26083e-05
0.000740279
-2.00652e-05
0.000737126
-1.76786e-05
0.000734164
-1.54577e-05
0.000731368
-1.34099e-05
0.000728711
-1.15403e-05
0.000726167
-9.85261e-06
0.000723709
-8.34865e-06
0.000721312
-7.02895e-06
0.000718947
-5.89268e-06
0.000716588
-4.93747e-06
0.000714209
-4.16224e-06
0.000711784
-3.56999e-06
0.000709289
-3.15943e-06
0.000706693
-2.9218e-06
0.000703975
-2.87104e-06
0.000701108
-2.99607e-06
0.000698062
-3.29924e-06
0.000694809
-3.78834e-06
0.000691323
-4.4757e-06
0.000687571
-5.36296e-06
0.00068352
-6.46929e-06
0.000679135
-7.81178e-06
0.00067438
-9.4168e-06
0.000669212
-1.13048e-05
0.000663585
-1.35099e-05
0.000657451
-1.60733e-05
0.000650752
-1.9043e-05
0.000643425
-2.24781e-05
0.000635401
-2.64491e-05
0.000626599
-3.10413e-05
0.000616928
-3.63583e-05
0.000606285
-4.25259e-05
0.00059455
-4.96989e-05
0.000581586
-5.80694e-05
0.000567234
-6.78774e-05
0.000551307
-7.94316e-05
0.00053359
-9.31178e-05
0.000513822
-0.000109476
0.000491707
-0.000129156
0.000466892
-0.000153117
0.000438983
-0.000182539
0.00040748
-0.000219263
0.000371987
-0.000265488
0.000331695
-0.000324299
0.000286844
-0.000401389
0.000236049
-0.000493202
0.000180664
-0.000622847
0.0001201
-0.000709166
4.05605e-05
-0.000818669
-0.000477381
0.00100062
1.13549e-06
0.0010019
3.67301e-06
0.00100414
7.4007e-06
0.00100701
1.02398e-05
0.00101017
1.17072e-05
0.00101329
1.17242e-05
0.00101612
1.03877e-05
0.00101848
7.90811e-06
0.00102021
4.53398e-06
0.00102123
5.00254e-07
0.00102146
-4.05081e-06
0.00102088
-8.9097e-06
0.00101946
-1.39108e-05
0.00101721
-1.89461e-05
0.00101414
-2.3922e-05
0.00101029
-2.87627e-05
0.00100568
-3.3408e-05
0.00100036
-3.78097e-05
0.000994366
-4.19295e-05
0.000987758
-4.57362e-05
0.000980586
-4.92048e-05
0.000972908
-5.23145e-05
0.000964781
-5.50482e-05
0.000956269
-5.73924e-05
0.000947432
-5.93367e-05
0.000938337
-6.08744e-05
0.000929046
-6.20028e-05
0.000919623
-6.27237e-05
0.000910132
-6.30435e-05
0.000900633
-6.29731e-05
0.000891184
-6.25283e-05
0.00088184
-6.17288e-05
0.000872652
-6.05981e-05
0.000863666
-5.91629e-05
0.000854923
-5.7452e-05
0.000846459
-5.54962e-05
0.000838306
-5.33271e-05
0.000830489
-5.09769e-05
0.000823029
-4.84776e-05
0.000815941
-4.58605e-05
0.000809236
-4.31564e-05
0.000802919
-4.03943e-05
0.000796993
-3.7602e-05
0.000791455
-3.48055e-05
0.000786298
-3.20291e-05
0.000781513
-2.9295e-05
0.000777087
-2.66235e-05
0.000773005
-2.40328e-05
0.000769247
-2.1539e-05
0.000765795
-1.91563e-05
0.000762627
-1.68967e-05
0.000759718
-1.47703e-05
0.000757046
-1.27854e-05
0.000754584
-1.09482e-05
0.000752308
-9.2636e-06
0.00075019
-7.73465e-06
0.000748204
-6.36313e-06
0.000746325
-5.14952e-06
0.000744525
-4.09292e-06
0.000742779
-3.191e-06
0.000741059
-2.44273e-06
0.000739337
-1.84838e-06
0.000737592
-1.41411e-06
0.000735802
-1.13171e-06
0.000733932
-1.00107e-06
0.000731959
-1.023e-06
0.000729858
-1.19793e-06
0.000727602
-1.53287e-06
0.000725158
-2.03154e-06
0.000722493
-2.69831e-06
0.00071958
-3.5563e-06
0.000716383
-4.61388e-06
0.000712862
-5.89657e-06
0.000708978
-7.42048e-06
0.000704683
-9.21517e-06
0.000699927
-1.13171e-05
0.000694652
-1.37678e-05
0.000688793
-1.66191e-05
0.000682276
-1.99327e-05
0.000675019
-2.37838e-05
0.000666924
-2.82633e-05
0.00065788
-3.34823e-05
0.000647758
-3.95771e-05
0.000636407
-4.67182e-05
0.000623648
-5.51185e-05
0.00060927
-6.50533e-05
0.00059302
-7.68679e-05
0.00057459
-9.10457e-05
0.000553613
-0.000108178
0.000529632
-0.000129135
0.000502104
-0.000155012
0.000470312
-0.000187471
0.00043351
-0.000228687
0.000390448
-0.000281237
0.000340454
-0.000351395
0.000281669
-0.000434416
0.000213109
-0.000554288
0.000137526
-0.000633583
4.40873e-05
-0.00072523
-0.000433293
0.00103442
7.75541e-07
0.0010354
2.69315e-06
0.00103721
5.59522e-06
0.0010396
7.85118e-06
0.00104226
9.04434e-06
0.00104491
9.07325e-06
0.0010473
7.99493e-06
0.00104924
5.96873e-06
0.00105058
3.19402e-06
0.00105122
-1.33135e-07
0.00105108
-3.9177e-06
0.00105013
-7.95634e-06
0.00104834
-1.21226e-05
0.00104572
-1.63231e-05
0.00104228
-2.04785e-05
0.00103804
-2.4524e-05
0.00103304
-2.84083e-05
0.00102732
-3.20902e-05
0.00102092
-3.55369e-05
0.00101391
-3.87219e-05
0.00100633
-4.16238e-05
0.00099824
-4.42248e-05
0.000989702
-4.65106e-05
0.000980779
-4.84695e-05
0.000971536
-5.00928e-05
0.000962036
-5.13748e-05
0.000952347
-5.23133e-05
0.000942532
-5.29096e-05
0.000932658
-5.31688e-05
0.000922785
-5.31001e-05
0.000912973
-5.27165e-05
0.000903278
-5.20343e-05
0.000893753
-5.10731e-05
0.000884446
-4.98551e-05
0.000875398
-4.84042e-05
0.000866648
-4.67461e-05
0.000858228
-4.49074e-05
0.000850166
-4.29147e-05
0.000842483
-4.0795e-05
0.000835197
-3.85745e-05
0.00082832
-3.62789e-05
0.000821858
-3.39327e-05
0.000815815
-3.15591e-05
0.00081019
-2.91802e-05
0.000804977
-2.68163e-05
0.000800168
-2.4486e-05
0.000795751
-2.22067e-05
0.000791712
-1.99935e-05
0.000788033
-1.78602e-05
0.000784695
-1.58188e-05
0.000781678
-1.38794e-05
0.000778959
-1.20507e-05
0.000776513
-1.03397e-05
0.000774316
-8.75175e-06
0.000772344
-7.29098e-06
0.000770569
-5.9601e-06
0.000768967
-4.76065e-06
0.00076751
-3.6931e-06
0.000766174
-2.75648e-06
0.000764931
-1.94763e-06
0.000763751
-1.26297e-06
0.00076262
-7.17448e-07
0.000761503
-2.97498e-07
0.000760363
8.78651e-09
0.000759202
1.59223e-07
0.00075798
1.99e-07
0.000756664
1.18055e-07
0.000755225
-9.35781e-08
0.00075365
-4.56152e-07
0.000751903
-9.52005e-07
0.000749942
-1.59487e-06
0.000747736
-2.40753e-06
0.00074525
-3.41101e-06
0.000742442
-4.61273e-06
0.000739265
-6.0379e-06
0.000735667
-7.71847e-06
0.000731588
-9.68951e-06
0.000726964
-1.19947e-05
0.000721718
-1.46867e-05
0.000715763
-1.78291e-05
0.000708999
-2.14993e-05
0.000701309
-2.57918e-05
0.000692554
-3.08227e-05
0.000682574
-3.67375e-05
0.000671173
-4.37181e-05
0.000658121
-5.20007e-05
0.000643135
-6.18821e-05
0.000625867
-7.37779e-05
0.000605892
-8.82035e-05
0.000582669
-0.000105912
0.000555532
-0.000127875
0.000523581
-0.00015552
0.000485778
-0.000190883
0.000440524
-0.000235983
0.000386309
-0.00029718
0.000321007
-0.000369114
0.000241729
-0.00047501
0.000153686
-0.000545539
4.99739e-05
-0.000621518
-0.000383319
0.00106273
5.21388e-07
0.00106349
1.93402e-06
0.00106496
4.12207e-06
0.00106696
5.85183e-06
0.00106922
6.78329e-06
0.00107148
6.81398e-06
0.0010735
5.97421e-06
0.00107509
4.38083e-06
0.0010761
2.18955e-06
0.00107642
-4.54993e-07
0.00107597
-3.46886e-06
0.00107471
-6.69465e-06
0.00107261
-1.00265e-05
0.00106968
-1.33903e-05
0.00106592
-1.67212e-05
0.00106136
-1.99668e-05
0.00105604
-2.30849e-05
0.00104999
-2.60419e-05
0.00104327
-2.8811e-05
0.00103592
-3.13704e-05
0.00102799
-3.37026e-05
0.00101956
-3.5793e-05
0.00101068
-3.763e-05
0.00100142
-3.9204e-05
0.000991832
-4.05079e-05
0.000981994
-4.15369e-05
0.00097197
-4.22892e-05
0.000961826
-4.27657e-05
0.000951628
-4.29705e-05
0.000941438
-4.29106e-05
0.000931318
-4.25965e-05
0.000921325
-4.20412e-05
0.000911512
-4.12602e-05
0.000901928
-4.02713e-05
0.000892618
-3.90937e-05
0.00088362
-3.7748e-05
0.000874968
-3.62553e-05
0.00086669
-3.46373e-05
0.000858811
-3.29155e-05
0.000851348
-3.11112e-05
0.000844314
-2.9245e-05
0.000837718
-2.73367e-05
0.000831564
-2.54051e-05
0.000825851
-2.3468e-05
0.000820577
-2.15418e-05
0.000815733
-1.96418e-05
0.000811308
-1.77819e-05
0.000807289
-1.59745e-05
0.000803659
-1.42307e-05
0.000800401
-1.25602e-05
0.000797493
-1.09715e-05
0.000794914
-9.47145e-06
0.00079264
-8.06583e-06
0.000790647
-6.75908e-06
0.000788911
-5.55448e-06
0.000787405
-4.45425e-06
0.000786104
-3.45963e-06
0.000784982
-2.571e-06
0.000784012
-1.78718e-06
0.00078317
-1.10492e-06
0.000782432
-5.25569e-07
0.000781753
-3.87093e-08
0.000781137
3.18577e-07
0.000780559
5.86787e-07
0.000779963
7.55768e-07
0.000779338
8.23483e-07
0.000778664
7.92192e-07
0.000777915
6.55547e-07
0.000777046
4.12764e-07
0.000776021
7.33647e-08
0.000774839
-4.13027e-07
0.000773448
-1.01665e-06
0.000771809
-1.772e-06
0.000769882
-2.68585e-06
0.000767621
-3.77631e-06
0.000764972
-5.06986e-06
0.000761877
-6.59477e-06
0.000758269
-8.38654e-06
0.00075407
-1.04879e-05
0.000749192
-1.29505e-05
0.00074353
-1.58372e-05
0.000736962
-1.92247e-05
0.000729347
-2.32074e-05
0.000720513
-2.79034e-05
0.000710256
-3.34607e-05
0.000698327
-4.00718e-05
0.000684424
-4.79792e-05
0.000668168
-5.75218e-05
0.000649089
-6.9125e-05
0.000626582
-8.34049e-05
0.000599886
-0.000101178
0.000567961
-0.000123596
0.000529531
-0.000152452
0.000482749
-0.000189201
0.000425369
-0.0002398
0.000355135
-0.000298881
0.000267576
-0.00038745
0.000169407
-0.00044737
5.73247e-05
-0.000509436
-0.000325995
0.00108547
3.38907e-07
0.00108607
1.33196e-06
0.00108729
2.897e-06
0.001089
4.15141e-06
0.00109094
4.83731e-06
0.00109289
4.86622e-06
0.00109461
4.25195e-06
0.00109592
3.0754e-06
0.00109666
1.45003e-06
0.00109672
-5.16326e-07
0.00109602
-2.77226e-06
0.00109451
-5.18702e-06
0.00109217
-7.68567e-06
0.00108899
-1.02117e-05
0.00108499
-1.27158e-05
0.00108018
-1.51579e-05
0.0010746
-1.75059e-05
0.00106829
-1.9734e-05
0.0010613
-2.18217e-05
0.00105369
-2.37522e-05
0.00104549
-2.5512e-05
0.00103679
-2.70901e-05
0.00102764
-2.84772e-05
0.0010181
-2.96661e-05
0.00100824
-3.06512e-05
0.000998136
-3.14288e-05
0.000987844
-3.19973e-05
0.000977436
-3.23573e-05
0.000966977
-3.25117e-05
0.000956532
-3.24657e-05
0.000946162
-3.2227e-05
0.000935927
-3.18054e-05
0.000925879
-3.12125e-05
0.000916069
-3.04615e-05
0.000906542
-2.9567e-05
0.000897339
-2.85444e-05
0.000888493
-2.74098e-05
0.000880036
-2.61795e-05
0.00087199
-2.48697e-05
0.000864375
-2.34966e-05
0.000857206
-2.20759e-05
0.000850492
-2.06226e-05
0.000844238
-1.91511e-05
0.000838445
-1.76748e-05
0.000833109
-1.62063e-05
0.000828225
-1.47573e-05
0.000823781
-1.33383e-05
0.000819765
-1.19589e-05
0.000816162
-1.06276e-05
0.000812954
-9.35184e-06
0.00081012
-8.13801e-06
0.00080764
-6.99146e-06
0.000805491
-5.91653e-06
0.000803649
-4.91662e-06
0.000802088
-3.99422e-06
0.000800785
-3.15098e-06
0.000799713
-2.38784e-06
0.000798848
-1.70514e-06
0.000798162
-1.10162e-06
0.00079763
-5.73083e-07
0.000797215
-1.10303e-07
0.000796924
2.51727e-07
0.0007967
5.43028e-07
0.000796523
7.64163e-07
0.000796376
9.02638e-07
0.000796227
9.71974e-07
0.000796049
9.70079e-07
0.000795814
8.90746e-07
0.0007955
7.27236e-07
0.000795088
4.85322e-07
0.000794504
1.70267e-07
0.000793744
-2.55738e-07
0.000792773
-8.01853e-07
0.000791545
-1.45712e-06
0.000790009
-2.24039e-06
0.000788114
-3.17468e-06
0.0007858
-4.28137e-06
0.000783001
-5.58723e-06
0.000779638
-7.1247e-06
0.00077562
-8.93305e-06
0.000770843
-1.10599e-05
0.000765182
-1.35634e-05
0.000758489
-1.65151e-05
0.00075059
-2.00042e-05
0.000741272
-2.41429e-05
0.000730277
-2.90768e-05
0.000717288
-3.499e-05
0.000701905
-4.21387e-05
0.000683628
-5.08483e-05
0.000661808
-6.15846e-05
0.000635613
-7.49836e-05
0.000603914
-9.18972e-05
0.000565246
-0.000113784
0.000517618
-0.000141574
0.000458169
-0.000180351
0.000384609
-0.000225321
0.000291116
-0.000293957
0.000185082
-0.000341337
6.57873e-05
-0.000390141
-0.000260207
0.00110257
2.03162e-07
0.00110307
8.36842e-07
0.00110412
1.84764e-06
0.0011056
2.66762e-06
0.00110731
3.12347e-06
0.00110903
3.15055e-06
0.00111053
2.75344e-06
0.00111162
1.98244e-06
0.00111216
9.11629e-07
0.00111203
-3.90328e-07
0.00111115
-1.88824e-06
0.00110946
-3.49723e-06
0.00110694
-5.16455e-06
0.00110358
-6.85275e-06
0.00109939
-8.52868e-06
0.0010944
-1.01652e-05
0.00108863
-1.17403e-05
0.00108214
-1.32367e-05
0.00107496
-1.46401e-05
0.00106714
-1.59392e-05
0.00105876
-1.71245e-05
0.00104985
-1.81885e-05
0.0010405
-1.91246e-05
0.00103076
-1.99278e-05
0.00102071
-2.05942e-05
0.0010104
-2.11209e-05
0.000999908
-2.15068e-05
0.000989302
-2.1752e-05
0.000978649
-2.18584e-05
0.000968012
-2.18292e-05
0.000957455
-2.16696e-05
0.000947036
-2.1386e-05
0.000936809
-2.09862e-05
0.000926827
-2.0479e-05
0.000917134
-1.98741e-05
0.000907772
-1.91821e-05
0.000898776
-1.84137e-05
0.000890176
-1.758e-05
0.000881999
-1.66921e-05
0.000874263
-1.57609e-05
0.000866984
-1.47972e-05
0.000860173
-1.38111e-05
0.000853834
-1.28127e-05
0.00084797
-1.1811e-05
0.000842579
-1.08147e-05
0.000837653
-9.83185e-06
0.000833185
-8.86971e-06
0.000829161
-7.93486e-06
0.000825566
-7.03314e-06
0.000822384
-6.16967e-06
0.000819595
-5.34883e-06
0.000817178
-4.57427e-06
0.00081511
-3.84894e-06
0.000813369
-3.1751e-06
0.000811929
-2.55438e-06
0.000810766
-1.98784e-06
0.000809854
-1.47596e-06
0.000809168
-1.01894e-06
0.000808681
-6.15175e-07
0.00080837
-2.61786e-07
0.000808216
4.40262e-08
0.000808177
2.90587e-07
0.000808238
4.81946e-07
0.000808372
6.29697e-07
0.000808548
7.26941e-07
0.000808743
7.76753e-07
0.000808934
7.79716e-07
0.000809091
7.33537e-07
0.000809183
6.34991e-07
0.000809179
4.89753e-07
0.000809069
2.79606e-07
0.000808792
2.13859e-08
0.000808318
-3.27625e-07
0.000807606
-7.45356e-07
0.000806611
-1.24558e-06
0.000805281
-1.84409e-06
0.000803555
-2.55555e-06
0.000801366
-3.39846e-06
0.000798636
-4.39482e-06
0.000795275
-5.57125e-06
0.000791175
-6.95993e-06
0.000786211
-8.59995e-06
0.000780235
-1.05393e-05
0.000773069
-1.28378e-05
0.000764496
-1.55704e-05
0.000754254
-1.88344e-05
0.000742017
-2.27526e-05
0.000727374
-2.74958e-05
0.000709808
-3.32827e-05
0.000688645
-4.04218e-05
0.000663011
-4.93489e-05
0.000631728
-6.06142e-05
0.000593197
-7.52531e-05
0.00054538
-9.37567e-05
0.000484926
-0.000119896
0.000409605
-0.00015
0.000312427
-0.00019678
0.000200849
-0.000229759
7.51491e-05
-0.000264441
-0.000185058
0.001114
9.55135e-08
0.00111443
4.08354e-07
0.00111537
9.10908e-07
0.00111671
1.32498e-06
0.00111827
1.56256e-06
0.00111983
1.58864e-06
0.00112118
1.4033e-06
0.00112214
1.02919e-06
0.00112255
5.02856e-07
0.00112229
-1.34296e-07
0.00112129
-8.8587e-07
0.00111948
-1.691e-06
0.00111684
-2.52871e-06
0.00111337
-3.37976e-06
0.00110907
-4.22719e-06
0.00110396
-5.05703e-06
0.00109808
-5.85798e-06
0.00109146
-6.62089e-06
0.00108416
-7.33835e-06
0.00107623
-8.00424e-06
0.00106772
-8.61354e-06
0.00105869
-9.16201e-06
0.00104921
-9.64609e-06
0.00103935
-1.00628e-05
0.00102916
-1.04099e-05
0.00101873
-1.06855e-05
0.00100811
-1.08889e-05
0.000997376
-1.10197e-05
0.000986597
-1.10788e-05
0.000975835
-1.10676e-05
0.000965154
-1.09885e-05
0.000954613
-1.08449e-05
0.000944267
-1.06405e-05
0.000934168
-1.03799e-05
0.000924362
-1.00682e-05
0.000914891
-9.71067e-06
0.00090579
-9.31307e-06
0.000897091
-8.8812e-06
0.00088882
-8.42091e-06
0.000880997
-7.93801e-06
0.000873638
-7.43821e-06
0.000866754
-6.92704e-06
0.000860351
-6.40984e-06
0.000854432
-5.8915e-06
0.000848994
-5.37675e-06
0.000844032
-4.86993e-06
0.000839537
-4.37502e-06
0.000835498
-3.89557e-06
0.0008319
-3.43476e-06
0.000828725
-2.99535e-06
0.000825956
-2.57966e-06
0.000823571
-2.18962e-06
0.000821549
-1.82674e-06
0.000819866
-1.49212e-06
0.000818498
-1.1865e-06
0.000817421
-9.10275e-07
0.000816608
-6.63504e-07
0.000816036
-4.46312e-07
0.000815678
-2.57129e-07
0.000815508
-9.19622e-08
0.000815503
4.87618e-08
0.000815639
1.54786e-07
0.000815883
2.37784e-07
0.000816212
3.01119e-07
0.000816601
3.37751e-07
0.000817024
3.53165e-07
0.000817456
3.48193e-07
0.000817869
3.20942e-07
0.000818236
2.67389e-07
0.00081853
1.95914e-07
0.000818706
1.03768e-07
0.000818743
-1.54727e-08
0.000818604
-1.89325e-07
0.000818249
-3.89904e-07
0.000817623
-6.19958e-07
0.000816677
-8.98157e-07
0.000815354
-1.23186e-06
0.000813585
-1.62987e-06
0.000811294
-2.10358e-06
0.000808389
-2.66688e-06
0.000804766
-3.33649e-06
0.000800298
-4.13236e-06
0.000794838
-5.07892e-06
0.000788206
-6.20624e-06
0.000780188
-7.55175e-06
0.000770517
-9.16384e-06
0.000758868
-1.11038e-05
0.000744828
-1.34554e-05
0.000727874
-1.63288e-05
0.000707325
-1.98731e-05
0.000682289
-2.43129e-05
0.000651578
-2.99024e-05
0.000613528
-3.72031e-05
0.000566136
-4.63653e-05
0.000505675
-5.94354e-05
0.000430081
-7.44054e-05
0.00033137
-9.8069e-05
0.000216692
-0.00011508
8.60312e-05
-0.000133781
-9.90269e-05
0.00111973
1.14989e-09
0.00112012
1.22638e-08
0.001121
3.04037e-08
0.00112228
5.34198e-08
0.00112376
7.89068e-08
0.00112524
1.04207e-07
0.00112652
1.27292e-07
0.0011274
1.45089e-07
0.00112775
1.58696e-07
0.00112744
1.72191e-07
0.00112638
1.73006e-07
0.00112452
1.67206e-07
0.00112184
1.56677e-07
0.00111832
1.41271e-07
0.00111397
1.21498e-07
0.00110881
9.79878e-08
0.00110288
7.13672e-08
0.00109622
4.22754e-08
0.00108887
1.13497e-08
0.00108089
-2.0675e-08
0.00107233
-5.31412e-08
0.00106325
-8.5327e-08
0.00105372
-1.16472e-07
0.0010438
-1.45837e-07
0.00103357
-1.72701e-07
0.00102308
-1.96394e-07
0.00101241
-2.16313e-07
0.00100162
-2.31951e-07
0.000990782
-2.42911e-07
0.000979964
-2.4892e-07
0.000969225
-2.49832e-07
0.000958626
-2.45632e-07
0.000948222
-2.36432e-07
0.000938064
-2.22462e-07
0.0009282
-2.04058e-07
0.000918671
-1.81656e-07
0.000909514
-1.55774e-07
0.00090076
-1.27003e-07
0.000892435
-9.59929e-08
0.00088456
-6.34404e-08
0.000877152
-3.00654e-08
0.000870222
3.44647e-09
0.000863776
3.60435e-08
0.000857817
6.73674e-08
0.000852343
9.65549e-08
0.000847351
1.22889e-07
0.00084283
1.45763e-07
0.00083877
1.64628e-07
0.000835156
1.79011e-07
0.000831972
1.88535e-07
0.000829199
1.92923e-07
0.000826818
1.92015e-07
0.000824805
1.85765e-07
0.000823139
1.74247e-07
0.000821795
1.57659e-07
0.000820748
1.3627e-07
0.000819974
1.10488e-07
0.000819448
8.03476e-08
0.000819143
4.71083e-08
0.000819039
1.192e-08
0.000819109
-2.10542e-08
0.000819319
-5.4454e-08
0.000819646
-8.97578e-08
0.000820068
-1.20712e-07
0.000820557
-1.51474e-07
0.000821089
-1.78744e-07
0.000821638
-2.01045e-07
0.000822177
-2.18158e-07
0.000822678
-2.32796e-07
0.000823111
-2.37147e-07
0.000823452
-2.3806e-07
0.000823665
-2.28123e-07
0.000823701
-2.25086e-07
0.000823519
-2.08534e-07
0.000823085
-1.85137e-07
0.000822343
-1.56424e-07
0.000821236
-1.24795e-07
0.000819697
-9.12262e-08
0.00081765
-5.66018e-08
0.000815006
-2.2204e-08
0.000811659
1.04077e-08
0.000807486
4.02612e-08
0.000802341
6.62076e-08
0.000796047
8.74516e-08
0.000788392
1.03524e-07
0.000779114
1.14208e-07
0.000767891
1.19435e-07
0.000754316
1.19526e-07
0.000737872
1.14874e-07
0.000717893
1.06127e-07
0.000693486
9.40621e-08
0.000663504
7.97432e-08
0.000626237
6.38665e-08
0.000579823
4.81313e-08
0.000520356
3.23462e-08
0.000445931
1.88351e-08
0.000347856
6.50241e-09
0.000232779
-3.47e-09
9.90099e-05
-1.15604e-08
-1.70717e-08
-0.000672406
0.00956645
-0.00944106
-0.000798028
0.00955167
-0.00942605
-0.00092437
0.00952813
-0.00940179
-0.00105199
0.00950645
-0.00937883
-0.00118126
0.00948828
-0.00935901
-0.00131248
0.00947453
-0.00934332
-0.00144608
0.00946589
-0.00933229
-0.00158252
0.00946286
-0.00932641
-0.00172251
0.00946625
-0.00932627
-0.00186707
0.00947787
-0.00933331
-0.00201812
0.00950113
-0.00935009
-0.0021781
0.00954346
-0.00938347
-0.00235109
0.00961309
-0.0094401
-0.00253895
0.00972093
-0.00953307
-0.00273639
0.009856
-0.00965856
-0.00290418
0.00996998
-0.0098022
-0.00293607
0.00985587
-0.00982398
-0.00257653
0.00906748
-0.00942703
-0.0015084
0.00661514
-0.00768327
0.00216143
-0.00366983
-0.000679917
0.00969132
-0.000805301
0.00967706
-0.00093148
0.00965431
-0.00105901
0.00963398
-0.0011881
0.00961738
-0.00131915
0.00960558
-0.00145249
0.00959923
-0.00158858
0.00959895
-0.00172807
0.00960575
-0.00187204
0.00962184
-0.00202232
0.00965141
-0.00218153
0.00970266
-0.00235255
0.00978412
-0.0025341
0.00990248
-0.00271068
0.0100326
-0.00282273
0.010082
-0.0027326
0.00976574
-0.00220151
0.00853639
-0.0010716
0.00548523
0.00108983
-0.000687145
0.00981574
-0.000812183
0.00980209
-0.000938152
0.00978028
-0.00106548
0.00976131
-0.00119438
0.00974628
-0.00132521
0.0097364
-0.00145828
0.0097323
-0.00159403
0.0097347
-0.00173311
0.00974483
-0.00187662
0.00976535
-0.00202643
0.00980121
-0.00218489
0.00986112
-0.00235338
0.00995261
-0.00252571
0.0100748
-0.00267442
0.0101813
-0.00272037
0.010128
-0.00250816
0.00955352
-0.00183664
0.00786488
-0.00069499
0.00434358
0.00039484
-0.000694055
0.00993969
-0.000818704
0.00992674
-0.000944387
0.00990596
-0.00107144
0.00988836
-0.00120008
0.00987492
-0.00133061
0.00986693
-0.00146334
0.00986503
-0.00159869
0.00987005
-0.0017373
0.00988345
-0.00188031
0.00990836
-0.00202949
0.0099504
-0.00218667
0.0100183
-0.00235105
0.010117
-0.00251028
0.010234
-0.00262405
0.0102951
-0.00259702
0.010101
-0.00226776
0.00922426
-0.00147987
0.00707699
-0.000428957
0.00329267
-3.41171e-05
-0.000700624
0.0100632
-0.00082486
0.010051
-0.000950198
0.0100313
-0.00107691
0.0100151
-0.00120521
0.0100032
-0.00133537
0.00999708
-0.00146766
0.00999732
-0.00160248
0.0100049
-0.0017405
0.0100215
-0.00188283
0.0100507
-0.0020311
0.0100987
-0.00218619
0.0101734
-0.0023443
0.0102751
-0.00248579
0.0103755
-0.00255737
0.0103666
-0.00245255
0.00999614
-0.00201862
0.00879033
-0.0011556
0.00621397
-0.000243673
0.00238074
-0.00027779
-0.000706855
0.0101861
-0.000830662
0.0101748
-0.000955618
0.0101563
-0.00108196
0.0101414
-0.00120986
0.0101311
-0.00133957
0.0101268
-0.00147133
0.0101291
-0.00160552
0.0101391
-0.00174278
0.0101587
-0.00188415
0.0101921
-0.00203088
0.0102454
-0.00218249
0.010325
-0.00233145
0.0104241
-0.00245052
0.0104946
-0.00247482
0.0103909
-0.00229134
0.00981266
-0.0017699
0.00826889
-0.000879854
0.00532393
-0.000126004
0.00162689
-0.000403794
-0.000712723
0.0103085
-0.000836077
0.0102981
-0.000960607
0.0102808
-0.00108652
0.0102673
-0.00121396
0.0102586
-0.00134314
0.010256
-0.00147429
0.0102602
-0.00160774
0.0102725
-0.00174414
0.0102951
-0.00188445
0.0103324
-0.00202946
0.0103904
-0.00217702
0.0104725
-0.00231513
0.0105622
-0.0024082
0.0105877
-0.00238125
0.010364
-0.0021202
0.0095516
-0.00152534
0.00767403
-0.000659675
0.00445827
-6.24483e-05
0.00102966
-0.000466242
-0.000718278
0.0104302
-0.000841186
0.010421
-0.000965284
0.0104049
-0.00109077
0.0103928
-0.00121774
0.0103855
-0.00134638
0.0103846
-0.00147688
0.0103907
-0.00160956
0.0104052
-0.00174499
0.0104305
-0.00188391
0.0104713
-0.0020262
0.0105327
-0.00216729
0.0106136
-0.00229016
0.0106851
-0.00235205
0.0106495
-0.00227249
0.0102844
-0.00194238
0.00922149
-0.0012961
0.00702776
-0.000494718
0.00365688
-3.80643e-05
0.00057301
-0.000504307
-0.000723363
0.0105513
-0.000845818
0.0105435
-0.000969373