/*--------------------------------*- C++ -*----------------------------------*\
  =========                 |
  \\      /  F ield         | OpenFOAM: The Open Source CFD Toolbox
   \\    /   O peration     | Website:  https://openfoam.org
    \\  /    A nd           | Version:  7
     \\/     M anipulation  |
\*---------------------------------------------------------------------------*/
FoamFile
{
    version     2.0;
    format      ascii;
    class       volVectorField;
    location    "90";
    object      U;
}
// * * * * * * * * * * * * * * * * * * * * * * * * * * * * * * * * * * * * * //

dimensions      [0 1 -1 0 0 0 0];

internalField   nonuniform List<vector> 
8000
(
(-0.244907 -0.000346624 -6.63043e-20)
(-0.245659 -0.000873506 2.73704e-19)
(-0.246624 -0.00153316 -2.73804e-19)
(-0.247977 -0.00198856 7.33499e-19)
(-0.24943 -0.0021931 -5.37772e-19)
(-0.250872 -0.00217146 -7.28361e-19)
(-0.252228 -0.00195623 1.13967e-18)
(-0.25344 -0.00158619 4.07073e-19)
(-0.254474 -0.00109876 2.84257e-19)
(-0.255303 -0.00052646 3.19851e-19)
(-0.255917 0.000104655 -9.73483e-19)
(-0.256307 0.000764078 -8.99738e-19)
(-0.25647 0.0014406 -5.85337e-18)
(-0.256408 0.00211951 -1.62545e-18)
(-0.256124 0.00278875 9.79548e-19)
(-0.255624 0.0034388 1.1062e-18)
(-0.254916 0.00406219 4.04e-18)
(-0.25401 0.00465299 -9.4027e-19)
(-0.252917 0.00520641 1.32716e-18)
(-0.251647 0.0057186 2.26803e-19)
(-0.250214 0.00618635 1.71107e-18)
(-0.248631 0.00660699 2.86331e-18)
(-0.246912 0.00697826 9.75293e-19)
(-0.245071 0.00729832 -6.36378e-19)
(-0.243123 0.00756574 1.58062e-19)
(-0.241084 0.00777954 1.21516e-18)
(-0.238969 0.00793932 -2.27812e-19)
(-0.236795 0.00804527 2.28788e-18)
(-0.234577 0.00809822 1.13076e-19)
(-0.232331 0.00809968 -2.68887e-20)
(-0.230071 0.00805177 1.02855e-18)
(-0.227813 0.00795725 4.94693e-20)
(-0.225568 0.00781933 4.15324e-18)
(-0.223348 0.00764169 -6.70238e-19)
(-0.221166 0.00742831 -3.1608e-18)
(-0.21903 0.0071834 -4.49478e-20)
(-0.216947 0.00691131 3.07254e-19)
(-0.214926 0.00661642 4.51208e-18)
(-0.212971 0.0063031 1.8082e-18)
(-0.211086 0.0059756 5.11736e-18)
(-0.209274 0.00563804 1.37285e-18)
(-0.207536 0.00529435 8.3354e-19)
(-0.205872 0.00494825 5.03236e-18)
(-0.204281 0.00460321 -4.7312e-19)
(-0.202762 0.00426245 1.42317e-19)
(-0.201311 0.0039289 5.14632e-19)
(-0.199924 0.00360521 -4.33109e-18)
(-0.198598 0.00329377 -5.76098e-19)
(-0.197326 0.00299664 3.43956e-19)
(-0.196103 0.00271564 5.1947e-19)
(-0.194923 0.00245227 8.04107e-19)
(-0.193779 0.0022078 -9.12282e-19)
(-0.192664 0.00198321 -1.13833e-18)
(-0.191572 0.00177924 -2.18633e-18)
(-0.190494 0.00159642 -1.45791e-18)
(-0.189423 0.00143506 8.22319e-20)
(-0.188353 0.00129532 -1.63631e-18)
(-0.187275 0.00117716 2.53806e-19)
(-0.186182 0.00108048 -9.24367e-19)
(-0.185067 0.00100503 7.78756e-19)
(-0.183922 0.000950656 5.64955e-18)
(-0.182739 0.000917272 1.38584e-18)
(-0.181513 0.00090488 6.69861e-18)
(-0.180235 0.000913002 2.32006e-19)
(-0.178899 0.000941888 5.31313e-19)
(-0.177496 0.000991418 3.96753e-18)
(-0.17602 0.00106209 1.96512e-18)
(-0.174463 0.00115449 8.6557e-18)
(-0.172818 0.0012696 2.31806e-18)
(-0.171075 0.00140845 6.10074e-19)
(-0.169228 0.00157308 8.2158e-18)
(-0.167266 0.00176532 4.40385e-18)
(-0.165181 0.00198783 1.10478e-17)
(-0.162964 0.00224339 1.96407e-18)
(-0.160603 0.00253577 2.69327e-18)
(-0.158088 0.00286948 -3.06234e-18)
(-0.155406 0.0032498 -2.4126e-18)
(-0.152545 0.00368322 5.53804e-18)
(-0.14949 0.00417736 8.76069e-18)
(-0.146227 0.00474142 7.64027e-19)
(-0.14274 0.00538647 7.90019e-18)
(-0.139011 0.00612591 2.77812e-18)
(-0.135021 0.00697601 1.00313e-17)
(-0.130751 0.00795683 -4.93322e-18)
(-0.126181 0.00909314 7.17399e-18)
(-0.12129 0.0104162 8.04569e-18)
(-0.116059 0.0119647 1.0637e-17)
(-0.110472 0.0137923 -3.61161e-18)
(-0.104513 0.0159603 7.09457e-18)
(-0.0981945 0.0185591 -7.30005e-18)
(-0.0915178 0.0216935 -2.05109e-18)
(-0.0845883 0.0255317 -2.13123e-18)
(-0.0774064 0.0302303 -7.16214e-19)
(-0.0705197 0.0361045 -3.21844e-19)
(-0.0634003 0.0433645 -1.62208e-19)
(-0.0590135 0.0519957 3.33895e-18)
(-0.0526027 0.0632442 -9.24708e-20)
(-0.0559592 0.0709895 -1.62667e-17)
(-0.046999 0.0838297 -4.05112e-18)
(-0.0369859 0.0507794 -2.39636e-17)
(-0.259056 -0.000242522 -8.59558e-20)
(-0.259595 -0.000657869 3.38959e-20)
(-0.260362 -0.00120584 -1.7413e-19)
(-0.26148 -0.00159811 3.05486e-19)
(-0.262711 -0.00178389 -5.51857e-19)
(-0.263954 -0.00177437 -1.3283e-18)
(-0.265127 -0.00159273 -3.06209e-19)
(-0.26617 -0.00127101 2.77519e-19)
(-0.267043 -0.0008418 9.13617e-20)
(-0.267717 -0.000334003 1.22491e-19)
(-0.268178 0.000226205 -3.59682e-19)
(-0.268417 0.000816948 -1.66698e-18)
(-0.268425 0.00142372 -5.20602e-18)
(-0.268204 0.00203335 -1.73176e-18)
(-0.267759 0.00263487 2.19451e-18)
(-0.267095 0.00321951 1.81172e-18)
(-0.26622 0.00378034 1.96847e-18)
(-0.265143 0.00431186 -4.38364e-19)
(-0.263877 0.00480964 2.90876e-18)
(-0.262434 0.00527012 2.74301e-20)
(-0.260825 0.00569034 2.87564e-19)
(-0.259066 0.00606786 6.0011e-18)
(-0.257171 0.00640063 4.18685e-18)
(-0.255156 0.00668697 -1.60084e-18)
(-0.253035 0.0069256 -9.29299e-20)
(-0.250826 0.00711566 1.60007e-18)
(-0.248545 0.00725677 -1.53584e-18)
(-0.246208 0.00734911 3.85846e-18)
(-0.243831 0.00739342 -1.14493e-18)
(-0.241432 0.00739106 -8.43769e-19)
(-0.239025 0.00734392 1.30215e-18)
(-0.236626 0.00725446 -8.61786e-19)
(-0.234247 0.00712557 1.43733e-18)
(-0.231902 0.00696053 -3.29661e-18)
(-0.229602 0.00676292 -5.43273e-19)
(-0.227357 0.00653653 -1.61232e-19)
(-0.225176 0.00628524 -2.74045e-19)
(-0.223066 0.00601301 2.02132e-18)
(-0.221033 0.00572375 2.17057e-18)
(-0.219081 0.0054213 2.66144e-18)
(-0.217214 0.00510937 8.53661e-19)
(-0.215433 0.00479151 5.27343e-19)
(-0.213739 0.00447106 2.45694e-18)
(-0.212132 0.00415116 -3.05805e-18)
(-0.210609 0.00383472 -5.46619e-19)
(-0.209169 0.0035244 7.32397e-20)
(-0.207807 0.00322259 -2.02306e-18)
(-0.206521 0.00293146 -4.95249e-19)
(-0.205304 0.0026529 1.26984e-19)
(-0.204152 0.00238854 4.93248e-19)
(-0.203057 0.00213979 5.32912e-19)
(-0.202015 0.00190778 1.33911e-18)
(-0.201018 0.00169343 -1.47486e-18)
(-0.200059 0.00149745 -3.09162e-19)
(-0.199132 0.00132031 -2.54425e-18)
(-0.198227 0.00116233 -3.29239e-19)
(-0.19734 0.00102364 -4.50611e-18)
(-0.196461 0.00090423 -3.24895e-19)
(-0.195584 0.000803977 -2.85628e-18)
(-0.194701 0.00072264 2.61949e-19)
(-0.193805 0.000660083 1.52514e-18)
(-0.192888 0.000616254 5.94199e-19)
(-0.191944 0.000590925 2.96278e-18)
(-0.190966 0.000583685 -2.24748e-18)
(-0.189945 0.000595477 -3.08875e-19)
(-0.188875 0.000625564 7.02541e-18)
(-0.187749 0.000674161 1.81101e-18)
(-0.186559 0.000742135 3.98106e-18)
(-0.185297 0.000830659 1.42501e-18)
(-0.183955 0.000940142 4.49558e-19)
(-0.182525 0.00107226 3.61353e-18)
(-0.180998 0.00122886 7.94038e-18)
(-0.179366 0.00141251 9.2234e-18)
(-0.177617 0.0016256 1.82606e-18)
(-0.175741 0.00187156 5.41439e-18)
(-0.173727 0.00215453 -6.88946e-18)
(-0.171562 0.00247938 -5.62135e-18)
(-0.169233 0.00285208 1.21858e-17)
(-0.166723 0.00327968 1.90202e-18)
(-0.164017 0.00377074 1.88762e-19)
(-0.161097 0.00433559 -4.82104e-19)
(-0.157942 0.00498675 4.34954e-18)
(-0.154529 0.00573954 3.16944e-18)
(-0.150836 0.00661294 -1.32784e-17)
(-0.146834 0.00763054 -2.41005e-18)
(-0.142495 0.00882238 -3.42343e-18)
(-0.137788 0.0102259 2.71292e-18)
(-0.132681 0.0118933 -1.02381e-17)
(-0.127137 0.0138858 -3.07978e-18)
(-0.121138 0.0162941 -1.74598e-17)
(-0.114642 0.0192264 -2.7323e-18)
(-0.107704 0.0228548 -3.97713e-18)
(-0.100215 0.0273638 -1.27208e-18)
(-0.0926465 0.0330489 -2.76608e-19)
(-0.0842311 0.0402884 2.46506e-20)
(-0.0776404 0.0488505 7.32081e-18)
(-0.0680494 0.0606092 5.9372e-20)
(-0.065177 0.0683033 -1.3238e-17)
(-0.0500566 0.0803255 -3.92062e-18)
(-0.0252725 0.0465535 -1.11491e-17)
(-0.271723 -0.000169077 -8.94033e-21)
(-0.272107 -0.000492035 -1.58773e-19)
(-0.272711 -0.000941362 -2.02014e-19)
(-0.273628 -0.00127191 1.14295e-19)
(-0.274665 -0.00143578 -1.10237e-18)
(-0.275726 -0.00143374 -5.07631e-19)
(-0.276732 -0.00128162 1.08154e-18)
(-0.27762 -0.0010053 3.25936e-19)
(-0.278347 -0.000632644 -1.32969e-19)
(-0.27888 -0.000188479 -4.46495e-20)
(-0.279202 0.000302164 -1.54935e-19)
(-0.279301 0.000823836 9.09077e-19)
(-0.279169 0.0013605 -3.14219e-18)
(-0.278807 0.00190036 -1.65125e-18)
(-0.278217 0.00243353 1.46388e-19)
(-0.277405 0.00295206 3.23207e-18)
(-0.276379 0.00344964 7.72492e-19)
(-0.275149 0.00392126 -4.43344e-19)
(-0.273727 0.0043629 6.5703e-19)
(-0.272126 0.00477131 -6.09187e-19)
(-0.270359 0.00514381 -5.61841e-19)
(-0.268441 0.00547821 7.05601e-18)
(-0.266387 0.00577266 2.40987e-18)
(-0.264214 0.00602568 1.88492e-18)
(-0.261936 0.00623612 8.10488e-20)
(-0.259572 0.00640323 3.09482e-18)
(-0.257139 0.00652667 -4.00458e-18)
(-0.254653 0.00660661 1.69091e-18)
(-0.252132 0.00664369 -3.98232e-18)
(-0.249593 0.00663909 -1.81314e-18)
(-0.247051 0.0065945 2.6222e-18)
(-0.244521 0.00651206 -2.47544e-18)
(-0.242019 0.00639433 -4.97564e-20)
(-0.239557 0.00624418 -1.65635e-18)
(-0.237148 0.00606478 2.50881e-18)
(-0.234801 0.00585945 -3.21226e-19)
(-0.232526 0.00563166 -9.60818e-19)
(-0.230331 0.00538487 1.02209e-18)
(-0.228223 0.00512256 3.69121e-18)
(-0.226206 0.00484814 1.55286e-18)
(-0.224283 0.00456489 5.10389e-19)
(-0.222458 0.00427596 5.3505e-19)
(-0.22073 0.00398434 1.40917e-18)
(-0.219101 0.00369282 -8.36378e-19)
(-0.217569 0.00340398 -8.28269e-19)
(-0.216131 0.0031202 -1.70404e-19)
(-0.214785 0.00284364 -1.23939e-18)
(-0.213527 0.00257623 -2.70078e-19)
(-0.212352 0.00231967 -3.06847e-20)
(-0.211254 0.00207544 9.86027e-19)
(-0.210229 0.00184482 5.02599e-19)
(-0.20927 0.00162884 4.35182e-18)
(-0.208369 0.00142835 -3.46082e-18)
(-0.207521 0.001244 1.26546e-18)
(-0.206719 0.00107625 -5.52086e-18)
(-0.205954 0.000925419 -5.65857e-19)
(-0.205221 0.000791648 -1.07697e-18)
(-0.204511 0.000674961 -4.71811e-20)
(-0.203817 0.000575266 3.20985e-18)
(-0.203133 0.000492339 8.22408e-19)
(-0.202449 0.000425994 -1.4357e-18)
(-0.20176 0.000376235 -2.2355e-19)
(-0.201058 0.000343611 1.30321e-18)
(-0.200336 0.000327172 -7.00595e-18)
(-0.199586 0.000326205 -7.74454e-19)
(-0.198803 0.000341302 3.05718e-18)
(-0.197978 0.00037309 1.85708e-18)
(-0.197104 0.000421594 2.17264e-18)
(-0.196172 0.000487087 8.62058e-19)
(-0.195176 0.000570869 4.70589e-19)
(-0.194107 0.000675336 1.93149e-18)
(-0.192955 0.000801424 2.27079e-18)
(-0.191713 0.000951333 -1.75419e-18)
(-0.190368 0.0011272 7.28867e-19)
(-0.188912 0.00133221 1.21744e-17)
(-0.18733 0.0015701 -1.6731e-18)
(-0.185612 0.00184527 4.22626e-18)
(-0.18374 0.00216312 1.25153e-17)
(-0.181701 0.00253008 -5.90723e-18)
(-0.179475 0.00295397 -9.68263e-19)
(-0.177042 0.00344425 -8.7222e-18)
(-0.17438 0.00401242 8.75714e-18)
(-0.171463 0.00467259 -1.13528e-18)
(-0.168262 0.00544231 -1.33831e-17)
(-0.164744 0.00634346 -1.07092e-17)
(-0.160873 0.00740414 -1.76681e-17)
(-0.156605 0.00865946 -2.2623e-18)
(-0.151896 0.0101585 -5.09434e-18)
(-0.146687 0.01196 -1.27642e-17)
(-0.140933 0.0141508 -1.88697e-17)
(-0.134545 0.0168373 -2.73173e-18)
(-0.127534 0.0201851 -7.85379e-18)
(-0.11968 0.0243926 -2.3248e-18)
(-0.111371 0.0297308 -1.35939e-19)
(-0.101617 0.0366935 2.00602e-19)
(-0.0927742 0.0448953 1.55382e-17)
(-0.0800324 0.05651 1.33355e-18)
(-0.0713494 0.0639489 -1.97039e-17)
(-0.0512305 0.0743371 -4.36767e-18)
(-0.0196576 0.0431106 -8.20074e-18)
(-0.282873 -0.000117162 5.04863e-20)
(-0.283145 -0.000367018 -4.94712e-19)
(-0.28362 -0.000728752 -3.35809e-19)
(-0.28437 -0.00100187 5.31469e-21)
(-0.28524 -0.00114202 -6.32785e-19)
(-0.286142 -0.0011438 2.61229e-19)
(-0.286999 -0.00101746 6.72307e-19)
(-0.287748 -0.000783362 3.19315e-19)
(-0.288343 -0.000464746 -4.98816e-19)
(-0.288749 -8.21694e-05 -2.52152e-19)
(-0.288947 0.000340167 7.87921e-20)
(-0.288923 0.000791686 -3.94037e-19)
(-0.288667 0.00125721 -3.52363e-18)
(-0.288178 0.00172629 -1.96909e-18)
(-0.28746 0.00219009 -1.13913e-18)
(-0.286517 0.00264152 1.49001e-18)
(-0.285358 0.00307494 -7.09636e-19)
(-0.283992 0.00348586 -9.2795e-19)
(-0.282433 0.0038707 -1.20243e-18)
(-0.280692 0.00422654 -1.92233e-18)
(-0.278785 0.00455101 -1.32619e-18)
(-0.276725 0.00484216 6.95777e-18)
(-0.27453 0.00509835 7.29276e-19)
(-0.272215 0.00531827 -3.06712e-19)
(-0.269798 0.00550092 -9.67922e-21)
(-0.267296 0.00564564 -7.36503e-20)
(-0.264727 0.00575212 -3.28562e-18)
(-0.262108 0.00582049 1.51333e-18)
(-0.259457 0.00585131 -3.25168e-18)
(-0.256791 0.00584559 -3.13214e-18)
(-0.254127 0.00580478 -4.55302e-19)
(-0.251481 0.00573073 1.23285e-19)
(-0.248867 0.00562565 -1.0873e-18)
(-0.246298 0.00549203 -1.12681e-18)
(-0.243789 0.00533261 8.85608e-19)
(-0.241349 0.00515029 -1.29975e-18)
(-0.238988 0.00494807 -2.1819e-18)
(-0.236714 0.00472898 1.19781e-18)
(-0.234535 0.00449605 4.44882e-19)
(-0.232456 0.00425226 6.84352e-19)
(-0.23048 0.00400047 1.75336e-19)
(-0.228611 0.00374344 8.29734e-19)
(-0.226849 0.00348379 1.11153e-18)
(-0.225196 0.00322397 4.64709e-19)
(-0.22365 0.00296624 -1.54827e-18)
(-0.222209 0.00271269 -2.84166e-19)
(-0.220871 0.00246523 -1.16071e-18)
(-0.219631 0.00222555 7.37217e-20)
(-0.218487 0.00199517 2.49468e-19)
(-0.217431 0.0017754 1.91225e-18)
(-0.21646 0.00156735 6.20305e-19)
(-0.215567 0.00137196 1.36843e-18)
(-0.214745 0.00119 2.90486e-19)
(-0.213988 0.00102203 4.47824e-18)
(-0.213288 0.000868489 -3.6752e-18)
(-0.21264 0.000729641 1.98676e-19)
(-0.212035 0.000605626 1.90048e-18)
(-0.211466 0.000496451 5.83065e-19)
(-0.210926 0.000401986 1.6083e-18)
(-0.210407 0.000321957 9.87253e-19)
(-0.209903 0.000256306 -5.97659e-18)
(-0.209406 0.00020541 -1.06089e-18)
(-0.208908 0.000167658 4.54563e-19)
(-0.208404 0.000142781 -5.44327e-18)
(-0.207885 0.000134803 -2.12419e-19)
(-0.207345 0.000139934 1.81046e-18)
(-0.206776 0.000157746 2.19113e-18)
(-0.20617 0.000190167 1.61119e-18)
(-0.205521 0.000239757 6.70644e-19)
(-0.204819 0.000304851 3.69494e-19)
(-0.204056 0.000385742 1.09615e-18)
(-0.203225 0.000485203 -1.91611e-18)
(-0.202314 0.000605787 -1.1015e-20)
(-0.201315 0.000748765 8.19678e-19)
(-0.200215 0.000916798 1.22752e-17)
(-0.199002 0.00111329 -5.57406e-19)
(-0.197663 0.00134215 1.64974e-18)
(-0.196182 0.0016082 5.08149e-18)
(-0.194543 0.00191719 -3.75117e-18)
(-0.192725 0.0022761 -1.65843e-18)
(-0.190707 0.00269337 -5.70067e-18)
(-0.188464 0.00317932 2.98062e-18)
(-0.185967 0.00374664 -7.85714e-18)
(-0.183184 0.00441116 -4.09326e-18)
(-0.180075 0.00519267 -5.11025e-18)
(-0.176597 0.00611672 -2.28127e-17)
(-0.172698 0.00721538 -4.67636e-18)
(-0.168319 0.00853348 -2.99293e-18)
(-0.163381 0.0101258 -9.77325e-18)
(-0.157818 0.0120727 -1.02849e-17)
(-0.151495 0.0144755 -6.20326e-19)
(-0.144384 0.0174872 -1.68689e-17)
(-0.136162 0.0213104 -2.48486e-18)
(-0.127131 0.0261767 2.52297e-19)
(-0.116111 0.0326457 -7.68203e-20)
(-0.105135 0.0402283 1.31143e-17)
(-0.0894928 0.0512015 1.67445e-18)
(-0.0756896 0.0582036 -1.86121e-17)
(-0.0514734 0.0669059 -3.69916e-18)
(-0.0168351 0.0395959 -1.31423e-17)
(-0.292477 -8.06414e-05 1.22972e-19)
(-0.292671 -0.000271645 -6.11565e-19)
(-0.293046 -0.000557139 -5.86568e-19)
(-0.293661 -0.000777583 -7.45046e-20)
(-0.294391 -0.000893683 -6.19438e-19)
(-0.295157 -0.000896987 1.47161e-18)
(-0.295885 -0.000793671 6.65515e-19)
(-0.296513 -0.00059932 3.5269e-19)
(-0.296992 -0.000332783 -1.34508e-18)
(-0.297288 -9.8573e-06 -5.58777e-19)
(-0.297378 0.000343988 3.66692e-19)
(-0.297246 0.000725383 -2.32092e-18)
(-0.296881 0.00111953 -1.70686e-18)
(-0.296284 0.00151727 -2.81762e-18)
(-0.295454 0.00191099 -2.65165e-18)
(-0.294398 0.00229452 1.1295e-18)
(-0.293124 0.00266296 -3.17372e-18)
(-0.291641 0.00301243 -1.99852e-18)
(-0.289962 0.00333978 -3.71325e-18)
(-0.288101 0.0036425 -4.27303e-18)
(-0.286071 0.0039185 -2.16351e-18)
(-0.283889 0.00416611 1.19152e-17)
(-0.281571 0.0043839 -1.96446e-18)
(-0.279134 0.00457075 -2.81202e-18)
(-0.276595 0.00472579 -1.03328e-19)
(-0.273973 0.00484843 -3.43966e-18)
(-0.271285 0.00493842 -4.87702e-18)
(-0.268549 0.00499584 2.86637e-18)
(-0.265784 0.00502116 -5.4602e-18)
(-0.263008 0.00501522 -5.75238e-18)
(-0.260237 0.00497924 -3.05717e-18)
(-0.257487 0.00491477 2.83347e-18)
(-0.254774 0.00482367 -2.91513e-18)
(-0.252111 0.00470807 -1.07098e-18)
(-0.249513 0.0045703 2.51726e-19)
(-0.246989 0.0044128 -3.55017e-18)
(-0.244551 0.00423813 -4.51837e-18)
(-0.242207 0.00404888 2.71994e-18)
(-0.239964 0.00384763 -2.50558e-18)
(-0.237828 0.00363692 1.51735e-19)
(-0.235802 0.0034192 -3.47216e-20)
(-0.233892 0.00319682 1.61096e-18)
(-0.232097 0.00297202 1.42805e-18)
(-0.230419 0.00274688 1.91813e-18)
(-0.228856 0.00252337 -3.59394e-18)
(-0.227409 0.00230325 -4.04483e-19)
(-0.226073 0.00208817 -1.92824e-18)
(-0.224845 0.00187958 9.6529e-19)
(-0.223722 0.00167878 5.04811e-19)
(-0.222698 0.00148691 4.42438e-18)
(-0.221769 0.00130492 9.17315e-19)
(-0.220927 0.00113364 -1.07023e-18)
(-0.220168 0.000973712 3.92977e-18)
(-0.219484 0.000825663 1.08345e-17)
(-0.218868 0.000689867 -5.13626e-18)
(-0.218314 0.000566582 1.75328e-18)
(-0.217814 0.000455955 6.43849e-18)
(-0.217361 0.000358038 1.4959e-18)
(-0.216948 0.000272778 1.07525e-18)
(-0.216567 0.000199989 1.52273e-18)
(-0.216211 0.000139347 -1.49082e-17)
(-0.215874 9.0182e-05 -1.20871e-18)
(-0.215547 5.61637e-05 1.77872e-19)
(-0.215223 3.49693e-05 -7.95966e-18)
(-0.214895 2.05349e-05 1.22849e-18)
(-0.214558 1.84446e-05 1.87069e-18)
(-0.214203 2.92729e-05 3.87816e-18)
(-0.213821 5.17227e-05 1.52382e-18)
(-0.213406 8.31416e-05 7.15481e-19)
(-0.212951 0.000127301 5.82507e-19)
(-0.212446 0.000189264 7.79581e-19)
(-0.211882 0.000266476 5.93082e-18)
(-0.211249 0.000360551 2.08846e-18)
(-0.210538 0.000473443 1.57815e-18)
(-0.209737 0.000607728 5.99629e-18)
(-0.208834 0.000766263 -2.36848e-18)
(-0.207813 0.000952295 3.33324e-19)
(-0.206659 0.00116993 9.94735e-19)
(-0.205354 0.00142414 -5.18899e-18)
(-0.203878 0.00172094 -3.09102e-18)
(-0.202208 0.00206764 -6.82275e-18)
(-0.200315 0.00247321 6.40643e-19)
(-0.19817 0.00294865 -2.94914e-18)
(-0.195735 0.00350776 3.32156e-18)
(-0.192968 0.00416781 -2.3399e-18)
(-0.189818 0.00495122 -2.40725e-17)
(-0.186224 0.00588619 -5.82892e-18)
(-0.182117 0.0070122 -2.12754e-18)
(-0.177402 0.00837824 -1.41383e-17)
(-0.17199 0.0100557 -8.14419e-18)
(-0.16571 0.0121372 2.38872e-18)
(-0.158495 0.014758 -1.62583e-17)
(-0.149936 0.0181155 -1.95588e-18)
(-0.140255 0.0223944 1.09724e-18)
(-0.128111 0.0281743 1.95731e-17)
(-0.115228 0.0349107 2.03353e-17)
(-0.0970401 0.0448397 2.35125e-18)
(-0.0788865 0.0512407 -1.16055e-17)
(-0.0512529 0.0584684 -3.08424e-18)
(-0.0152688 0.0356128 -8.40071e-18)
(-0.300514 -5.49139e-05 9.04165e-20)
(-0.300652 -0.000198108 -6.28752e-19)
(-0.300952 -0.000417677 -7.60104e-20)
(-0.301461 -0.000590376 -7.08852e-20)
(-0.302078 -0.000683191 8.77201e-19)
(-0.302732 -0.000686794 1.62599e-18)
(-0.303352 -0.000604566 7.53299e-19)
(-0.303877 -0.000448111 3.70804e-19)
(-0.304258 -0.000232326 2.77104e-19)
(-0.304461 2.95543e-05 -8.62525e-19)
(-0.30446 0.000318089 9.04886e-19)
(-0.304237 0.000629764 -1.63323e-18)
(-0.303782 0.000952367 -6.40606e-19)
(-0.303092 0.00127838 -3.09422e-19)
(-0.302169 0.00160146 1.58588e-19)
(-0.301018 0.00191645 1.85129e-18)
(-0.299647 0.00221927 -2.47033e-18)
(-0.298065 0.00250663 1.86599e-18)
(-0.296286 0.00277591 -2.52996e-18)
(-0.294323 0.00302499 -2.63331e-18)
(-0.292191 0.00325213 -2.63585e-18)
(-0.289906 0.0034559 1.30002e-17)
(-0.287485 0.00363513 -2.63039e-18)
(-0.284944 0.00378886 -3.6831e-19)
(-0.282302 0.00391637 3.12855e-19)
(-0.279578 0.00401715 -2.80839e-18)
(-0.276789 0.00409099 -2.22474e-18)
(-0.273955 0.00413793 5.26664e-19)
(-0.271094 0.00415833 -5.54837e-18)
(-0.268223 0.00415288 -4.47407e-18)
(-0.26536 0.00412257 5.58911e-19)
(-0.262522 0.00406865 1.22304e-18)
(-0.259725 0.00399265 -6.84089e-19)
(-0.256982 0.00389632 -9.50371e-19)
(-0.254307 0.00378155 5.91912e-20)
(-0.251712 0.00365038 -1.5718e-18)
(-0.249207 0.00350491 -2.10979e-18)
(-0.246801 0.00334727 1.70487e-19)
(-0.244502 0.00317959 -8.3847e-19)
(-0.242315 0.00300397 3.02975e-19)
(-0.240246 0.00282243 -2.89388e-19)
(-0.238298 0.00263692 3.5429e-18)
(-0.236473 0.0024493 2.47576e-18)
(-0.234771 0.00226128 4.03778e-18)
(-0.233192 0.00207449 -8.37513e-19)
(-0.231735 0.0018904 -1.7946e-20)
(-0.230398 0.00171036 -3.90756e-18)
(-0.229178 0.00153559 2.72385e-18)
(-0.228069 0.00136717 1.22113e-18)
(-0.227069 0.00120603 1.67271e-18)
(-0.226171 0.00105298 8.81533e-19)
(-0.225369 0.000908694 -3.98118e-18)
(-0.224659 0.000773725 2.28236e-18)
(-0.224032 0.000648498 5.87251e-18)
(-0.223482 0.000533325 -3.63533e-18)
(-0.223003 0.000428419 5.60806e-18)
(-0.222587 0.000333894 5.33135e-18)
(-0.222227 0.000249776 1.74476e-18)
(-0.221916 0.000175958 1.193e-18)
(-0.221646 0.000112124 2.50877e-18)
(-0.22141 5.82202e-05 -1.36908e-17)
(-0.2212 1.78707e-05 1.02719e-18)
(-0.22101 -1.59275e-05 -6.72759e-20)
(-0.220835 -3.9385e-05 -4.6027e-18)
(-0.220665 -5.69188e-05 4.8741e-18)
(-0.220492 -6.28911e-05 3.09238e-18)
(-0.22031 -5.77072e-05 7.70721e-18)
(-0.220113 -4.28352e-05 1.66211e-18)
(-0.219892 -1.98453e-05 8.50017e-19)
(-0.219636 1.54808e-05 1.62608e-18)
(-0.219339 5.7416e-05 8.69805e-19)
(-0.218993 0.000113624 3.88426e-18)
(-0.218588 0.000186352 4.5741e-18)
(-0.218113 0.000274395 3.23878e-18)
(-0.217556 0.000379311 3.76693e-18)
(-0.216904 0.00050378 -7.34475e-18)
(-0.216144 0.000650655 -6.29425e-19)
(-0.215257 0.000823393 -2.49724e-18)
(-0.214226 0.00102612 -1.0733e-17)
(-0.213029 0.00126386 -5.33935e-18)
(-0.211643 0.0015427 -1.15875e-17)
(-0.210037 0.00187009 -5.44131e-19)
(-0.208179 0.00225524 7.99619e-19)
(-0.206029 0.00270966 -4.41904e-18)
(-0.203541 0.00324779 -1.71028e-18)
(-0.200659 0.00388844 -2.33474e-17)
(-0.197315 0.00465532 -6.4766e-18)
(-0.19343 0.00558161 -1.69007e-18)
(-0.188896 0.00670899 -6.77861e-18)
(-0.183606 0.0080978 -8.71982e-18)
(-0.177358 0.00982855 8.7038e-18)
(-0.170054 0.0120143 -7.31102e-18)
(-0.16121 0.0148368 1.68575e-19)
(-0.150979 0.0184333 2.12456e-18)
(-0.137892 0.0233628 3.01002e-17)
(-0.123389 0.0290709 1.80074e-17)
(-0.103062 0.0376315 1.9942e-18)
(-0.0813264 0.0432498 -1.38327e-17)
(-0.0507989 0.0492196 -2.63138e-18)
(-0.0142426 0.031037 -1.12713e-17)
(-0.306965 -3.6586e-05 1.00649e-19)
(-0.307066 -0.000140409 -5.34777e-19)
(-0.307311 -0.000302703 5.25225e-19)
(-0.30774 -0.0004323 -9.05273e-20)
(-0.308269 -0.000503112 1.30349e-18)
(-0.308834 -0.000506489 5.42737e-19)
(-0.309368 -0.000444012 9.883e-19)
(-0.30981 -0.00032392 4.32973e-19)
(-0.310113 -0.000157339 1.94536e-18)
(-0.31024 4.40271e-05 -1.70607e-18)
(-0.310165 0.000268247 2.03796e-18)
(-0.309868 0.000510151 -2.28731e-18)
(-0.30934 0.000761013 2.69406e-19)
(-0.308576 0.00101496 2.20818e-18)
(-0.307578 0.00126694 3.33138e-18)
(-0.30635 0.00151287 3.71983e-18)
(-0.304901 0.0017495 1.79686e-18)
(-0.30324 0.00197422 1.72539e-18)
(-0.301381 0.00218492 2.19533e-18)
(-0.299336 0.00237991 -2.40037e-18)
(-0.297121 0.00255781 -3.46943e-18)
(-0.294753 0.00271747 1.08642e-17)
(-0.292248 0.00285795 -2.07876e-18)
(-0.289623 0.00297847 2.49527e-18)
(-0.286899 0.00307846 9.35678e-19)
(-0.284092 0.0031575 -4.32874e-18)
(-0.281222 0.00321539 -4.48073e-19)
(-0.278307 0.00325216 -1.25391e-18)
(-0.275367 0.00326807 -3.29647e-18)
(-0.27242 0.00326364 -5.02288e-18)
(-0.269483 0.00323962 -1.17454e-18)
(-0.266573 0.00319699 3.85241e-19)
(-0.263706 0.00313693 8.14359e-19)
(-0.260897 0.00306081 -1.44649e-18)
(-0.258159 0.00297012 -5.5062e-20)
(-0.255505 0.00286645 -5.9742e-19)
(-0.252945 0.00275145 -8.6712e-19)
(-0.250488 0.00262679 -1.93153e-18)
(-0.248142 0.00249417 1.91681e-19)
(-0.245914 0.00235522 7.85229e-19)
(-0.243808 0.00221155 -6.17424e-19)
(-0.241828 0.00206469 7.95927e-19)
(-0.239976 0.0019161 4.59849e-18)
(-0.238253 0.00176716 1.01631e-18)
(-0.236659 0.00161915 3.5376e-19)
(-0.235194 0.00147322 2.95714e-19)
(-0.233853 0.00133047 -8.62665e-18)
(-0.232636 0.00119185 -6.58219e-19)
(-0.231537 0.00105822 2.31621e-18)
(-0.230553 0.000930336 -1.66842e-19)
(-0.229678 0.000808841 1.24498e-18)
(-0.228906 0.000694278 -1.02168e-17)
(-0.228232 0.00058709 3.36614e-18)
(-0.227649 0.000487625 4.51906e-18)
(-0.22715 0.000396146 -5.57683e-18)
(-0.226729 0.000312836 5.03194e-18)
(-0.226378 0.000237814 6.81746e-18)
(-0.226089 0.00017115 2.3257e-18)
(-0.225857 0.000112827 2.19944e-18)
(-0.225674 6.2711e-05 4.62308e-18)
(-0.225531 2.12441e-05 -1.22676e-17)
(-0.225423 -1.45625e-05 -3.91119e-18)
(-0.225343 -4.84154e-05 -6.16416e-19)
(-0.225281 -7.38712e-05 -4.30993e-18)
(-0.225232 -8.78477e-05 1.36843e-18)
(-0.225189 -9.46434e-05 5.98482e-18)
(-0.225143 -9.4198e-05 4.05277e-18)
(-0.225088 -8.45321e-05 1.27682e-18)
(-0.225016 -6.3727e-05 8.38653e-19)
(-0.22492 -3.37364e-05 3.94937e-18)
(-0.22479 1.43746e-06 7.31375e-19)
(-0.224615 4.2427e-05 4.86203e-18)
(-0.224387 9.3022e-05 9.86261e-18)
(-0.224098 0.000155793 6.31928e-18)
(-0.223733 0.000232388 3.45904e-18)
(-0.22328 0.0003245 -3.3042e-18)
(-0.222724 0.000434023 -5.8355e-19)
(-0.222048 0.000563598 -7.56616e-18)
(-0.221233 0.000716476 -6.11353e-18)
(-0.220256 0.000896609 -9.86583e-18)
(-0.219093 0.0011088 -2.2861e-17)
(-0.217713 0.00135892 1.11776e-19)
(-0.216082 0.00165421 4.16031e-18)
(-0.214158 0.00200376 2.89814e-18)
(-0.21189 0.00241896 -1.67378e-18)
(-0.209221 0.00291467 -1.94581e-17)
(-0.206075 0.00350968 -6.362e-18)
(-0.202367 0.00423021 -1.67445e-18)
(-0.197977 0.00510963 -5.27515e-18)
(-0.192787 0.00619571 -1.35169e-17)
(-0.186566 0.00755424 2.21101e-18)
(-0.179195 0.0092732 -5.16673e-18)
(-0.170128 0.0115095 3.52193e-18)
(-0.159463 0.0143548 3.4213e-18)
(-0.145631 0.0183061 1.89452e-17)
(-0.129832 0.0228487 2.24804e-17)
(-0.107791 0.0297817 1.65556e-18)
(-0.0832156 0.034432 -5.84379e-18)
(-0.0502492 0.0392647 -1.24778e-18)
(-0.0134485 0.0257575 -4.64801e-18)
(-0.311816 -2.32039e-05 1.63967e-19)
(-0.311893 -9.37687e-05 -2.21326e-19)
(-0.312099 -0.000205546 6.47532e-19)
(-0.312471 -0.00029596 -1.97564e-19)
(-0.312936 -0.000346179 9.01151e-19)
(-0.313436 -0.000349304 -4.71759e-19)
(-0.313905 -0.000305894 1.87856e-18)
(-0.314285 -0.000221407 6.12061e-19)
(-0.314528 -0.000103572 1.3513e-18)
(-0.314598 3.8938e-05 -2.98899e-19)
(-0.314468 0.000198678 9.07346e-19)
(-0.314115 0.000371391 -5.83211e-19)
(-0.313531 0.00055077 2.1948e-18)
(-0.312712 0.000732605 1.35562e-18)
(-0.311658 0.000913268 3.08027e-18)
(-0.310373 0.0010898 1.93453e-18)
(-0.308865 0.00125983 9.05157e-19)
(-0.307144 0.00142145 2.45325e-18)
(-0.305224 0.00157313 1.7341e-18)
(-0.303117 0.00171363 -4.7448e-18)
(-0.30084 0.00184191 -5.39347e-18)
(-0.298409 0.00195715 4.30371e-18)
(-0.29584 0.00205864 8.29462e-19)
(-0.293153 0.0021458 1.16726e-18)
(-0.290365 0.00221818 1.2884e-18)
(-0.287496 0.00227548 -2.6973e-18)
(-0.284564 0.00231752 -4.35557e-18)
(-0.281588 0.0023443 -3.93981e-18)
(-0.278589 0.00235599 -3.27746e-18)
(-0.275583 0.00235292 -1.61641e-18)
(-0.272589 0.00233563 -2.46498e-18)
(-0.269624 0.00230482 8.41933e-20)
(-0.266705 0.00226133 -4.04845e-18)
(-0.263845 0.00220613 -3.21089e-18)
(-0.261059 0.00214032 2.15004e-19)
(-0.25836 0.00206504 -9.24436e-20)
(-0.255757 0.0019815 -2.62263e-19)
(-0.253261 0.00189092 -5.23555e-18)
(-0.250879 0.00179451 -5.16448e-18)
(-0.248618 0.00169347 1.65012e-18)
(-0.246483 0.00158897 -1.45818e-18)
(-0.244478 0.00148212 -1.0576e-18)
(-0.242605 0.00137399 2.42952e-18)
(-0.240865 0.00126558 -2.31148e-18)
(-0.239259 0.00115782 1.36145e-18)
(-0.237785 0.00105156 6.59947e-19)
(-0.236441 0.000947581 -3.87276e-18)
(-0.235225 0.000846596 -2.33503e-18)
(-0.234132 0.000749226 -3.07508e-18)
(-0.233159 0.000656018 -2.58122e-18)
(-0.2323 0.000567442 2.33038e-18)
(-0.231549 0.000483891 -6.92504e-18)
(-0.230901 0.000405685 1.03185e-18)
(-0.230349 0.000333073 -3.66545e-18)
(-0.229887 0.000266241 -3.18631e-18)
(-0.229507 0.00020532 -1.33676e-20)
(-0.229203 0.000150394 2.63568e-18)
(-0.228967 0.000101529 3.24923e-18)
(-0.228792 5.86865e-05 4.35744e-18)
(-0.228672 2.17468e-05 -1.311e-18)
(-0.228599 -9.04344e-06 -9.8447e-18)
(-0.228566 -3.94372e-05 -8.71268e-18)
(-0.228564 -6.14922e-05 -1.3303e-18)
(-0.228587 -7.81084e-05 -6.99314e-18)
(-0.228629 -9.00838e-05 -1.49486e-19)
(-0.22868 -9.65207e-05 1.21499e-18)
(-0.228735 -9.72417e-05 1.98534e-18)
(-0.228786 -9.26443e-05 6.5764e-19)
(-0.228826 -8.29581e-05 1.46161e-18)
(-0.228845 -6.74203e-05 8.86612e-18)
(-0.228837 -4.17266e-05 2.67066e-19)
(-0.228791 -1.14555e-05 9.76352e-18)
(-0.228697 2.27939e-05 6.825e-18)
(-0.228544 6.59667e-05 1.20397e-17)
(-0.228322 0.00011786 4.27389e-18)
(-0.228016 0.000180422 -2.36209e-18)
(-0.227611 0.000255409 -7.31363e-19)
(-0.227091 0.000344754 -1.85142e-18)
(-0.226436 0.000450772 -4.26797e-18)
(-0.225623 0.000576304 -3.47221e-18)
(-0.224626 0.00072481 -1.31812e-17)
(-0.223414 0.000900533 5.3607e-18)
(-0.221952 0.0011087 1.16875e-17)
(-0.220195 0.00135584 1.11439e-17)
(-0.218092 0.00165017 -4.02394e-18)
(-0.215582 0.00200239 -3.02668e-17)
(-0.212585 0.00242606 -7.1327e-18)
(-0.209011 0.00294 -2.12115e-18)
(-0.204731 0.00356852 -6.86319e-18)
(-0.199618 0.00434582 -6.91066e-18)
(-0.193423 0.00532092 -2.67045e-19)
(-0.186008 0.00655539 -7.20402e-18)
(-0.176783 0.00817326 9.89164e-18)
(-0.165806 0.0102238 6.34946e-18)
(-0.151431 0.0131013 2.21973e-17)
(-0.13467 0.0163851 1.93392e-17)
(-0.111347 0.0214874 -1.49921e-18)
(-0.0846503 0.0249939 -3.18267e-18)
(-0.0497069 0.0286777 -7.69942e-20)
(-0.0127854 0.0196919 -2.42676e-18)
(-0.315057 -1.28275e-05 1.73014e-19)
(-0.315119 -5.40373e-05 -4.41885e-20)
(-0.315302 -0.000119976 2.72469e-19)
(-0.315636 -0.000173951 -5.09322e-19)
(-0.31606 -0.000204497 1.10753e-18)
(-0.316516 -0.00020711 3.1293e-19)
(-0.316942 -0.000181826 1.51395e-18)
(-0.317281 -0.00013165 8.01291e-19)
(-0.317485 -6.10806e-05 1.48102e-18)
(-0.317517 2.46012e-05 5.55965e-19)
(-0.317348 0.000119334 3.65192e-19)
(-0.316959 0.000222257 6.15714e-19)
(-0.316338 0.000329586 1.14389e-18)
(-0.315482 0.000438726 1.10904e-18)
(-0.31439 0.000547452 -4.21283e-19)
(-0.313066 0.000653946 6.74312e-19)
(-0.311519 0.000756748 3.54889e-19)
(-0.309759 0.000854679 4.78109e-18)
(-0.307798 0.000946787 1.47238e-18)
(-0.30565 0.00103229 -4.87539e-18)
(-0.303331 0.00111054 -3.30397e-18)
(-0.300857 0.001181 2.30619e-18)
(-0.298247 0.00124321 3.41498e-18)