/*--------------------------------*- C++ -*----------------------------------*\
  =========                 |
  \\      /  F ield         | OpenFOAM: The Open Source CFD Toolbox
   \\    /   O peration     | Website:  https://openfoam.org
    \\  /    A nd           | Version:  7
     \\/     M anipulation  |
\*---------------------------------------------------------------------------*/
FoamFile
{
    version     2.0;
    format      ascii;
    class       volVectorField;
    location    "98";
    object      U;
}
// * * * * * * * * * * * * * * * * * * * * * * * * * * * * * * * * * * * * * //

dimensions      [0 1 -1 0 0 0 0];

internalField   nonuniform List<vector> 
7360
(
(-0.315534 -1.99113e-05 5.40366e-20)
(-0.315614 -8.53141e-05 1.729e-19)
(-0.315837 -0.000188085 2.39805e-19)
(-0.316241 -0.000274512 1.04661e-18)
(-0.316762 -0.000326515 -3.95751e-19)
(-0.317333 -0.000337938 9.86426e-19)
(-0.317888 -0.000308686 7.79873e-19)
(-0.318363 -0.0002433 -6.81972e-19)
(-0.318709 -0.000148156 1.86048e-18)
(-0.318886 -2.97235e-05 2.73533e-18)
(-0.318863 0.000103945 3.31205e-19)
(-0.318619 0.000249945 1.97286e-18)
(-0.31814 0.000402656 2.07384e-18)
(-0.317419 0.000558145 2.94601e-18)
(-0.316457 0.000713266 5.70323e-19)
(-0.315258 0.000865404 2.88654e-18)
(-0.313827 0.00101245 7.03905e-18)
(-0.312174 0.00115271 -1.56256e-18)
(-0.310311 0.00128485 4.48252e-18)
(-0.308251 0.00140779 8.36796e-18)
(-0.306009 0.00152067 -9.78131e-19)
(-0.303601 0.0016228 6.3937e-19)
(-0.301043 0.0017136 5.76282e-18)
(-0.298353 0.00179261 -1.53389e-18)
(-0.295548 0.00185945 1.57624e-18)
(-0.292648 0.00191384 6.93914e-18)
(-0.289671 0.00195561 1.22407e-18)
(-0.286635 0.0019847 5.46199e-18)
(-0.283561 0.00200116 1.06222e-17)
(-0.280466 0.00200522 -5.35788e-19)
(-0.27737 0.00199721 3.16187e-18)
(-0.27429 0.00197765 2.17762e-18)
(-0.271243 0.00194716 -8.82144e-19)
(-0.268246 0.00190651 4.35142e-18)
(-0.265314 0.00185656 1.2818e-18)
(-0.262459 0.00179827 1.23049e-19)
(-0.259696 0.00173263 3.28194e-18)
(-0.257033 0.00166069 1.15667e-18)
(-0.254482 0.00158352 4.02084e-18)
(-0.25205 0.00150214 1.95587e-18)
(-0.249742 0.00141759 2.26305e-18)
(-0.247566 0.00133085 9.7464e-18)
(-0.245522 0.00124284 3.83605e-18)
(-0.243615 0.00115444 1.74541e-18)
(-0.241845 0.00106644 2.26569e-19)
(-0.240211 0.000979564 -3.86017e-18)
(-0.238712 0.00089447 7.64052e-18)
(-0.237347 0.000811732 3.9364e-19)
(-0.236111 0.000731843 -2.59648e-18)
(-0.235001 0.000655221 9.51043e-18)
(-0.234012 0.000582208 3.87046e-18)
(-0.233138 0.000513075 -2.32234e-18)
(-0.232375 0.000448017 -6.07717e-19)
(-0.231715 0.000387179 3.46398e-18)
(-0.231152 0.000330654 2.30507e-19)
(-0.230681 0.000278481 2.49694e-18)
(-0.230292 0.000230657 1.55286e-18)
(-0.229981 0.000187153 7.73315e-18)
(-0.229738 0.000147915 4.35087e-18)
(-0.229558 0.000112893 8.69949e-19)
(-0.229433 8.20401e-05 7.29053e-18)
(-0.229356 5.51126e-05 8.30213e-18)
(-0.229319 3.21372e-05 3.43113e-18)
(-0.229316 1.3086e-05 -1.92678e-19)
(-0.229338 -4.24739e-06 -3.83906e-18)
(-0.229377 -1.74127e-05 -6.95768e-18)
(-0.229428 -2.54054e-05 -7.1202e-19)
(-0.229481 -2.93204e-05 1.44265e-18)
(-0.229529 -2.88314e-05 2.74942e-18)
(-0.229565 -2.16486e-05 -7.37714e-19)
(-0.229579 -7.09385e-06 -5.44336e-18)
(-0.229562 1.24991e-05 -4.1332e-18)
(-0.229502 3.57259e-05 -2.17743e-18)
(-0.22939 6.58518e-05 -6.585e-18)
(-0.229212 0.000104606 1.866e-18)
(-0.228955 0.000152992 -8.68082e-19)
(-0.228604 0.000212446 -4.14211e-18)
(-0.22814 0.000284645 -3.60361e-19)
(-0.227543 0.000371614 1.14363e-18)
(-0.22679 0.000475764 -2.10355e-18)
(-0.225852 0.000600026 -9.28813e-19)
(-0.224697 0.000747989 5.83242e-19)
(-0.223286 0.000924088 -1.1158e-17)
(-0.221574 0.00113388 -5.18999e-18)
(-0.219504 0.0013844 -5.15958e-18)
(-0.217009 0.00168468 1.0129e-18)
(-0.214004 0.00204643 -1.80886e-18)
(-0.210391 0.00248506 8.44136e-18)
(-0.206027 0.00302145 1.24578e-17)
(-0.200782 0.003682 3.66067e-19)
(-0.194364 0.00451033 2.17953e-17)
(-0.186685 0.00553786 5.89321e-18)
(-0.176972 0.00690229 8.99924e-18)
(-0.165655 0.00850416 6.53031e-18)
(-0.15024 0.0109538 -3.13625e-18)
(-0.133277 0.0132063 1.12589e-20)
(-0.108493 0.0177897 1.06585e-17)
(-0.0813502 0.0197796 -1.08065e-17)
(-0.0465203 0.0235547 1.49056e-17)
(-0.0106308 0.0173699 -5.50475e-19)
(-0.318722 -6.30993e-06 -3.91592e-20)
(-0.318787 -2.82487e-05 7.95559e-20)
(-0.318986 -6.27084e-05 -2.3721e-19)
(-0.319353 -9.23501e-05 -4.54236e-20)
(-0.319831 -0.000110878 3.01232e-20)
(-0.320356 -0.000115986 -9.68532e-19)
(-0.320866 -0.000107386 5.25887e-19)
(-0.321298 -8.63886e-05 -1.87574e-19)
(-0.321602 -5.49556e-05 1.29353e-18)
(-0.321739 -1.51262e-05 -2.03559e-19)
(-0.321677 3.00299e-05 1.68521e-19)
(-0.321395 7.97907e-05 -3.96535e-19)
(-0.320877 0.000132224 -4.49013e-19)
(-0.320118 0.000185913 -3.81103e-19)
(-0.319118 0.000239696 -1.31411e-18)
(-0.317879 0.000292599 -1.15657e-18)
(-0.316408 0.000343823 -9.47258e-19)
(-0.314715 0.000392719 -3.93885e-18)
(-0.312811 0.000438765 3.52812e-18)
(-0.310709 0.000481542 4.39501e-18)
(-0.308426 0.000520711 -1.32265e-18)
(-0.305975 0.000555998 1.24008e-18)
(-0.303374 0.00058718 1.23814e-18)
(-0.300641 0.000614077 9.50676e-19)
(-0.297794 0.000636551 -3.78156e-18)
(-0.294851 0.000654501 6.89711e-18)
(-0.291831 0.000667869 5.2157e-18)
(-0.288754 0.000676644 4.86132e-18)
(-0.285639 0.000680867 5.19442e-18)
(-0.282504 0.000680635 9.80947e-19)
(-0.279368 0.000676099 -6.52374e-19)
(-0.27625 0.00066747 -4.45337e-18)
(-0.273166 0.000655007 -1.49e-18)
(-0.270133 0.000639018 4.08461e-18)
(-0.267166 0.000619851 7.10959e-18)
(-0.264279 0.000597873 -3.91554e-19)
(-0.261484 0.000573487 1.37876e-18)
(-0.258792 0.000547098 -1.25542e-18)
(-0.256214 0.000519112 -1.91041e-18)
(-0.253756 0.000489929 4.17669e-19)
(-0.251426 0.000459932 3.4042e-18)
(-0.249229 0.000429487 6.2015e-18)
(-0.247167 0.000398931 7.01959e-18)
(-0.245244 0.000368574 -3.48346e-19)
(-0.243461 0.000338693 -8.51259e-20)
(-0.241817 0.000309533 -5.33252e-18)
(-0.240311 0.000281303 4.20684e-18)
(-0.23894 0.00025418 -2.11364e-18)
(-0.237703 0.000228303 -1.45489e-18)
(-0.236594 0.000203779 2.8679e-18)
(-0.235609 0.00018068 9.00351e-19)
(-0.234743 0.000159048 -2.78631e-18)
(-0.23399 0.000138908 -5.95504e-18)
(-0.233344 0.000120245 6.66834e-18)
(-0.232798 0.000103018 7.24661e-18)
(-0.232346 8.71808e-05 6.73988e-18)
(-0.231981 7.26809e-05 1.95042e-18)
(-0.231696 5.94593e-05 9.24991e-18)
(-0.231483 4.74632e-05 -4.2591e-18)
(-0.231335 3.66749e-05 -5.20705e-18)
(-0.231246 2.68536e-05 6.38058e-18)
(-0.231208 1.75362e-05 1.18125e-17)
(-0.231213 9.144e-06 4.64921e-18)
(-0.231254 1.80868e-06 -7.25421e-18)
(-0.231324 -3.49086e-06 -4.38807e-18)
(-0.231416 -9.19462e-06 -4.12568e-18)
(-0.231521 -1.43459e-05 -1.02181e-17)
(-0.231632 -1.83103e-05 3.72416e-18)
(-0.231741 -2.10839e-05 2.44082e-18)
(-0.23184 -2.28742e-05 4.14128e-19)
(-0.23192 -2.35648e-05 -6.13431e-19)
(-0.231971 -2.15828e-05 -7.39839e-18)
(-0.231984 -1.68806e-05 -1.8567e-18)
(-0.231945 -1.14015e-05 -1.38155e-18)
(-0.231844 -2.91457e-06 -5.93316e-18)
(-0.231667 9.17059e-06 -6.72364e-18)
(-0.231397 2.53423e-05 -9.24333e-18)
(-0.231017 4.62442e-05 -7.38426e-19)
(-0.230506 7.26397e-05 1.37618e-18)
(-0.229839 0.000105413 -4.05222e-19)
(-0.228989 0.000145608 -2.33384e-19)
(-0.227923 0.000194477 8.91761e-18)
(-0.2266 0.000253544 -1.11526e-18)
(-0.224974 0.0003247 -9.3297e-18)
(-0.222987 0.000410324 -4.29124e-18)
(-0.22057 0.000513463 7.79583e-18)
(-0.217636 0.000638082 1.25306e-18)
(-0.214083 0.000789342 7.20281e-18)
(-0.209764 0.000974391 7.83507e-18)
(-0.204541 0.00120189 1.40233e-18)
(-0.198113 0.00148706 7.5975e-18)
(-0.190381 0.00183909 1.53021e-17)
(-0.18055 0.00230795 3.72187e-18)
(-0.169012 0.00285863 1.19621e-17)
(-0.153286 0.00371053 -5.25349e-18)
(-0.135719 0.00448108 -9.04729e-19)
(-0.11029 0.00605132 1.14296e-17)
(-0.0819921 0.00673457 -4.78411e-18)
(-0.0458511 0.00795203 -1.56605e-18)
(-0.0101159 0.00578953 -9.55085e-20)
(-0.300266 -6.68646e-05 -3.61998e-20)
(-0.300436 -0.000242166 5.40083e-19)
(-0.300793 -0.000510142 3.52575e-20)
(-0.301395 -0.000726042 1.21307e-18)
(-0.302134 -0.000852216 1.17265e-19)
(-0.302926 -0.000878054 3.99952e-20)
(-0.303696 -0.000806906 -7.13781e-19)
(-0.304378 -0.00065189 -2.65004e-18)
(-0.304921 -0.000429149 1.2911e-18)
(-0.305286 -0.000154776 8.91854e-19)
(-0.305446 0.0001544 -2.49147e-18)
(-0.305382 0.000488257 5.84711e-19)
(-0.305082 0.000836026 -2.32361e-18)
(-0.304542 0.00118908 3.34542e-18)
(-0.303762 0.00154049 -1.60807e-18)
(-0.302747 0.0018846 9.01276e-19)
(-0.301504 0.00221687 2.06931e-18)
(-0.300043 0.00253372 -4.37894e-18)
(-0.298374 0.0028323 3.18033e-18)
(-0.296512 0.00311032 -9.30458e-20)
(-0.29447 0.00336595 1.33785e-18)
(-0.292263 0.0035977 3.90803e-18)
(-0.289907 0.00380432 -9.18994e-19)
(-0.28742 0.00398477 -4.57268e-18)
(-0.284818 0.00413822 2.49384e-18)
(-0.282118 0.00426401 1.64605e-18)
(-0.27934 0.00436173 5.30488e-18)
(-0.276502 0.00443117 6.70306e-18)
(-0.273621 0.00447246 3.93098e-18)
(-0.270716 0.004486 5.47475e-18)
(-0.267805 0.00447254 1.98656e-18)
(-0.264905 0.00443314 -2.52202e-18)
(-0.262032 0.00436917 -4.79341e-18)
(-0.259203 0.0042823 -8.52944e-19)
(-0.25643 0.00417442 4.86524e-18)
(-0.253729 0.0040476 1.09557e-18)
(-0.251109 0.00390406 4.388e-18)
(-0.248582 0.00374609 2.22493e-18)
(-0.246156 0.00357602 3.5907e-19)
(-0.243839 0.00339617 1.22196e-18)
(-0.241636 0.0032088 -2.35454e-18)
(-0.239551 0.00301609 3.45025e-18)
(-0.237589 0.0028201 -4.01374e-19)
(-0.23575 0.00262278 1.42639e-18)
(-0.234035 0.00242592 -2.12232e-18)
(-0.232443 0.00223116 4.56467e-18)
(-0.230973 0.00204 4.73194e-18)
(-0.229622 0.00185377 -5.46131e-19)
(-0.228386 0.00167363 6.3533e-18)
(-0.227262 0.00150056 -4.0881e-19)
(-0.226243 0.00133542 6.31484e-18)
(-0.225325 0.0011789 5.03768e-18)
(-0.224502 0.00103154 2.17135e-18)
(-0.223768 0.000893754 -6.54936e-19)
(-0.223115 0.000765859 2.0975e-18)
(-0.222538 0.000648049 8.72798e-19)
(-0.222029 0.00054044 6.40836e-18)
(-0.22158 0.000443075 -2.66024e-19)
(-0.221186 0.000355942 9.79049e-19)
(-0.220838 0.000278989 5.7882e-18)
(-0.22053 0.000212142 1.06097e-18)
(-0.220254 0.000155222 -1.8612e-19)
(-0.220003 0.000108225 -6.39247e-18)
(-0.21977 7.12793e-05 2.66223e-19)
(-0.219547 4.60743e-05 7.30143e-18)
(-0.219326 2.97072e-05 9.47615e-19)
(-0.219102 2.21592e-05 -2.04149e-18)
(-0.218867 2.53776e-05 5.76475e-18)
(-0.21861 4.02088e-05 1.55104e-18)
(-0.218325 6.51689e-05 1.43762e-18)
(-0.218004 0.000101426 8.84051e-18)
(-0.217638 0.000152239 8.45016e-18)
(-0.217216 0.000219498 9.13473e-18)
(-0.216728 0.000303602 6.29603e-18)
(-0.216161 0.000406833 1.87154e-18)
(-0.215502 0.000531777 1.19534e-17)
(-0.214737 0.000681533 1.12959e-17)
(-0.213848 0.000859789 5.42632e-18)
(-0.212817 0.00107103 6.39585e-18)
(-0.211622 0.00132064 -2.38119e-19)
(-0.210237 0.00161516 -3.15974e-18)
(-0.208633 0.00196268 -6.20769e-19)
(-0.206776 0.00237317 -5.28302e-18)
(-0.204624 0.00285915 -3.81154e-18)
(-0.202129 0.00343642 -5.5176e-18)
(-0.199234 0.00412524 -4.89119e-18)
(-0.195866 0.00495175 4.15e-18)
(-0.191945 0.00595037 8.11213e-18)
(-0.187353 0.00716699 1.28034e-18)
(-0.181987 0.00866148 8.82308e-18)
(-0.175616 0.0105248 1.65353e-17)
(-0.168204 0.0128392 5.11661e-18)
(-0.159085 0.0158701 8.88185e-18)
(-0.148853 0.0194567 1.34241e-17)
(-0.135039 0.0248316 5.61588e-18)
(-0.121079 0.0297459 9.01381e-18)
(-0.0995593 0.0397891 8.39164e-18)
(-0.0784637 0.043212 2.07929e-18)
(-0.0496324 0.0520468 5.3086e-19)
(-0.01286 0.0352126 5.82929e-18)
(-0.309292 -3.90928e-05 -1.3332e-20)
(-0.309405 -0.000155306 4.81419e-19)
(-0.30968 -0.000335453 -3.23763e-19)
(-0.310161 -0.000484448 1.21296e-18)
(-0.31077 -0.000573321 8.09458e-19)
(-0.31143 -0.000592868 1.37808e-18)
(-0.312072 -0.000543977 1.46048e-18)
(-0.312633 -0.000434966 -2.13298e-18)
(-0.31306 -0.000276816 5.13812e-19)
(-0.313314 -8.0544e-05 2.84741e-18)
(-0.313367 0.000140864 -2.94411e-19)
(-0.313198 0.000381156 7.1711e-19)
(-0.312792 0.00063214 -9.57236e-20)
(-0.312146 0.000887499 1.83074e-18)
(-0.311259 0.00114209 2.1098e-18)
(-0.310135 0.0013917 3.66206e-18)
(-0.308781 0.00163292 6.0326e-18)
(-0.307207 0.00186308 -3.76843e-18)
(-0.305424 0.00208002 4.39335e-18)
(-0.303445 0.00228204 2.98422e-18)
(-0.301286 0.00246776 3.27671e-18)
(-0.29896 0.00263605 1.88883e-18)
(-0.296485 0.00278598 -1.24607e-18)
(-0.293879 0.0029168 7.3415e-19)
(-0.291157 0.00302787 1.24475e-18)
(-0.28834 0.00311872 5.51994e-18)
(-0.285444 0.00318903 5.64649e-18)
(-0.28249 0.00323869 4.18685e-18)
(-0.279495 0.00326775 7.97272e-18)
(-0.276479 0.00327654 2.49024e-18)
(-0.273459 0.00326558 1.91906e-18)
(-0.270454 0.00323567 2.33418e-19)
(-0.267479 0.00318779 -1.7397e-18)
(-0.264551 0.00312317 7.4444e-19)
(-0.261685 0.00304317 4.95373e-18)
(-0.258894 0.00294932 1.0281e-18)
(-0.25619 0.00284323 -6.94133e-19)
(-0.253584 0.00272658 3.97761e-18)
(-0.251085 0.00260107 4.85301e-18)
(-0.248701 0.00246838 4.59222e-18)
(-0.246438 0.00233017 3.56523e-18)
(-0.2443 0.00218803 4.53357e-18)
(-0.242291 0.00204346 1.6218e-18)
(-0.240413 0.0018979 4.30784e-18)
(-0.238667 0.00175264 -1.96073e-19)
(-0.237052 0.00160888 3.44444e-18)
(-0.235566 0.00146772 9.30798e-19)
(-0.234208 0.00133012 -3.76062e-20)
(-0.232974 0.00119692 4.4106e-18)
(-0.231859 0.00106885 6.72042e-18)
(-0.23086 0.000946509 7.5068e-18)
(-0.22997 0.000830397 5.28809e-18)
(-0.229184 0.000720905 4.76829e-18)
(-0.228496 0.000618332 5.09013e-18)
(-0.227898 0.000522888 5.22675e-18)
(-0.227385 0.00043471 1.62012e-18)
(-0.22695 0.000353871 2.69536e-18)
(-0.226584 0.000280399 2.61348e-18)
(-0.226282 0.000214284 1.84688e-18)
(-0.226035 0.000155489 6.45224e-18)
(-0.225838 0.000103929 3.34755e-18)
(-0.225682 5.94073e-05 -1.6101e-18)
(-0.22556 2.20514e-05 3.45833e-18)
(-0.225463 -7.8482e-06 4.91919e-18)
(-0.225388 -3.22733e-05 6.26909e-18)
(-0.225325 -5.05019e-05 -1.02116e-18)
(-0.225267 -6.18741e-05 -5.97906e-18)
(-0.225206 -6.46026e-05 1.31499e-18)
(-0.225134 -5.84335e-05 6.81743e-18)
(-0.225044 -4.51377e-05 -4.28043e-18)
(-0.224925 -2.32518e-05 4.0325e-19)
(-0.224767 8.05394e-06 -4.24293e-18)
(-0.224562 4.96729e-05 -3.98875e-18)
(-0.2243 0.000103498 -4.45864e-19)
(-0.223968 0.000171321 -5.18976e-18)
(-0.223551 0.000255047 2.90221e-18)
(-0.223035 0.000356961 -3.75012e-18)
(-0.222402 0.000479792 1.59402e-18)
(-0.221633 0.000626858 2.6532e-18)
(-0.220704 0.000802135 -7.1425e-18)
(-0.219588 0.00101048 -1.95026e-18)
(-0.218255 0.00125785 -6.77345e-18)
(-0.216667 0.00155164 -1.31224e-17)
(-0.21478 0.00190108 -4.22792e-18)
(-0.212541 0.00231787 -1.14852e-17)
(-0.209888 0.00281699 -2.46971e-18)
(-0.206739 0.00341779 -7.29907e-18)
(-0.203004 0.00414563 -3.66894e-18)
(-0.19855 0.00503477 3.92194e-18)
(-0.193258 0.00612843 -4.82204e-18)
(-0.186859 0.00749661 1.1254e-17)
(-0.179286 0.00919323 -3.49507e-18)
(-0.169804 0.0114396 -3.12913e-18)
(-0.15891 0.0140854 5.98439e-18)
(-0.144121 0.0181166 -7.12505e-18)
(-0.12835 0.0217751 1.80889e-18)
(-0.104869 0.0292778 -2.39221e-18)
(-0.0801236 0.0321713 -1.05666e-17)
(-0.0479788 0.0383331 4.11648e-18)
(-0.011723 0.0269348 -4.92063e-18)
(-0.275482 -0.000172856 -1.04293e-19)
(-0.275876 -0.00051247 2.42208e-19)
(-0.276511 -0.00100179 8.43935e-19)
(-0.277486 -0.00136968 7.52375e-19)
(-0.278607 -0.0015721 -6.99222e-19)
(-0.279768 -0.00160491 -6.94624e-19)
(-0.280886 -0.00148262 -1.88171e-19)
(-0.281894 -0.00123124 -2.06817e-18)
(-0.282743 -0.000878408 -2.69974e-19)
(-0.283401 -0.000450135 1.44789e-18)
(-0.283844 3.34756e-05 -3.65975e-18)
(-0.284061 0.000542382 -1.55815e-19)
(-0.284042 0.00107224 -2.67097e-20)
(-0.283785 0.00160851 -1.65838e-18)
(-0.283292 0.00214076 -3.50205e-18)
(-0.282569 0.00266088 1.16279e-19)
(-0.281623 0.00316243 -2.95062e-18)
(-0.280465 0.00364033 -4.6293e-18)
(-0.279104 0.00409054 -3.67727e-18)
(-0.277553 0.00450985 3.88287e-18)
(-0.275827 0.00489564 2.22378e-18)
(-0.273937 0.00524574 -2.1508e-18)
(-0.2719 0.00555834 -3.30856e-18)
(-0.269732 0.00583192 -2.22003e-18)
(-0.267447 0.0060652 -6.54761e-19)
(-0.265063 0.0062572 -3.74573e-18)
(-0.262596 0.00640726 1.42302e-18)
(-0.260065 0.00651509 2.66376e-18)
(-0.257485 0.00658083 7.4838e-19)
(-0.254874 0.00660512 6.20302e-18)
(-0.252249 0.00658912 1.69969e-18)
(-0.249626 0.00653448 1.15451e-18)
(-0.24702 0.0064433 -4.93971e-18)
(-0.244446 0.00631815 -1.62473e-18)
(-0.241917 0.00616189 2.84131e-19)
(-0.239445 0.0059777 2.75356e-19)
(-0.237041 0.00576891 1.41822e-18)
(-0.234713 0.00553897 7.76894e-19)
(-0.23247 0.00529139 -4.78626e-18)
(-0.230319 0.00502961 -2.83193e-18)
(-0.228263 0.00475704 -1.08802e-18)
(-0.226306 0.00447691 -1.00055e-18)
(-0.224451 0.00419234 -1.52421e-18)
(-0.222698 0.00390621 -1.35134e-19)
(-0.221048 0.0036212 2.47541e-18)
(-0.219498 0.00333977 1.48865e-18)
(-0.218046 0.00306414 1.21206e-18)
(-0.21669 0.00279631 -1.14114e-18)
(-0.215424 0.00253801 2.11775e-18)
(-0.214245 0.00229073 2.36247e-18)
(-0.213147 0.00205573 -2.16738e-19)
(-0.212124 0.00183405 -2.95617e-18)
(-0.21117 0.00162652 1.15352e-18)
(-0.210278 0.00143378 1.48806e-18)
(-0.209442 0.00125629 2.54984e-18)
(-0.208654 0.00109436 7.89384e-19)
(-0.207907 0.000948157 8.03274e-18)
(-0.207195 0.000817769 8.7299e-18)
(-0.20651 0.000703174 1.89728e-18)
(-0.205844 0.000604291 1.77624e-18)
(-0.205191 0.000521002 -7.04624e-18)
(-0.204543 0.00045314 1.07799e-18)
(-0.203892 0.000400696 -8.05578e-18)
(-0.203233 0.000363797 -1.57695e-18)
(-0.202556 0.000342838 -1.70941e-19)
(-0.201855 0.000337333 1.12348e-19)
(-0.201124 0.000347505 -4.20275e-19)
(-0.200353 0.000374293 9.92739e-20)
(-0.199535 0.000418509 1.94386e-18)
(-0.198662 0.000480839 1.0035e-17)
(-0.197726 0.000562694 5.7983e-18)
(-0.196718 0.000666267 4.93556e-18)
(-0.195628 0.000793838 4.9071e-18)
(-0.194445 0.000947563 6.69242e-18)
(-0.193159 0.00113064 5.89835e-18)
(-0.191757 0.00134687 1.48998e-17)
(-0.190226 0.00160079 1.56615e-17)
(-0.188551 0.00189786 7.90654e-18)
(-0.186714 0.0022447 1.85252e-17)
(-0.184698 0.0026492 4.06816e-18)
(-0.182481 0.003121 8.86795e-19)
(-0.180038 0.00367191 -2.60103e-18)
(-0.177344 0.00431646 -1.04465e-17)
(-0.174366 0.0050728 -1.41476e-17)
(-0.171069 0.00596364 -1.23729e-17)
(-0.167413 0.00701798 -1.88927e-18)
(-0.16335 0.00827276 -9.91872e-18)
(-0.158828 0.00977643 3.32098e-18)
(-0.153778 0.0115919 -9.01625e-18)
(-0.14815 0.0138036 1.185e-17)
(-0.141817 0.0165251 -2.66954e-18)
(-0.134825 0.0198953 1.12527e-17)
(-0.126755 0.02421 -2.52646e-19)
(-0.118389 0.0293987 1.20723e-17)
(-0.107567 0.0367825 6.92279e-19)
(-0.0988008 0.0436257 8.65107e-18)
(-0.083288 0.0571016 1.12113e-18)
(-0.0736352 0.0600444 -1.4525e-17)
(-0.0531031 0.074206 -1.28395e-17)
(-0.0164129 0.0421458 -3.94641e-18)
(-0.288835 -0.000109876 -5.5738e-20)
(-0.289094 -0.000359887 4.87907e-19)
(-0.289571 -0.000731906 3.39487e-19)
(-0.290338 -0.00102251 6.96795e-19)
(-0.291249 -0.00118842 -8.49094e-19)
(-0.292211 -0.00122034 -1.28931e-18)
(-0.293143 -0.00112604 -3.95875e-19)
(-0.293977 -0.000924502 -1.57361e-18)
(-0.294663 -0.000637358 1.30575e-19)
(-0.295164 -0.000285672 -7.42732e-19)
(-0.295457 0.000111321 -2.16709e-18)
(-0.295526 0.000534335 1.75254e-18)
(-0.295356 0.000974615 -6.04982e-19)
(-0.294948 0.0014212 2.69453e-18)
(-0.294302 0.00186532 -1.38864e-18)
(-0.293423 0.00229993 1.86274e-19)
(-0.292319 0.00271944 -1.76311e-19)
(-0.290998 0.00311941 -3.0123e-18)
(-0.289473 0.00349634 -7.80364e-19)
(-0.287756 0.00384744 3.80922e-18)
(-0.28586 0.00417043 1.64989e-18)
(-0.283801 0.00446345 9.04288e-19)
(-0.281594 0.00472495 -3.97506e-18)
(-0.279256 0.00495362 -5.43992e-18)
(-0.276802 0.00514839 1.51478e-20)
(-0.27425 0.00530843 -7.76009e-19)
(-0.271617 0.00543318 1.90185e-18)
(-0.268922 0.0055224 6.23315e-18)
(-0.266182 0.0055762 2.13459e-18)
(-0.263415 0.00559511 4.0813e-18)
(-0.260638 0.00558005 1.60093e-18)
(-0.257868 0.00553238 -2.45748e-19)
(-0.255121 0.00545383 -3.12981e-18)
(-0.252412 0.0053465 -1.17128e-18)
(-0.249755 0.00521276 1.51975e-18)
(-0.247162 0.00505525 4.44001e-19)
(-0.244645 0.00487676 4.84769e-18)
(-0.242213 0.00468016 1.57255e-18)
(-0.239875 0.0044684 -4.31566e-18)
(-0.237637 0.0042444 -9.84647e-19)
(-0.235505 0.00401099 -1.15403e-18)
(-0.233484 0.00377094 -2.33268e-18)
(-0.231575 0.00352685 -4.02626e-18)
(-0.229779 0.00328118 -6.92242e-20)
(-0.228098 0.00303619 3.12421e-18)
(-0.22653 0.00279396 2.2575e-18)
(-0.225073 0.00255638 2.25856e-18)
(-0.223724 0.00232513 -3.70368e-18)
(-0.222479 0.00210168 5.62318e-18)
(-0.221334 0.00188732 1.08974e-18)
(-0.220284 0.00168309 2.09401e-18)
(-0.219323 0.0014899 -2.60243e-18)
(-0.218446 0.00130843 8.14303e-19)
(-0.217644 0.00113924 4.02344e-18)
(-0.216913 0.0009827 1.76346e-18)
(-0.216245 0.000839083 7.0504e-19)
(-0.215633 0.000708531 4.84137e-18)
(-0.215069 0.000591096 7.28578e-18)
(-0.214548 0.000486752 1.71577e-18)
(-0.214061 0.000395406 -1.72529e-18)
(-0.213601 0.000316922 -2.01158e-18)
(-0.213162 0.000251074 8.0627e-21)
(-0.212735 0.000197779 -9.28151e-18)
(-0.212314 0.000156826 -1.33486e-18)
(-0.211891 0.000127997 2.05153e-18)
(-0.211459 0.000112382 7.24359e-19)
(-0.211011 0.000110221 -7.72424e-19)
(-0.210539 0.000120869 1.87028e-18)
(-0.210035 0.000144796 -4.09699e-18)
(-0.209492 0.000184369 8.63719e-18)
(-0.208899 0.000241025 1.11046e-17)
(-0.20825 0.000315126 1.08587e-17)
(-0.207532 0.000408338 1.1588e-17)
(-0.206738 0.000522822 -6.80853e-19)
(-0.205854 0.000661549 8.54905e-18)
(-0.204867 0.000827785 1.55963e-17)
(-0.203764 0.00102543 1.65847e-17)
(-0.202529 0.00125912 1.23754e-17)
(-0.201143 0.00153453 1.56303e-17)
(-0.199587 0.00185842 3.18136e-18)
(-0.197836 0.00223906 -7.55771e-18)
(-0.195864 0.0026866 5.68233e-18)
(-0.19364 0.0032136 -4.4424e-18)
(-0.191126 0.00383577 -5.7406e-18)
(-0.18828 0.00457286 -6.10049e-18)
(-0.185053 0.00545017 -1.01778e-17)
(-0.181383 0.00650016 -2.99809e-18)
(-0.177202 0.00776539 3.72104e-18)
(-0.172415 0.00930209 -2.31378e-18)
(-0.166943 0.0111838 6.535e-18)
(-0.1606 0.0135171 1.34388e-17)
(-0.153386 0.0164094 1.48887e-17)
(-0.144735 0.0201583 3.91846e-18)
(-0.135334 0.0246292 8.24359e-18)
(-0.122853 0.0311967 -5.91016e-18)
(-0.11123 0.0371642 -2.83015e-18)
(-0.0923933 0.0493057 2.51238e-18)
(-0.0763492 0.0525784 -1.10452e-17)
(-0.0517341 0.0636558 -4.25561e-18)
(-0.0144809 0.0394742 1.58507e-19)
(-0.245288 -0.000386785 -4.6308e-20)
(-0.246116 -0.000971035 1.16224e-19)
(-0.247178 -0.00172549 7.03668e-19)
(-0.248671 -0.00225068 6.11079e-19)
(-0.25028 -0.00251069 -1.9306e-18)
(-0.251887 -0.00252808 -5.10825e-19)
(-0.25341 -0.00233752 3.01262e-20)
(-0.254789 -0.00198048 -1.80154e-19)
(-0.255987 -0.00149646 1.87636e-19)
(-0.256978 -0.000919751 -1.60095e-18)
(-0.257744 -0.000277582 -2.93058e-18)
(-0.25828 0.000397862 -9.60421e-19)
(-0.258584 0.00108764 1.24938e-18)
(-0.258655 0.00178358 -3.11882e-18)
(-0.258496 0.00247296 -1.11613e-18)
(-0.258113 0.00314563 3.34902e-18)
(-0.257514 0.00379371 -2.78986e-18)
(-0.256708 0.00441099 -2.85989e-18)
(-0.255705 0.00499256 2.26032e-18)
(-0.254517 0.00553448 1.0601e-18)
(-0.253155 0.00603353 3.81498e-19)
(-0.251633 0.00648702 -1.63502e-19)
(-0.249964 0.00689264 -3.87002e-18)
(-0.248162 0.00724843 2.71868e-18)
(-0.246242 0.00755272 -3.31342e-18)
(-0.244218 0.0078042 -8.54206e-19)
(-0.242107 0.00800198 2.0368e-18)
(-0.239923 0.00814563 1.41478e-18)
(-0.237683 0.00823534 -3.0728e-18)
(-0.235403 0.00827196 2.38248e-18)
(-0.233097 0.00825697 1.13179e-18)
(-0.230781 0.00819258 4.91595e-18)
(-0.228469 0.00808157 3.06959e-18)
(-0.226174 0.00792735 -3.5728e-18)
(-0.223907 0.00773373 -1.32833e-19)
(-0.22168 0.00750493 4.75848e-19)
(-0.219501 0.00724538 -3.19045e-18)
(-0.217379 0.00695964 1.74254e-19)
(-0.21532 0.00665233 -2.73406e-19)
(-0.213329 0.00632798 -5.76644e-18)
(-0.21141 0.00599102 -9.02777e-19)
(-0.209564 0.00564568 1.24566e-19)
(-0.207794 0.00529596 3.49279e-19)
(-0.206098 0.0049456 3.21165e-19)
(-0.204475 0.00459804 9.81407e-18)
(-0.202923 0.0042564 2.38515e-18)
(-0.20144 0.0039235 8.59035e-19)
(-0.200019 0.0036019 3.25007e-20)
(-0.198658 0.00329378 7.65478e-19)
(-0.19735 0.00300101 2.77882e-18)
(-0.196089 0.00272513 -5.31696e-19)
(-0.19487 0.00246742 -4.46294e-18)
(-0.193684 0.00222888 8.12943e-19)
(-0.192526 0.00201024 -2.17284e-18)
(-0.191388 0.00181203 2.01896e-18)
(-0.190262 0.00163458 9.91092e-19)
(-0.189141 0.00147804 3.91665e-18)
(-0.188017 0.00134245 2.91593e-18)
(-0.186884 0.00122774 1.48361e-18)
(-0.185733 0.00113376 3.21886e-18)
(-0.184557 0.00106035 -2.40063e-18)
(-0.183348 0.00100734 2.24923e-18)
(-0.182099 0.000974723 -4.82985e-19)
(-0.180802 0.000962592 -9.34261e-20)
(-0.17945 0.000971206 -5.79112e-18)
(-0.178036 0.00100064 -1.39038e-19)
(-0.17655 0.00105138 7.27759e-19)
(-0.174987 0.00112435 -5.96533e-18)
(-0.173336 0.00122062 -2.04198e-18)
(-0.171591 0.00134159 8.66088e-18)
(-0.169743 0.00148911 2.34069e-18)
(-0.167782 0.00166555 1.26411e-18)
(-0.165699 0.0018737 1.12006e-18)
(-0.163484 0.00211673 1.10015e-18)
(-0.161126 0.00239876 -3.94172e-18)
(-0.158613 0.00272467 1.0408e-17)
(-0.155935 0.00310029 4.74727e-18)
(-0.153077 0.00353256 1.14838e-17)
(-0.150026 0.00402997 1.67632e-17)
(-0.146766 0.00460244 3.58166e-18)
(-0.143282 0.00526215 4.29305e-18)
(-0.139556 0.00602393 3.90967e-18)
(-0.135571 0.00690595 -6.37935e-19)
(-0.131308 0.00793067 4.08e-18)
(-0.126748 0.00912606 -1.63908e-18)
(-0.121873 0.0105274 2.57166e-18)
(-0.116667 0.0121793 -1.46831e-19)
(-0.111118 0.0141393 4.00415e-18)
(-0.105222 0.016481 1.10198e-18)
(-0.0989967 0.0193017 1.27442e-17)
(-0.0924598 0.0227213 -1.3534e-19)
(-0.0857622 0.0269132 -1.82013e-18)
(-0.0788202 0.0320656 -4.50574e-18)
(-0.0725639 0.0383189 1.53318e-18)
(-0.06557 0.0463078 1.25497e-17)
(-0.0631116 0.0542852 2.18984e-18)
(-0.0557314 0.066867 4.45534e-19)
(-0.0624134 0.0692658 -3.53114e-18)
(-0.0512044 0.0828347 -3.98381e-18)
(-0.0329728 0.0363774 -3.96366e-18)
(-0.260766 -0.000263892 -5.39786e-20)
(-0.261347 -0.000717572 3.37295e-19)
(-0.26218 -0.00133631 9.53462e-19)
(-0.263401 -0.00178504 1.17079e-18)
(-0.264759 -0.00202032 -1.58358e-18)
(-0.266139 -0.00204917 -5.58582e-19)
(-0.267458 -0.00189514 -7.0521e-20)
(-0.268651 -0.00159187 -7.54981e-19)
(-0.269673 -0.00117304 -7.73138e-20)
(-0.270497 -0.000669069 -2.88537e-21)
(-0.271101 -0.0001028 -4.08769e-18)
(-0.271477 0.000489299 -7.93122e-19)
(-0.271618 0.00110107 4.6803e-19)
(-0.271523 0.00171981 -1.64497e-18)
(-0.271195 0.00233337 -1.78454e-18)
(-0.270641 0.00293255 1.14989e-18)
(-0.269866 0.00351016 -1.8079e-18)
(-0.268882 0.00406049 -2.7555e-18)
(-0.267698 0.00457902 -7.93001e-19)
(-0.266327 0.00506214 1.56829e-18)
(-0.264781 0.00550688 3.61945e-18)
(-0.263074 0.0059108 -2.82318e-19)
(-0.26122 0.0062718 -5.3311e-18)
(-0.259233 0.00658811 -3.34031e-19)
(-0.257129 0.00685824 -1.35519e-18)
(-0.254925 0.00708103 -1.83745e-18)
(-0.252635 0.00725566 3.83393e-18)
(-0.250277 0.00738177 1.74942e-18)
(-0.247867 0.00745949 -7.68827e-19)
(-0.245421 0.00748957 5.75307e-18)
(-0.242956 0.00747333 1.4838e-18)
(-0.240487 0.00741271 2.34884e-18)
(-0.23803 0.0073102 -3.27601e-18)
(-0.235596 0.0071688 -2.101e-18)
(-0.2332 0.00699191 -2.00916e-19)
(-0.230853 0.00678326 2.29752e-19)
(-0.228564 0.00654676 -6.05075e-19)
(-0.226342 0.00628646 2.95688e-19)
(-0.224195 0.00600643 -1.70324e-18)
(-0.222128 0.0057107 -6.05205e-18)
(-0.220145 0.00540319 -1.24707e-18)
(-0.218249 0.00508766 -2.82047e-19)
(-0.216442 0.00476767 -3.81676e-19)
(-0.214724 0.00444655 -1.21928e-19)
(-0.213095 0.00412736 4.36756e-18)
(-0.211552 0.0038129 1.76963e-18)
(-0.210093 0.00350572 8.71516e-19)
(-0.208714 0.00320807 -3.23821e-19)
(-0.207411 0.00292192 9.81254e-19)
(-0.206178 0.00264894 5.38816e-18)
(-0.205011 0.00239054 -3.21101e-18)
(-0.203902 0.00214787 -6.44784e-18)
(-0.202846 0.00192183 3.80215e-18)
(-0.201836 0.00171311 2.68347e-20)
(-0.200864 0.0015222 5.59069e-18)
(-0.199924 0.00134939 1.18207e-18)
(-0.199009 0.00119486 7.98506e-18)
(-0.19811 0.00105863 4.69864e-18)
(-0.197221 0.000940639 1.54783e-18)
(-0.196334 0.000840764 5.98809e-18)
(-0.195442 0.000758839 -6.79624e-18)
(-0.194537 0.000694677 4.93885e-18)
(-0.193613 0.000648231 -2.50207e-18)
(-0.192661 0.000619515 -8.59272e-19)
(-0.191675 0.000608746 -2.05071e-18)
(-0.190647 0.000616201 -2.19959e-19)
(-0.18957 0.000642345 -4.72796e-21)
(-0.188435 0.000687716 -1.78336e-18)
(-0.187236 0.000753209 -5.65973e-18)
(-0.185963 0.000840315 5.9525e-18)
(-0.184608 0.000950664 3.3943e-18)
(-0.183163 0.00108606 2.31304e-18)
(-0.181618 0.00124884 2.43484e-18)
(-0.179963 0.00144176 2.63281e-18)
(-0.178186 0.00166853 7.20233e-18)
(-0.176276 0.00193345 9.29204e-18)
(-0.174221 0.0022417 7.74334e-18)
(-0.172005 0.00259945 7.39623e-18)
(-0.169615 0.00301424 1.89563e-17)
(-0.167032 0.00349497 4.47212e-18)
(-0.164239 0.00405255 9.32917e-18)
(-0.161214 0.00470032 8.52583e-18)
(-0.157935 0.0054547 -3.03504e-18)
(-0.154378 0.00633611 -1.18506e-17)
(-0.150513 0.00737013 -5.33609e-18)
(-0.146313 0.00858927 7.30917e-18)
(-0.141742 0.0100349 -2.43994e-18)
(-0.136772 0.0117614 1.06535e-17)
(-0.131361 0.0138389 -2.21322e-18)
(-0.125493 0.0163623 7.77041e-18)
(-0.119111 0.0194559 -3.73675e-19)
(-0.112315 0.0232844 -5.60255e-18)
(-0.104848 0.0281072 -1.02132e-17)
(-0.0975558 0.0338998 3.35159e-18)
(-0.0886553 0.0417946 4.57e-18)
(-0.0829981 0.0493024 3.50439e-18)
(-0.0714894 0.0630876 8.0518e-19)
(-0.0695723 0.0655616 -6.85574e-18)
(-0.0536548 0.0806057 -7.38562e-18)
(-0.0209871 0.0402831 -1.12619e-17)
(1.30258 0.174282 1.4853e-18)
(1.30146 0.18605 2.75898e-18)
(1.29975 0.192668 -1.14857e-18)
(1.29844 0.201758 4.18841e-18)
(1.29773 0.210378 3.68993e-18)
(1.29772 0.219626 -1.48599e-18)
(1.29856 0.229065 -2.69531e-18)
(1.30042 0.238823 1.70311e-18)
(1.30356 0.248808 -6.28161e-19)
(1.30827 0.25898 5.78836e-19)
(1.31473 0.269138 1.09551e-18)
(1.32239 0.278682 3.30951e-19)
(1.32787 0.285779 -1.12841e-18)
(1.31934 0.284636 4.28345e-18)
(1.26822 0.26409 1.42715e-18)
(1.12722 0.211571 2.08286e-18)
(0.843838 0.127772 1.64643e-17)
(0.422037 0.0337199 3.24673e-18)
(0.0662033 0.0189951 1.97183e-17)
(-0.0598012 0.0237914 7.54437e-18)
(1.30598 0.175961 2.7049e-18)
(1.30502 0.18747 2.25042e-18)
(1.30339 0.193985 7.51385e-19)
(1.30226 0.203021 2.31644e-18)
(1.3017 0.211537 2.92248e-18)
(1.3019 0.220691 -2.16132e-19)
(1.30299 0.229986 -7.04751e-19)
(1.30516 0.239551 2.16741e-18)