/*--------------------------------*- C++ -*----------------------------------*\
  =========                 |
  \\      /  F ield         | OpenFOAM: The Open Source CFD Toolbox
   \\    /   O peration     | Website:  https://openfoam.org
    \\  /    A nd           | Version:  10
     \\/     M anipulation  |
\*---------------------------------------------------------------------------*/
FoamFile
{
    format      ascii;
    class       volScalarField;
    location    "20";
    object      p;
}
// * * * * * * * * * * * * * * * * * * * * * * * * * * * * * * * * * * * * * //

dimensions      [0 2 -2 0 0 0 0];

internalField   nonuniform List<scalar> 
3600
(
-0.0178017
0.027411
-0.0289349
0.0418997
-0.0491895
0.0607345
-0.0823077
0.0805737
-0.141411
0.0314197
-0.0178055
0.0274185
-0.0289389
0.041912
-0.0491993
0.0607578
-0.082323
0.0806056
-0.141349
0.0313645
-0.0178082
0.0274245
-0.028941
0.0419215
-0.049205
0.0607754
-0.0823304
0.0806282
-0.141293
0.0313557
-0.0178109
0.02743
-0.0289432
0.0419305
-0.0492107
0.0607923
-0.082338
0.080651
-0.141242
0.0313407
-0.0178134
0.0274352
-0.0289458
0.0419393
-0.049217
0.060809
-0.0823468
0.080675
-0.141197
0.0313138
-0.0178159
0.02744
-0.0289488
0.0419478
-0.0492236
0.0608252
-0.0823562
0.0806994
-0.141158
0.0312797
-0.0178183
0.0274444
-0.028952
0.0419558
-0.0492305
0.0608407
-0.0823661
0.0807241
-0.141124
0.0312393
-0.0178206
0.0274486
-0.0289556
0.0419637
-0.0492379
0.060856
-0.0823768
0.08075
-0.141096
0.0311906
-0.0178227
0.0274523
-0.0289594
0.041971
-0.0492454
0.0608706
-0.0823881
0.0807763
-0.141075
0.0311349
-0.0178239
0.0274543
-0.0289616
0.0419753
-0.0492501
0.0608797
-0.0823955
0.0807942
-0.141064
0.0310938
-0.0177305
0.0272765
-0.0288466
0.0416646
-0.0489927
0.0602793
-0.0820153
0.0798438
-0.142483
0.0325624
-0.0177391
0.0272927
-0.028857
0.041692
-0.0490168
0.0603321
-0.0820532
0.0799287
-0.14236
0.032412
-0.0177468
0.0273076
-0.0288651
0.0417173
-0.0490355
0.0603806
-0.0820799
0.080005
-0.14223
0.0323354
-0.0177544
0.0273221
-0.0288735
0.0417423
-0.0490544
0.0604289
-0.0821066
0.0800816
-0.142103
0.0322502
-0.0177619
0.0273365
-0.0288823
0.0417672
-0.0490741
0.060477
-0.0821348
0.0801585
-0.141984
0.0321499
-0.0177692
0.0273504
-0.0288913
0.0417918
-0.0490939
0.0605245
-0.0821635
0.0802349
-0.141871
0.0320426
-0.0177765
0.0273641
-0.0289005
0.041816
-0.049114
0.0605714
-0.0821925
0.080311
-0.141763
0.0319305
-0.0177837
0.0273775
-0.0289101
0.0418402
-0.0491345
0.0606183
-0.0822219
0.0803881
-0.14166
0.031813
-0.0177907
0.0273905
-0.0289199
0.0418639
-0.0491553
0.0606645
-0.0822522
0.080465
-0.141564
0.0316883
-0.0177968
0.0274017
-0.0289284
0.0418839
-0.0491742
0.0607036
-0.0822822
0.0805283
-0.141484
0.0315535
-0.017612
0.0270642
-0.028692
0.0412908
-0.0486603
0.0595432
-0.0815108
0.0785111
-0.144179
0.0346515
-0.0176253
0.0270874
-0.0287093
0.0413306
-0.0486983
0.0596218
-0.0815712
0.0786608
-0.144012
0.0343956
-0.0176376
0.0271097
-0.0287239
0.0413692
-0.0487298
0.0596975
-0.0816173
0.0788008
-0.143813
0.0342429
-0.0176499
0.0271319
-0.0287389
0.0414081
-0.0487617
0.0597739
-0.081664
0.0789414
-0.143616
0.0340732
-0.0176621
0.0271539
-0.0287542
0.0414469
-0.0487945
0.0598502
-0.0817125
0.0790809
-0.143429
0.0338845
-0.0176742
0.0271756
-0.0287698
0.0414854
-0.0488276
0.0599259
-0.0817613
0.0792181
-0.14325
0.0336902
-0.0176861
0.0271971
-0.0287854
0.0415236
-0.0488606
0.0600011
-0.08181
0.0793535
-0.143076
0.0334938
-0.017698
0.0272184
-0.0288013
0.041562
-0.0488939
0.0600764
-0.0818587
0.0794887
-0.142906
0.0332968
-0.0177098
0.0272394
-0.0288175
0.0416002
-0.0489279
0.0601513
-0.0819088
0.0796229
-0.142745
0.0330924
-0.0177207
0.0272588
-0.0288329
0.0416345
-0.0489618
0.0602189
-0.0819631
0.0797424
-0.142612
0.0328462
-0.017449
0.0267867
-0.0284657
0.0407943
-0.0482001
0.0585516
-0.0808188
0.0764429
-0.146791
0.0385662
-0.0174668
0.0268195
-0.0284866
0.04085
-0.0482368
0.0586563
-0.0808613
0.0766409
-0.146052
0.0372478
-0.0174854
0.0268504
-0.0285129
0.0409072
-0.0482898
0.0587724
-0.0809408
0.0769025
-0.145829
0.0371604
-0.0175021
0.0268782
-0.0285358
0.0409574
-0.0483371
0.0588737
-0.081013
0.0771255
-0.145644
0.0370222
-0.0175183
0.0269055
-0.0285577
0.0410061
-0.0483819
0.0589712
-0.0810801
0.0773331
-0.145408
0.0367181
-0.0175344
0.0269328
-0.0285797
0.0410552
-0.0484268
0.0590693
-0.0811474
0.0775395
-0.145167
0.036397
-0.0175504
0.02696
-0.0286019
0.0411044
-0.0484721
0.0591676
-0.0812151
0.077744
-0.144938
0.0360935
-0.0175664
0.0269872
-0.0286243
0.0411538
-0.0485175
0.0592663
-0.0812823
0.0779465
-0.144711
0.0358006
-0.0175824
0.0270143
-0.0286472
0.0412034
-0.0485641
0.0593651
-0.0813517
0.0781473
-0.144496
0.0355011
-0.0175976
0.0270398
-0.0286703
0.041249
-0.048613
0.059457
-0.0814307
0.0783355
-0.144335
0.0351197
-0.0659248
-0.0900238
-0.0901894
-0.128364
-0.130417
-0.203826
-0.217527
-0.375642
-0.474678
-0.828014
-0.0660576
-0.0899654
-0.090134
-0.127944
-0.130061
-0.202705
-0.216803
-0.373631
-0.476763
-0.820979
-0.0662002
-0.0899077
-0.0901127
-0.127548
-0.129807
-0.201699
-0.216393
-0.372171
-0.478983
-0.812046
-0.0663397
-0.0898406
-0.0900741
-0.127124
-0.129501
-0.200615
-0.215821
-0.370569
-0.480891
-0.806308
-0.0664745
-0.0897636
-0.0900132
-0.126665
-0.129124
-0.199428
-0.215037
-0.368723
-0.482346
-0.802512
-0.0666063
-0.0896779
-0.089936
-0.126178
-0.128699
-0.198162
-0.214109
-0.36673
-0.48346
-0.799492
-0.0667354
-0.0895841
-0.089845
-0.125666
-0.12823
-0.196825
-0.213056
-0.364622
-0.484306
-0.797137
-0.0668636
-0.0894846
-0.0897427
-0.125132
-0.127722
-0.195421
-0.211887
-0.362422
-0.485014
-0.795915
-0.0669941
-0.0893816
-0.089635
-0.124579
-0.12719
-0.193966
-0.210658
-0.360275
-0.486054
-0.796676
-0.0671035
-0.0892383
-0.0894837
-0.123963
-0.126566
-0.192378
-0.209165
-0.357669
-0.485984
-0.795455
-0.0644417
-0.090131
-0.0905933
-0.131863
-0.133886
-0.213967
-0.224286
-0.399142
-0.45965
-0.899082
-0.0645934
-0.090166
-0.0905846
-0.13162
-0.133618
-0.213183
-0.223821
-0.397081
-0.461677
-0.887152
-0.0647555
-0.0901992
-0.0906131
-0.131397
-0.133467
-0.212497
-0.223719
-0.395467
-0.464319
-0.872123
-0.0649151
-0.0902205
-0.090627
-0.131142
-0.133275
-0.211734
-0.223503
-0.39369
-0.466654
-0.860437
-0.0650701
-0.0902285
-0.0906174
-0.130846
-0.133015
-0.210861
-0.22308
-0.391628
-0.46842
-0.851261
-0.0652219
-0.0902244
-0.0905895
-0.130515
-0.132702
-0.209897
-0.222503
-0.389353
-0.469755
-0.843266
-0.0653711
-0.0902089
-0.0905463
-0.130152
-0.132345
-0.208853
-0.221798
-0.386908
-0.470778
-0.836216
-0.0655179
-0.0901823
-0.0904881
-0.129758
-0.131944
-0.207729
-0.220963
-0.384294
-0.471495
-0.830057
-0.0656625
-0.0901452
-0.0904159
-0.129335
-0.131501
-0.206528
-0.219998
-0.381497
-0.471796
-0.824323
-0.0658037
-0.0900962
-0.0903259
-0.128876
-0.131008
-0.205232
-0.218881
-0.378491
-0.471914
-0.820684
-0.062773
-0.089028
-0.0902905
-0.132887
-0.13599
-0.21894
-0.227897
-0.414573
-0.444929
-0.977873
-0.0629459
-0.0891952
-0.0903553
-0.132908
-0.13584
-0.218726
-0.227598
-0.413737
-0.446438
-0.966224
-0.0631277
-0.0893604
-0.0904574
-0.132951
-0.135814
-0.218601
-0.227717
-0.41323
-0.449039
-0.949999
-0.0633068
-0.0895115
-0.0905467
-0.13296
-0.135761
-0.218393
-0.227782
-0.41249
-0.451517
-0.937004
-0.0634809
-0.0896459
-0.0906114
-0.132923
-0.135642
-0.218064
-0.22767
-0.411387
-0.453454
-0.926899
-0.063651
-0.089765
-0.0906559
-0.132845
-0.135469
-0.217628
-0.227418
-0.409981
-0.454953
-0.918208
-0.063818
-0.0898697
-0.0906835
-0.13273
-0.135254
-0.217096
-0.227056
-0.40832
-0.456135
-0.910507
-0.063982
-0.0899602
-0.0906946
-0.132578
-0.134995
-0.216472
-0.226583
-0.406411
-0.457016
-0.903779
-0.0641434
-0.0900372
-0.0906904
-0.132391
-0.134696
-0.215757
-0.226007
-0.404256
-0.457548
-0.89785
-0.0643016
-0.0900998
-0.0906692
-0.132166
-0.134356
-0.21495
-0.225324
-0.401859
-0.457951
-0.894182
-0.060843
-0.0864672
-0.089031
-0.130956
-0.13653
-0.217147
-0.229867
-0.411162
-0.433855
-1.00779
-0.06105
-0.0867863
-0.0892001
-0.131269
-0.136541
-0.217607
-0.229691
-0.412407
-0.434738
-1.00216
-0.0612622
-0.0871049
-0.0894023
-0.131615
-0.136664
-0.218188
-0.229877
-0.41407
-0.436761
-0.990772
-0.0614703
-0.0874079
-0.0895911
-0.131927
-0.136765
-0.218687
-0.230047
-0.415444
-0.438849
-0.982425
-0.061672
-0.0876918
-0.0897544
-0.132192
-0.136803
-0.219054
-0.230074
-0.416365
-0.440528
-0.977156
-0.0618682
-0.0879582
-0.0898956
-0.132413
-0.136788
-0.219305
-0.22998
-0.416907
-0.441825
-0.973425
-0.0620599
-0.0882082
-0.090018
-0.132595
-0.13673
-0.219454
-0.229792
-0.417126
-0.442827
-0.970693
-0.0622471
-0.0884419
-0.0901222
-0.132739
-0.136629
-0.219501
-0.229513
-0.417028
-0.443545
-0.968965
-0.0624306
-0.0886601
-0.0902097
-0.132845
-0.136489
-0.219451
-0.229153
-0.416619
-0.443961
-0.968242
-0.06261
-0.0888617
-0.0902798
-0.132913
-0.136312
-0.219302
-0.228721
-0.415904
-0.44427
-0.969825
-0.058503
-0.0824384
-0.0865933
-0.126319
-0.135081
-0.209132
-0.229841
-0.385312
-0.424462
-0.940342
-0.0587613
-0.0829027
-0.0868907
-0.126889
-0.135297
-0.210191
-0.229853
-0.388987
-0.424981
-0.945133
-0.0590206
-0.0833721
-0.0872137
-0.127496
-0.135626
-0.211361
-0.230238
-0.39292
-0.426801
-0.943398
-0.0592734
-0.0838248
-0.0875217
-0.128073
-0.135926
-0.212465
-0.230583
-0.396593
-0.428676
-0.944811
-0.0595182
-0.0842568
-0.0878035
-0.128606
-0.13616
-0.213454
-0.230775
-0.39985
-0.430174
-0.949391
-0.0597556
-0.0846703
-0.0880624
-0.129098
-0.13634
-0.214337
-0.230849
-0.402727
-0.431339
-0.95548
-0.0599866
-0.0850667
-0.0883011
-0.129554
-0.136476
-0.215123
-0.230836
-0.405257
-0.432241
-0.962524
-0.0602113
-0.0854462
-0.0885204
-0.129973
-0.13657
-0.215811
-0.230742
-0.407434
-0.432877
-0.970594
-0.0604304
-0.0858094
-0.0887218
-0.130358
-0.136625
-0.216404
-0.230579
-0.409258
-0.433241
-0.979804
-0.0606438
-0.086155
-0.0889053
-0.130704
-0.136647
-0.216894
-0.230378
-0.410683
-0.433533
-0.991334
-0.0556454
-0.0772097
-0.0829275
-0.119684
-0.131611
-0.196781
-0.226783
-0.339798
-0.410565
-0.746922
-0.0559625
-0.0777958
-0.0833461
-0.12042
-0.132068
-0.198114
-0.22738
-0.344835
-0.412608
-0.763503
-0.0562774
-0.0783832
-0.0837945
-0.121201
-0.13262
-0.199601
-0.228213
-0.350281
-0.415376
-0.773925
-0.0565842
-0.0789544
-0.0842241
-0.121958
-0.133131
-0.201048
-0.228945
-0.355587
-0.417998
-0.788064
-0.0568817
-0.0795059
-0.084626
-0.122676
-0.133572
-0.202409
-0.229496
-0.360598
-0.420209
-0.805386
-0.0571709
-0.0800396
-0.0850053
-0.123362
-0.133956
-0.203697
-0.229898
-0.365352
-0.42202
-0.824054
-0.0574523
-0.0805563
-0.0853649
-0.124019
-0.134292
-0.204925
-0.230175
-0.369879
-0.423438
-0.843637
-0.0577262
-0.0810562
-0.0857054
-0.124648
-0.13458
-0.206091
-0.230328
-0.374175
-0.42443
-0.864351
-0.057993
-0.0815396
-0.0860281
-0.12525
-0.134824
-0.207195
-0.230367
-0.378234
-0.424971
-0.88641
-0.0582529
-0.0820037
-0.0863337
-0.125821
-0.135023
-0.208238
-0.230294
-0.382039
-0.425112
-0.911012
-0.0523177
-0.0711217
-0.0784641
-0.112133
-0.126236
-0.183957
-0.216955
-0.289264
-0.368692
-0.436407
-0.0526823
-0.0717799
-0.0789622
-0.112936
-0.126878
-0.185259
-0.218349
-0.294332
-0.374698
-0.46263
-0.0530444
-0.0724429
-0.0794881
-0.113792
-0.127611
-0.186727
-0.219889
-0.299882
-0.380585
-0.48416
-0.0533975
-0.0730908
-0.079993
-0.114623
-0.128296
-0.188158
-0.2213
-0.305377
-0.386233
-0.510401
-0.0537413
-0.0737213
-0.0804714
-0.115419
-0.128914
-0.189519
-0.222531
-0.310694
-0.39149
-0.539704
-0.0540767
-0.0743367
-0.0809294
-0.11619
-0.129482
-0.190833
-0.22361
-0.315879
-0.396245
-0.570053
-0.0544044
-0.074938
-0.0813694
-0.116938
-0.130008
-0.19211
-0.224553
-0.320956
-0.400435
-0.601296
-0.0547243
-0.0755255
-0.0817916
-0.117665
-0.130491
-0.19335
-0.225357
-0.325915
-0.404026
-0.63381
-0.0550368
-0.0760995
-0.0821966
-0.118371
-0.130932
-0.194552
-0.226024
-0.330747
-0.406987
-0.667856
-0.055342
-0.076658
-0.082582
-0.119051
-0.131327
-0.195711
-0.226547
-0.335402
-0.409249
-0.704643
-0.0483957
-0.0642792
-0.0731369
-0.10388
-0.119437
-0.171877
-0.200024
-0.243046
-0.267671
-0.0561754
-0.0492724
-0.0656786
-0.0745661
-0.105986
-0.121626
-0.175011
-0.204127
-0.248762
-0.281122
-0.0763235
-0.0496247
-0.0663152
-0.0749676
-0.106623
-0.121955
-0.175691
-0.205428
-0.252992
-0.295362
-0.112402
-0.0499141
-0.0668519
-0.075308
-0.10716
-0.122309
-0.176429
-0.206802
-0.257596
-0.30741
-0.14914
-0.0502578
-0.0674658
-0.075776
-0.107884
-0.122944
-0.177565
-0.208581
-0.262444
-0.318173
-0.18436
-0.0506201
-0.0681066
-0.0762763
-0.108661
-0.123622
-0.178768
-0.210348
-0.267202
-0.32841
-0.220528
-0.0509737
-0.0687336
-0.0767533
-0.109406
-0.124237
-0.179895
-0.211938
-0.27182
-0.338113
-0.258624
-0.0513164
-0.0693432
-0.0772063
-0.11012
-0.124798
-0.180963
-0.21338
-0.276342
-0.347088
-0.298448
-0.0516517
-0.0699407
-0.0776442
-0.110815
-0.125327
-0.182001
-0.214705
-0.280781
-0.355222
-0.339931
-0.0519803
-0.070525
-0.0780646
-0.111487
-0.125816
-0.182997
-0.215887
-0.285027
-0.362325
-0.384369
0.0876602
0.0821822
0.09297
0.0811201
0.103296
0.0848511
0.136286
0.107033
0.274651
0.162875
0.0876574
0.0821832
0.0929536
0.0811393
0.103254
0.0849202
0.136115
0.107223
0.273188
0.156156
0.0876544
0.0821846
0.0929364
0.0811601
0.10321
0.0849964
0.135939
0.107452
0.271624
0.150168
0.0876514
0.0821856
0.0929193
0.08118
0.103166
0.0850693
0.135763
0.10766
0.270035
0.144044
0.0876484
0.0821863
0.092902
0.0811992
0.103122
0.0851386
0.135582
0.107842
0.26838
0.137668
0.0876455
0.0821868
0.0928845
0.0812179
0.103076
0.0852045
0.135395
0.107997
0.266633
0.131145
0.0876425
0.0821869
0.092867
0.0812359
0.10303
0.0852667
0.135203
0.108127
0.264817
0.124508
0.0876395
0.0821866
0.0928502
0.0812536
0.102985
0.0853323
0.135018
0.108276
0.263071
0.117771
0.0876364
0.0821869
0.0928325
0.0812745
0.102941
0.0854143
0.134844
0.108507
0.26134
0.110949
0.0876324
0.0821902
0.0928059
0.0812975
0.102875
0.085466
0.134583
0.108477
0.258364
0.103799
0.0876813
0.0821841
0.0931161
0.0809744
0.103702
0.0843157
0.138026
0.105746
0.287952
0.22451
0.0876794
0.0821845
0.0931032
0.0809887
0.103667
0.0843695
0.137876
0.105894
0.2869
0.218918
0.0876773
0.0821853
0.0930893
0.0810049
0.103629
0.0844313
0.137717
0.106086
0.285766
0.213666
0.0876752
0.0821857
0.0930752
0.0810205
0.10359
0.0844907
0.137554
0.10626
0.284576
0.208243
0.0876731
0.0821858
0.093061
0.0810355
0.10355
0.0845468
0.137384
0.10641
0.283308
0.202559
0.087671
0.0821856
0.0930464
0.0810501
0.103509
0.0846006
0.137207
0.106542
0.281961
0.196656
0.0876688
0.0821852
0.0930316
0.0810642
0.103467
0.0846523
0.137023
0.106656
0.280534
0.19056
0.0876667
0.0821844
0.0930166
0.0810777
0.103423
0.084701
0.13683
0.106748
0.279007
0.184318
0.0876646
0.0821832
0.0930013
0.0810905
0.103378
0.0847458
0.136626
0.106812
0.277345
0.177949
0.0876624
0.0821821
0.0929854
0.0811042
0.103333
0.0847925
0.136427
0.106877
0.2757
0.170938
0.0876939
0.0821876
0.0932149
0.0808802
0.103992
0.0839568
0.139304
0.104927
0.296404
0.26782
0.0876928
0.0821879
0.0932072
0.0808889
0.103971
0.0839908
0.139213
0.105026
0.295854
0.264518
0.0876915
0.0821886
0.0931985
0.0808996
0.103947
0.084033
0.139112
0.105166
0.295251
0.261209
0.0876902
0.0821889
0.0931894
0.0809099
0.103921
0.0840734
0.139003
0.10529
0.294575
0.257665
0.087689
0.0821889
0.0931801
0.0809196
0.103894
0.0841111
0.138884
0.105391
0.293815
0.253841
0.0876877
0.0821886
0.0931704
0.0809289
0.103865
0.0841468
0.138756
0.105474
0.29297
0.249752
0.0876865
0.082188
0.0931603
0.0809379
0.103835
0.0841806
0.138619
0.105539
0.292042
0.24541
0.0876853
0.082187
0.0931499
0.0809463
0.103802
0.0842118
0.13847
0.105584
0.291015
0.240846
0.0876841
0.0821857
0.0931391
0.0809543
0.103768
0.0842407
0.138311
0.105608
0.289875
0.236055
0.0876828
0.0821846
0.0931277
0.0809634
0.103733
0.0842736
0.138152
0.105645
0.288742
0.230699
0.0876982
0.0821892
0.093252
0.0808455
0.104104
0.0838216
0.139799
0.104631
0.299402
0.284413
0.0876979
0.0821899
0.0932505
0.0808485
0.104101
0.0838339
0.139794
0.104692
0.299417
0.284075
0.0876975
0.0821907
0.0932483
0.0808528
0.104097
0.0838518
0.13978
0.104775
0.299387
0.283469
0.087697
0.0821913
0.0932457
0.0808569
0.10409
0.0838681
0.139756
0.104841
0.299272
0.282585
0.0876966
0.0821915
0.0932428
0.0808604
0.104082
0.0838823
0.13972
0.104886
0.29907
0.281415
0.0876962
0.0821913
0.0932393
0.0808636
0.104071
0.0838949
0.139673
0.104913
0.298784
0.279957
0.0876958
0.0821909
0.0932355
0.0808665
0.104059
0.0839057
0.139615
0.104923
0.298414
0.278214
0.0876954
0.08219
0.0932313
0.0808689
0.104044
0.0839142
0.139545
0.104912
0.297949
0.276202
0.0876951
0.0821889
0.0932266
0.0808709
0.104028
0.0839213
0.139464
0.104883
0.297388
0.273914
0.0876945
0.082188
0.0932211
0.0808746
0.10401
0.0839345
0.139379
0.10488
0.296821
0.271176
0.0876945
0.082188
0.0932211
0.0808745
0.10401
0.0839345
0.139379
0.10488
0.296821
0.271176
0.0876951
0.0821889
0.0932266
0.0808709
0.104028
0.0839213
0.139464
0.104883
0.297388
0.273914
0.0876954
0.08219
0.0932313
0.0808688
0.104044
0.0839143
0.139545
0.104912
0.297949
0.276202
0.0876958
0.0821909
0.0932355
0.0808665
0.104059
0.0839057
0.139615
0.104923
0.298414
0.278214
0.0876962
0.0821913
0.0932393
0.0808636
0.104071
0.0838949
0.139673
0.104913
0.298784
0.279957
0.0876966
0.0821915
0.0932428
0.0808604
0.104082
0.0838823
0.13972
0.104886
0.29907
0.281415
0.087697
0.0821913
0.0932457
0.0808568
0.10409
0.0838681
0.139756
0.104841
0.299272
0.282585
0.0876975
0.0821907
0.0932483
0.0808528
0.104097
0.0838518
0.13978
0.104775
0.299387
0.283469
0.0876979
0.0821899
0.0932505
0.0808485
0.104101
0.0838339
0.139794
0.104692
0.299417
0.284075
0.0876982
0.0821892
0.093252
0.0808455
0.104104
0.0838216
0.139799
0.104631
0.299402
0.284413
0.0876827
0.0821846
0.0931277
0.0809634
0.103733
0.0842736
0.138152
0.105645
0.288742
0.230699
0.0876841
0.0821857
0.0931391
0.0809542
0.103768
0.0842407
0.138311
0.105607
0.289875
0.236055
0.0876853
0.0821871
0.0931499
0.0809463
0.103802
0.0842118
0.138471
0.105584
0.291015
0.240846
0.0876865
0.082188
0.0931603
0.0809379
0.103835
0.0841806
0.138619
0.105539
0.292042
0.24541
0.0876877
0.0821887
0.0931704
0.0809289
0.103865
0.0841468
0.138756
0.105474
0.29297
0.249752
0.087689
0.082189
0.0931801
0.0809196
0.103894
0.0841111
0.138884
0.105391
0.293815
0.253841
0.0876902
0.082189
0.0931894
0.0809099
0.103921
0.0840734
0.139003
0.10529
0.294575
0.257665
0.0876915
0.0821886
0.0931985
0.0808996
0.103947
0.084033
0.139112
0.105166
0.295251
0.261209
0.0876928
0.0821879
0.0932072
0.0808889
0.103971
0.0839908
0.139213
0.105026
0.295854
0.264518
0.0876938
0.0821876
0.0932149
0.0808802
0.103992
0.0839568
0.139304
0.104927
0.296404
0.26782
0.0876624
0.0821822
0.0929854
0.0811041
0.103333
0.0847926
0.136427
0.106877
0.2757
0.170939
0.0876646
0.0821832
0.0930013
0.0810905
0.103378
0.0847458
0.136626
0.106812
0.277345
0.177949
0.0876667
0.0821844
0.0930166
0.0810777
0.103423
0.084701
0.13683
0.106748
0.279007
0.184318
0.0876688
0.0821852
0.0930316
0.0810641
0.103467
0.0846523
0.137023
0.106656
0.280534
0.19056
0.0876709
0.0821857
0.0930464
0.08105
0.103509
0.0846006
0.137207
0.106542
0.281961
0.196656
0.087673
0.0821859
0.093061
0.0810355
0.10355
0.0845468
0.137384
0.10641
0.283308
0.202559
0.0876751
0.0821858
0.0930753
0.0810205
0.10359
0.0844907
0.137554
0.10626
0.284576
0.208243
0.0876773
0.0821853
0.0930893
0.0810049
0.103629
0.0844313
0.137717
0.106086
0.285767
0.213666
0.0876794
0.0821845
0.0931032
0.0809887
0.103667
0.0843695
0.137876
0.105894
0.2869
0.218918
0.0876813
0.0821841
0.0931162
0.0809743
0.103702
0.0843157
0.138026
0.105746
0.287952
0.22451
0.0876324
0.0821902
0.0928059
0.0812975
0.102875
0.085466
0.134583
0.108477
0.258364
0.103799
0.0876363
0.0821869
0.0928325
0.0812745
0.102941
0.0854143
0.134844
0.108507
0.26134
0.110949
0.0876395
0.0821866
0.0928502
0.0812536
0.102985
0.0853323
0.135018
0.108276
0.263071
0.117771
0.0876425
0.0821869
0.092867
0.0812358
0.10303
0.0852667
0.135203
0.108127
0.264817
0.124508
0.0876454
0.0821868
0.0928845
0.0812179
0.103076
0.0852045
0.135395
0.107997
0.266633
0.131145
0.0876484
0.0821864
0.092902
0.0811992
0.103122
0.0851386
0.135582
0.107842
0.26838
0.137668
0.0876514
0.0821857
0.0929193
0.08118
0.103166
0.0850693
0.135763
0.10766
0.270035
0.144044
0.0876544
0.0821846
0.0929364
0.08116
0.10321
0.0849964
0.135939
0.107452
0.271624
0.150168
0.0876574
0.0821833
0.0929536
0.0811393
0.103254
0.0849202
0.136115
0.107223
0.273188
0.156157
0.0876602
0.0821822
0.09297
0.08112
0.103296
0.0848511
0.136286
0.107033
0.274651
0.162875
-0.0519803
-0.070525
-0.0780646
-0.111487
-0.125816
-0.182997
-0.215887
-0.285027
-0.362325
-0.384369
-0.0516517
-0.0699407
-0.0776442
-0.110815
-0.125327
-0.182001
-0.214705
-0.280781
-0.355222
-0.339931
-0.0513164
-0.0693432
-0.0772063
-0.11012
-0.124799
-0.180963
-0.21338
-0.276342
-0.347088
-0.298448
-0.0509738
-0.0687336
-0.0767534
-0.109406
-0.124237
-0.179895
-0.211938
-0.27182
-0.338113
-0.258624
-0.0506202
-0.0681066
-0.0762764
-0.108661
-0.123622
-0.178768
-0.210348
-0.267202
-0.32841
-0.220528
-0.0502578
-0.0674658
-0.075776
-0.107884
-0.122944
-0.177565
-0.208581
-0.262444
-0.318173
-0.18436
-0.0499142
-0.0668519
-0.075308
-0.10716
-0.122309
-0.176429
-0.206802
-0.257596
-0.30741
-0.14914
-0.0496248
-0.0663152
-0.0749676
-0.106623
-0.121955
-0.175691
-0.205428
-0.252992
-0.295362
-0.112402
-0.0492725
-0.0656786
-0.0745661
-0.105986
-0.121626
-0.175011
-0.204127
-0.248762
-0.281122
-0.0763234
-0.0483957
-0.0642792
-0.0731369
-0.10388
-0.119437
-0.171877
-0.200024
-0.243046
-0.267671
-0.0561754
-0.0553421
-0.076658
-0.082582
-0.119051
-0.131327
-0.195711
-0.226547
-0.335402
-0.409249
-0.704643
-0.0550369
-0.0760995
-0.0821966
-0.118371
-0.130932
-0.194552
-0.226024
-0.330747
-0.406987
-0.667856
-0.0547243
-0.0755255
-0.0817916
-0.117665
-0.130491
-0.19335
-0.225357
-0.325915
-0.404026
-0.63381
-0.0544044
-0.0749381
-0.0813695
-0.116938
-0.130008
-0.19211
-0.224553
-0.320956
-0.400435
-0.601296
-0.0540768
-0.0743367
-0.0809294
-0.11619
-0.129482
-0.190833
-0.22361
-0.315879
-0.396245
-0.570053
-0.0537413
-0.0737213
-0.0804715
-0.11542
-0.128914
-0.189519
-0.222531
-0.310694
-0.39149
-0.539704
-0.0533976
-0.0730908
-0.0799931
-0.114623
-0.128296
-0.188158
-0.2213
-0.305377
-0.386233
-0.510401
-0.0530445
-0.0724429
-0.0794882
-0.113792
-0.127611
-0.186727
-0.219889
-0.299882
-0.380585
-0.48416
-0.0526824
-0.0717799
-0.0789622
-0.112936
-0.126878
-0.185259
-0.218349
-0.294332
-0.374698
-0.46263
-0.0523178
-0.0711217
-0.0784641
-0.112133
-0.126236
-0.183957
-0.216955
-0.289265
-0.368692
-0.436407
-0.0582529
-0.0820038
-0.0863337
-0.125821
-0.135023
-0.208238
-0.230295
-0.382039
-0.425112
-0.911012
-0.057993
-0.0815397
-0.0860282
-0.12525
-0.134824
-0.207195
-0.230367
-0.378234
-0.424971
-0.88641
-0.0577262
-0.0810562
-0.0857054
-0.124648
-0.13458
-0.206091
-0.230328
-0.374175
-0.42443
-0.864351
-0.0574524
-0.0805564
-0.085365
-0.124019
-0.134292
-0.204925
-0.230175
-0.369879
-0.423438
-0.843637
-0.0571709
-0.0800396
-0.0850053
-0.123362
-0.133956
-0.203698
-0.229898
-0.365352
-0.42202
-0.824054
-0.0568817
-0.079506
-0.0846261
-0.122676
-0.133572
-0.202409
-0.229496
-0.360598
-0.420209
-0.805386
-0.0565842
-0.0789544
-0.0842241
-0.121958
-0.133131
-0.201048
-0.228945
-0.355587
-0.417998
-0.788064
-0.0562774
-0.0783832
-0.0837945
-0.121201
-0.13262
-0.199601
-0.228213
-0.350281
-0.415376
-0.773925
-0.0559625
-0.0777958
-0.0833462
-0.12042
-0.132068
-0.198114
-0.22738
-0.344835
-0.412608
-0.763503
-0.0556454
-0.0772097
-0.0829276
-0.119684
-0.131611
-0.196781
-0.226783
-0.339798
-0.410565
-0.746922
-0.0606438
-0.086155
-0.0889053
-0.130704
-0.136647
-0.216894
-0.230378
-0.410683
-0.433533
-0.991334
-0.0604304
-0.0858094
-0.0887218
-0.130358
-0.136625
-0.216404
-0.23058
-0.409258
-0.433241
-0.979804
-0.0602113
-0.0854462
-0.0885204
-0.129973
-0.13657
-0.215812
-0.230742
-0.407434
-0.432877
-0.970594
-0.0599866
-0.0850667
-0.0883012
-0.129554
-0.136476
-0.215123
-0.230836
-0.405257
-0.432241
-0.962524
-0.0597557
-0.0846703
-0.0880624
-0.129098
-0.13634
-0.214337
-0.230849
-0.402727
-0.431339
-0.95548
-0.0595182
-0.0842568
-0.0878035
-0.128606
-0.13616
-0.213454
-0.230775
-0.39985
-0.430174
-0.949391
-0.0592734
-0.0838248
-0.0875217
-0.128073
-0.135926
-0.212465
-0.230583
-0.396593
-0.428676
-0.944811
-0.0590206
-0.0833721
-0.0872137
-0.127496
-0.135626
-0.211361
-0.230238
-0.39292
-0.426801
-0.943398
-0.0587613
-0.0829027
-0.0868908
-0.126889
-0.135297
-0.210191
-0.229853
-0.388987
-0.424981
-0.945133
-0.058503
-0.0824384
-0.0865934
-0.126319
-0.135081
-0.209132
-0.229841
-0.385312
-0.424462
-0.940342
-0.06261
-0.0888617
-0.0902798
-0.132913
-0.136312
-0.219302
-0.22872
-0.415904
-0.44427
-0.969825
-0.0624306
-0.08866
-0.0902097
-0.132845
-0.136489
-0.219451
-0.229153
-0.416619
-0.443961
-0.968242
-0.0622471
-0.0884419
-0.0901222
-0.132739
-0.136629
-0.219501
-0.229513
-0.417028
-0.443545
-0.968965
-0.0620598
-0.0882082
-0.090018
-0.132595
-0.13673
-0.219454
-0.229792
-0.417126
-0.442827
-0.970693
-0.0618682
-0.0879582
-0.0898956
-0.132413
-0.136788
-0.219305
-0.22998
-0.416907
-0.441825
-0.973425
-0.061672
-0.0876918
-0.0897544
-0.132192
-0.136803
-0.219054
-0.230074
-0.416365
-0.440528
-0.977156
-0.0614703
-0.0874078
-0.0895911
-0.131927
-0.136765
-0.218687
-0.230047
-0.415444
-0.438849
-0.982425
-0.0612622
-0.0871049
-0.0894023
-0.131615
-0.136664
-0.218188
-0.229877
-0.414071
-0.436761
-0.990772
-0.0610499
-0.0867863
-0.0892001
-0.131269
-0.136541
-0.217607
-0.229691
-0.412407
-0.434738
-1.00216
-0.060843
-0.0864672
-0.089031
-0.130956
-0.13653
-0.217147
-0.229867
-0.411162
-0.433855
-1.00779
-0.0643016
-0.0900997
-0.0906692
-0.132166
-0.134356
-0.21495
-0.225324
-0.401859
-0.457951
-0.894182
-0.0641434
-0.0900372
-0.0906904
-0.132391
-0.134696
-0.215757
-0.226007
-0.404256
-0.457548
-0.89785
-0.0639819
-0.0899602
-0.0906945
-0.132578
-0.134995
-0.216472
-0.226583
-0.406411
-0.457016
-0.903779
-0.0638179
-0.0898697
-0.0906835
-0.13273
-0.135254
-0.217096
-0.227056
-0.40832
-0.456135
-0.910507
-0.063651
-0.089765
-0.0906559
-0.132845
-0.135469
-0.217628
-0.227418
-0.409981
-0.454953
-0.918208
-0.0634809
-0.0896459
-0.0906114
-0.132923
-0.135642
-0.218064
-0.22767
-0.411387
-0.453454
-0.926899
-0.0633068
-0.0895114
-0.0905467
-0.13296
-0.135761
-0.218393
-0.227782
-0.41249
-0.451517
-0.937004
-0.0631277
-0.0893604
-0.0904574
-0.132951
-0.135814
-0.218601
-0.227717
-0.41323
-0.449039
-0.949999
-0.0629459
-0.0891952
-0.0903553
-0.132908
-0.13584
-0.218726
-0.227598
-0.413737
-0.446438
-0.966224
-0.062773
-0.0890279
-0.0902905
-0.132887
-0.13599
-0.21894
-0.227897
-0.414573
-0.444929
-0.977873
-0.0658037
-0.0900962
-0.0903259
-0.128876
-0.131008
-0.205232
-0.218881
-0.378491
-0.471914
-0.820684
-0.0656625
-0.0901452
-0.0904159
-0.129335
-0.131501
-0.206528
-0.219998
-0.381497
-0.471796
-0.824323
-0.0655178
-0.0901822
-0.0904881
-0.129758
-0.131944
-0.207729
-0.220963
-0.384294
-0.471495
-0.830057
-0.065371
-0.0902088
-0.0905463
-0.130152
-0.132345
-0.208853
-0.221798
-0.386908
-0.470778
-0.836216
-0.0652218
-0.0902243
-0.0905895
-0.130515
-0.132702
-0.209897
-0.222503
-0.389353
-0.469755
-0.843266
-0.0650701
-0.0902284
-0.0906173
-0.130846
-0.133015
-0.210861
-0.22308
-0.391628
-0.46842
-0.851261
-0.0649151
-0.0902205
-0.090627
-0.131142
-0.133275
-0.211734
-0.223503
-0.39369
-0.466654
-0.860437
-0.0647554
-0.0901992
-0.090613
-0.131397
-0.133467
-0.212497
-0.223719
-0.395467
-0.464319
-0.872123
-0.0645934
-0.090166
-0.0905845
-0.13162
-0.133618
-0.213183
-0.223821
-0.397081
-0.461677
-0.887152
-0.0644417
-0.090131
-0.0905933
-0.131863
-0.133886
-0.213967
-0.224286
-0.399142
-0.45965
-0.899082
-0.0671034
-0.0892382
-0.0894837
-0.123963
-0.126566
-0.192378
-0.209165
-0.357669
-0.485984
-0.795455
-0.0669941
-0.0893816
-0.0896349
-0.124578
-0.12719
-0.193966
-0.210658
-0.360275
-0.486054
-0.796676
-0.0668636
-0.0894846
-0.0897426
-0.125132
-0.127722
-0.195421
-0.211887
-0.362422
-0.485014
-0.795915
-0.0667353
-0.0895841
-0.089845
-0.125666
-0.12823
-0.196825
-0.213056
-0.364622
-0.484306
-0.797137
-0.0666062
-0.0896779
-0.089936
-0.126178
-0.128698
-0.198162
-0.214109
-0.36673
-0.48346
-0.799492
-0.0664745
-0.0897636
-0.0900131
-0.126665
-0.129124
-0.199428
-0.215037
-0.368723
-0.482346
-0.802512
-0.0663396
-0.0898406
-0.0900741
-0.127124
-0.129501
-0.200615
-0.215821
-0.370569
-0.480891
-0.806308
-0.0662001
-0.0899077
-0.0901127
-0.127548
-0.129807
-0.201699
-0.216393
-0.372171
-0.478983
-0.812046
-0.0660575
-0.0899654
-0.0901339
-0.127944
-0.130061
-0.202705
-0.216803
-0.373631
-0.476763
-0.820979
-0.0659248
-0.0900237
-0.0901894
-0.128364
-0.130417
-0.203826
-0.217527
-0.375642
-0.474678
-0.828014
-0.0175976
0.0270397
-0.0286703
0.041249
-0.048613
0.059457
-0.0814307
0.0783355
-0.144335
0.0351197
-0.0175824
0.0270142
-0.0286472
0.0412034
-0.0485641
0.0593651
-0.0813517
0.0781473
-0.144496
0.035501
-0.0175664
0.0269871
-0.0286243
0.0411538
-0.0485175
0.0592663
-0.0812823
0.0779465
-0.144711
0.0358006
-0.0175504
0.0269599
-0.0286019
0.0411044
-0.0484721
0.0591676
-0.0812151
0.077744
-0.144938
0.0360935
-0.0175344
0.0269327
-0.0285797
0.0410552
-0.0484268
0.0590693
-0.0811474
0.0775395
-0.145167
0.036397
-0.0175183
0.0269054
-0.0285576
0.0410061
-0.0483819
0.0589712
-0.0810801
0.0773331
-0.145408
0.0367181
-0.0175021
0.0268781
-0.0285358
0.0409574
-0.0483371
0.0588738
-0.081013
0.0771255
-0.145644
0.0370222
-0.0174854
0.0268503
-0.0285128
0.0409072
-0.0482898
0.0587724
-0.0809408
0.0769025
-0.145829
0.0371604
-0.0174668
0.0268195
-0.0284866
0.04085
-0.0482368
0.0586564
-0.0808613
0.0766409
-0.146052
0.0372477
-0.0174491
0.0267866
-0.0284657
0.0407943
-0.0482001
0.0585516
-0.0808188
0.0764429
-0.146791
0.0385661
-0.0177207
0.0272587
-0.0288329
0.0416345
-0.0489618
0.060219
-0.0819631
0.0797424
-0.142612
0.0328462
-0.0177098
0.0272394
-0.0288174
0.0416002
-0.0489279
0.0601513
-0.0819088
0.0796229
-0.142745
0.0330924
-0.017698
0.0272184
-0.0288012
0.041562
-0.0488939
0.0600764
-0.0818587
0.0794887
-0.142906
0.0332968
-0.0176861
0.027197
-0.0287854
0.0415236
-0.0488606
0.0600011
-0.08181
0.0793535