/*--------------------------------*- C++ -*----------------------------------*\
  =========                 |
  \\      /  F ield         | OpenFOAM: The Open Source CFD Toolbox
   \\    /   O peration     | Website:  https://openfoam.org
    \\  /    A nd           | Version:  10
     \\/     M anipulation  |
\*---------------------------------------------------------------------------*/
FoamFile
{
    format      ascii;
    class       surfaceScalarField;
    location    "20";
    object      phi;
}
// * * * * * * * * * * * * * * * * * * * * * * * * * * * * * * * * * * * * * //

dimensions      [0 3 -1 0 0 0 0];

internalField   nonuniform List<scalar> 
6840
(
-0.000724306
0.000456046
-0.000506203
-0.000687254
0.000338309
-0.00037536
-0.000629814
0.000522358
-0.000579797
-0.000596619
0.000304191
-0.000337387
-0.000534789
0.000563878
-0.000625707
-0.000501031
0.00031237
-0.000346129
-0.000409123
0.000840517
-0.000932424
-0.000369207
0.000377751
-0.000417666
-0.000253876
0.000943794
-0.00105913
0.0022833
-0.00253717
-0.000723291
0.000405742
-0.000686083
0.000301101
-0.000628475
0.00046475
-0.000595103
0.000270818
-0.000533044
0.000501818
-0.000499007
0.000278334
-0.000406683
0.000748192
-0.000366174
0.000337242
-0.000253736
0.000831356
0.00202956
-0.000722385
0.000355308
-0.000685041
0.000263757
-0.00062728
0.000406989
-0.000593756
0.000237294
-0.000531486
0.000439549
-0.000497209
0.000244057
-0.000404507
0.00065549
-0.000363479
0.000296215
-0.000253644
0.000721521
0.00177592
-0.000721591
0.000304759
-0.000684128
0.000226294
-0.000626233
0.000349094
-0.000592576
0.000203638
-0.000530122
0.000377094
-0.000495636
0.00020957
-0.000402602
0.000562456
-0.000361121
0.000254733
-0.000253597
0.000613997
0.00152232
-0.000720908
0.000254112
-0.000683344
0.00018873
-0.000625334
0.000291084
-0.000591564
0.000169868
-0.000528953
0.000314483
-0.000494287
0.000174905
-0.000400971
0.000469139
-0.000359101
0.000212864
-0.000253585
0.000508481
0.00126873
-0.000720339
0.000203384
-0.000682691
0.000151081
-0.000624586
0.000232979
-0.000590722
0.000136004
-0.000527979
0.00025174
-0.000493167
0.000140092
-0.000399615
0.000375588
-0.000357423
0.000170672
-0.000253606
0.000404664
0.00101513
-0.000719884
0.000152592
-0.000682169
0.000113367
-0.000623988
0.000174798
-0.00059005
0.000102065
-0.000527203
0.000188893
-0.000492275
0.000105164
-0.000398536
0.000281849
-0.000356088
0.000128224
-0.000253654
0.000302229
0.000761474
-0.000719543
0.000101753
-0.000681779
7.56029e-05
-0.000623543
0.000116562
-0.000589549
6.80723e-05
-0.000526626
0.00012597
-0.000491613
7.01506e-05
-0.000397736
0.000187973
-0.000355097
8.55848e-05
-0.000253725
0.000200857
0.000507749
-0.000719316
5.08836e-05
-0.000681521
3.7808e-05
-0.000623249
5.82891e-05
-0.000589221
3.40441e-05
-0.000526247
6.29966e-05
-0.000491182
3.50853e-05
-0.000397216
9.40069e-05
-0.000354452
4.28205e-05
-0.000253819
0.000100224
0.00025393
-0.000719205
7.3579e-10
-0.000681397
-3.80364e-10
-0.000623108
1.37367e-10
-0.000589064
7.83016e-10
-0.000526068
1.0956e-10
-0.000490983
3.12871e-10
-0.000396975
-8.69592e-10
-0.000354154
-3.74608e-10
-0.00025393
2.08377e-10
9.60228e-11
-0.000710888
0.000932798
-0.000979044
-0.000677351
0.000688023
-0.000721561
-0.000624486
0.00106794
-0.00112081
-0.000594967
0.000615448
-0.000644967
-0.000538835
0.00114816
-0.00120429
-0.000510026
0.000624776
-0.000653586
-0.000427715
0.00170459
-0.0017869
-0.00039767
0.000730732
-0.000760777
-0.000243817
0.00224164
-0.00239549
0.0047149
-0.00495871
-0.000709048
0.000886289
-0.000675229
0.000654204
-0.000622056
0.00101477
-0.000592213
0.000585606
-0.00053565
0.00109159
-0.000506338
0.000595464
-0.000423239
0.00162149
-0.000392102
0.000699596
-0.000243193
0.00209273
0.0044717
-0.000707288
0.000839527
-0.000673207
0.000620124
-0.000619731
0.000961291
-0.00058959
0.000555464
-0.000532604
0.00103461
-0.000502825
0.000565685
-0.000418961
0.00153763
-0.000386792
0.000667427
-0.000242681
0.00194862
0.00422902
-0.000705613
0.000792524
-0.000671284
0.000585795
-0.00061752
0.000907527
-0.000587095
0.000525039
-0.000529708
0.00097722
-0.000499484
0.000535461
-0.000414892
0.00145304
-0.000381742
0.000634277
-0.000242268
0.00180915
0.00398675
-0.000704025
0.000745294
-0.00066946
0.000551231
-0.000615425
0.000853491
-0.00058473
0.000494345
-0.000526964
0.000919453
-0.000496318
0.000504815
-0.000411038
0.00136775
-0.000376956
0.000600195
-0.000241947
0.00167414
0.00374481
-0.000702525
0.000697849
-0.000667739
0.000516445
-0.000613447
0.000799199
-0.000582499
0.000463397
-0.000524375
0.000861328
-0.000493332
0.000473773
-0.000407402
0.00128182
-0.000372441
0.000565234
-0.00024171
0.00154341
0.0035031
-0.000701116
0.000650204
-0.000666122
0.000481451
-0.00061159
0.000744667
-0.000580404
0.000432211
-0.000521944
0.000802868
-0.000490529
0.000442358
-0.000403989
0.00119528
-0.000368201
0.000529446
-0.000241551
0.00141676
0.00326155
-0.000699798
0.000602372
-0.000664611
0.000446263
-0.000609855
0.000689911
-0.000578447
0.000400804
-0.000519674
0.000744095
-0.000487912
0.000410596
-0.000400804
0.00110818
-0.000364243
0.000492885
-0.000241462
0.00129398
0.00302008
-0.000698574
0.000554366
-0.000663207
0.000410896
-0.000608243
0.000634947
-0.000576631
0.000369192
-0.000517568
0.000685032
-0.000485485
0.000378512
-0.000397849
0.00102054
-0.000360571
0.000455608
-0.000241438
0.00117484
0.00277864
-0.000697446
-0.00066191
-0.00060676
-0.000574955
-0.00051563
-0.000483247
-0.000395131
-0.00035719
-0.000241473
-0.000673968
0.00135249
-0.00139255
-0.000645755
0.000988874
-0.00101709
-0.000600208
0.00154662
-0.00159217
-0.000576254
0.000876589
-0.000900544
-0.000529135
0.00165127
-0.00169839
-0.000507463
0.000873591
-0.000895263
-0.000440154
0.00243472
-0.00250203
-0.000422888
0.000967253
-0.000984519
-0.000227028
0.00392581
-0.00412167
0.00695844
-0.00718546
-0.000671841
0.00131213
-0.000643303
0.000960335
-0.000597386
0.00150071
-0.000573041
0.000852244
-0.000525389
0.00160362
-0.000503116
0.000851318
-0.000434826
0.00236643
-0.000416379
0.000948807
-0.000225779
0.00373521
0.00673266
-0.000669759
0.00127146
-0.000640912
0.000931488
-0.000594623
0.00145442
-0.000569909
0.00082753
-0.000521721
0.00155543
-0.000498875
0.000828471
-0.000429607
0.00229717
-0.000410004
0.000929204
-0.000224651
0.00354986
0.006508
-0.000667727
0.0012305
-0.000638579
0.000902339
-0.000591927
0.00140776
-0.000566852
0.000802456
-0.000518142
0.00150672
-0.000494734
0.000805063
-0.000424512
0.00222694
-0.000403762
0.000908454
-0.000223627
0.00336972
0.00628438
-0.000665748
0.00118925
-0.000636306
0.000872897
-0.000589301
0.00136076
-0.000563875
0.00077703
-0.000514656
0.0014575
-0.000490699
0.000781107
-0.000419544
0.00215579
-0.000397661
0.000886571
-0.000222701
0.00319476
0.00606168
-0.000663823
0.00114773
-0.000634095
0.000843169
-0.000586746
0.00131341
-0.000560978
0.000751262
-0.000511265
0.00140779
-0.000486773
0.000756615
-0.000414709
0.00208372
-0.000391707
0.00086357
-0.000221872
0.00302493
0.0058398
-0.000661953
0.00110594
-0.000631947
0.000813163
-0.000584266
0.00126573
-0.000558166
0.000725162
-0.000507972
0.00135759
-0.00048296
0.000731603
-0.000410011
0.00201078
-0.00038591
0.000839469
-0.000221139
0.00286016
0.00561866
-0.000660141
0.00106389
-0.000629866
0.000782888
-0.000581863
0.00121773
-0.000555441
0.00069874
-0.000504782
0.00130693
-0.000479263
0.000706085
-0.000405456
0.00193697
-0.000380275
0.000814287
-0.000220499
0.00270038
0.00539816
-0.000658388
0.00102158
-0.000627852
0.000752353
-0.000579538
0.00116941
-0.000552805
0.000672007
-0.000501696
0.00125582
-0.000475687
0.000680077
-0.000401049
0.00186233
-0.000374812
0.00078805
-0.000219953
0.00254552
0.00517821
-0.000656697
-0.000625906
-0.000577298
-0.000550257
-0.000498723
-0.000472232
-0.000396801
-0.000369528
-0.000219501
-0.000608632
0.00169923
-0.00173189
-0.000586232
0.00122964
-0.00125204
-0.000549676
0.00193878
-0.00197534
-0.000531671
0.0010761
-0.00109411
-0.000495575
0.00205017
-0.00208627
-0.000480941
0.0010477
-0.00106233
-0.000431612
0.00299504
-0.00304437
-0.000422869
0.00109239
-0.00110113
-0.000201096
0.00592417
-0.00614594
0.00893728
-0.00913837
-0.000606657
0.00166622
-0.000584134
0.00120712
-0.000547013
0.00190166
-0.000528912
0.001058
-0.000491927
0.00201319
-0.000477186
0.00103296
-0.000426274
0.00294413
-0.000417674
0.00108379
-0.000199235
0.00570573
0.00873804
-0.000604774
0.00163293
-0.000581971
0.00118431
-0.000544492
0.00186418
-0.000526031
0.00103954
-0.000488507
0.00197566
-0.000473209
0.00101766
-0.000421313
0.00289224
-0.000411948
0.00107443
-0.00019798
0.00549176
0.00854006
-0.000602913
0.00159938
-0.000579832
0.00116123
-0.000541999
0.00182635
-0.000523181
0.00102073
-0.000485123
0.00193761
-0.000469271
0.00100181
-0.000416397
0.00283936
-0.000406214
0.00106424
-0.000196786
0.00528234
0.00834327
-0.000601076
0.00156555
-0.00057772
0.00113788
-0.000539537
0.00178817
-0.000520366
0.00100156
-0.000481779
0.00189902
-0.000465376
0.000985405
-0.00041153
0.00278552
-0.000400502
0.00105321
-0.000195618
0.00507745
0.00814766
-0.000599263
0.00153146
-0.000575636
0.00111425
-0.000537107
0.00174964
-0.000517587
0.000982036
-0.000478477
0.00185991
-0.000461526
0.000968454
-0.000406717
0.00273071
-0.000394819
0.00104132
-0.000194492
0.00487713
0.00795316
-0.000597476
0.00149711
-0.000573581
0.00109035
-0.000534711
0.00171077
-0.000514846
0.000962171
-0.00047522
0.00182028
-0.000457726
0.00095096
-0.000401961
0.00267494
-0.000389166
0.00102852
-0.000193413
0.00468137
0.00775975
-0.000595717
0.00146251
-0.000571556
0.00106619
-0.00053235
0.00167156
-0.000512145
0.000941965
-0.000472009
0.00178015
-0.000453977
0.000932928
-0.000397267
0.00261823
-0.00038355
0.0010148
-0.000192382
0.0044902
0.00756737
-0.000593985
0.00142765
-0.000569563
0.00104177
-0.000530027
0.00163202
-0.000509485
0.000921424
-0.000468847
0.00173951
-0.000450283
0.000914364
-0.000392639
0.00256059
-0.000377979
0.00100014
-0.000191406
0.00430363
0.00737596
-0.000592285
-0.0005676
-0.000527746
-0.000506866
-0.000465744
-0.000446643
-0.000388088
-0.000372462
-0.0001905
-0.000100454
0.0182293
-0.0181553
-0.000172253
0.0184927
-0.0184209
-0.000244848
0.018614
-0.0185414
-0.000313378
0.0189443
-0.0188758
-0.000381711
0.0190988
-0.0190305
-0.000439964
0.019587
-0.0195287
-0.000495245
0.0197809
-0.0197257
-0.000506782
0.0205905
-0.020579
-0.000422921
0.0198596
-0.0199434
0.0135078
-0.0139308
-0.000100084
0.0183032
-0.000171743
0.0185643
-0.000244124
0.0186864
-0.000312194
0.0190124
-0.000379808
0.0191665
-0.00043673
0.0196439
-0.000489393
0.0198336
-0.000496492
0.0205976
-0.000406652
0.0197697
0.0131012
-9.97107e-05
0.0183771
-0.000171249
0.0186359
-0.000243396
0.0187585
-0.000311037
0.01908
-0.0003779
0.0192333
-0.000433541
0.0196995
-0.00048354
0.0198836
-0.000486243
0.0206003
-0.000389707
0.0196732
0.0127115
-9.93418e-05
0.018451
-0.000170758
0.0187073
-0.000242669
0.0188304
-0.000309879
0.0191472
-0.00037598
0.0192994
-0.000430314
0.0197539
-0.000477613
0.0199309
-0.000475934
0.0205986
-0.000373125
0.0195704
0.0123384
-9.89784e-05
0.0185248
-0.000170273
0.0187786
-0.000241945
0.0189021
-0.000308717
0.019214
-0.000374042
0.0193647
-0.000427027
0.0198068
-0.000471562
0.0199754
-0.000465483
0.0205925
-0.000356992
0.0194619
0.0119814
-9.86239e-05
0.0185986
-0.000169797
0.0188498
-0.000241227
0.0189735
-0.000307557
0.0192803
-0.000372092
0.0194293
-0.00042369
0.0198584
-0.000465401
0.0200171
-0.000454901
0.020582
-0.000341186
0.0193482
0.0116402
-9.8286e-05
0.0186724
-0.000169337
0.0189208
-0.000240526
0.0190447
-0.000306412
0.0193462
-0.000370148
0.019493
-0.000420331
0.0199086
-0.000459172
0.020056
-0.000444244
0.0205671
-0.000325742
0.0192297
0.0113144
-9.79845e-05
0.0187461
-0.000168918
0.0189917
-0.000239869
0.0191157
-0.000305317
0.0194116
-0.000368256
0.019556
-0.000417011
0.0199574
-0.000452958
0.0200919
-0.000433619
0.0205478
-0.000310761
0.0191068
0.0110037
-9.77697e-05
0.0188198
-0.000168597
0.0190626
-0.000239328
0.0191864
-0.00030437
0.0194767
-0.000366552
0.0196181
-0.00041393
0.0200048
-0.000447046
0.020125
-0.000423412
0.0205241
-0.000296661
0.0189801
0.010707
-9.77189e-05
0.0188933
-0.000168601
0.0191334
-0.00023903
0.0192568
-0.000303991
0.0195417
-0.000365352
0.0196795
-0.000412046
0.0200514
-0.000442514
0.0201555
-0.000415873
0.0204975
-0.000285396
0.0188496
0.0104216
-9.11311e-05
0.0176516
-0.0175955
-0.000145523
0.0179384
-0.017884
-0.000200819
0.0180547
-0.0179994
-0.000253185
0.0184259
-0.0183735
-0.000306259
0.0185849
-0.0185319
-0.000352269
0.0191703
-0.0191243
-0.00040251
0.0193746
-0.0193244
-0.000422662
0.0205742
-0.020554
-0.000391931
0.0204578
-0.0204885
0.016792
-0.0171839
-9.06046e-05
0.0177078
-0.000144825
0.0179926
-0.000199898
0.0181098
-0.000251769
0.0184777
-0.000304177
0.0186373
-0.000348941
0.019215
-0.000397076
0.0194228
-0.000413106
0.0205902
-0.000376923
0.0204216
0.0164151
-9.00742e-05
0.0177638
-0.000144141
0.0180467
-0.00019897
0.0181646
-0.000250379
0.0185291
-0.000302086
0.0186891
-0.000345657
0.0192586
-0.000391621
0.0194687
-0.000403688
0.0206023
-0.00036144
0.0203793
0.0160536
-8.95477e-05
0.0178199
-0.000143461
0.0181006
-0.000198045
0.0182192
-0.000248988
0.0185801
-0.000299987
0.0187401
-0.000342354
0.019301
-0.00038611
0.0195125
-0.000394293
0.0206105
-0.000346278
0.0203313
0.0157073
-8.90248e-05
0.0178759
-0.000142785
0.0181544
-0.00019712
0.0182735
-0.000247595
0.0186306
-0.000297873
0.0187903
-0.000339013
0.0193421
-0.000380502
0.019554
-0.000384831
0.0206148
-0.000331518
0.020278
0.0153758
-8.85061e-05
0.0179319
-0.000142113
0.018208
-0.000196198
0.0183276
-0.0002462
0.0186806
-0.000295744
0.0188399
-0.000335636
0.019382
-0.000374803
0.0195932
-0.000375285
0.0206153
-0.000317028
0.0202198
0.0150588
-8.79915e-05
0.0179878
-0.000141446
0.0182614
-0.000195277
0.0183814
-0.000244804
0.0187301
-0.000293604
0.0188887
-0.000332228
0.0194206
-0.000369024
0.01963
-0.000365666
0.0206119
-0.000302752
0.0201568
0.014756
-8.74813e-05
0.0180437
-0.000140783
0.0183147
-0.00019436
0.018435
-0.000243407
0.0187791
-0.000291453
0.0189367
-0.00032879
0.019458
-0.000363169
0.0196643
-0.000355979
0.0206047
-0.000288733
0.0200896
0.0144673
-8.69758e-05
0.0180995
-0.000140125
0.0183679
-0.000193444
0.0184883
-0.00024201
0.0188277
-0.00028929
0.018984
-0.00032532
0.019494
-0.000357239
0.0196962
-0.000346246
0.0205937
-0.000275076
0.0200184
0.0141922
-8.64783e-05
-0.000139469
-0.000192534
-0.000240604
-0.000287111
-0.000321813
-0.000351222
-0.000336456
-0.00026148
-8.0309e-05
0.0172704
-0.017234
-0.000115674
0.0175742
-0.0175388
-0.000151823
0.0176854
-0.0176493
-0.000186632
0.0180827
-0.0180479
-0.000222153
0.0182414
-0.0182059
-0.000254799
0.0188862
-0.0188536
-0.000293371
0.0190552
-0.0190166
-0.000319236
0.0204964
-0.0204705
-0.00032394
0.020659
-0.0206543
0.0194767
-0.0198006
-7.9653e-05
0.0173067
-0.00011482
0.0176094
-0.000150729
0.0177213
-0.000185028
0.018117
-0.000219933
0.0182763
-0.000251328
0.0189176
-0.000288292
0.0190921
-0.000310004
0.0205181
-0.000309744
0.0206587
0.019167
-7.89944e-05
0.017343
-0.000113974
0.0176443
-0.00014963
0.017757
-0.000183436
0.0181509
-0.000217704
0.0183106
-0.000247878
0.0189478
-0.000283181
0.0191274
-0.000300905
0.0205358
-0.000295392
0.0206532
0.0188716
-7.83374e-05
0.0173792
-0.000113131
0.0176791
-0.000148533
0.0177924
-0.000181843
0.0181842
-0.000215467
0.0183442
-0.000244415
0.0189768
-0.00027802
0.019161
-0.000291875
0.0205496
-0.000281326
0.0206426
0.0185902
-7.76825e-05
0.0174154
-0.00011229
0.0177137
-0.000147437
0.0178275
-0.000180249
0.018217
-0.000213217
0.0183772
-0.00024093
0.0190045
-0.000272785
0.0191929
-0.000282841
0.0205597
-0.000267578
0.0206274
0.0183227
-7.70298e-05
0.0174515
-0.000111452
0.0177482
-0.000146342
0.0178624
-0.000178653
0.0182493
-0.000210956
0.0184095
-0.000237425
0.0190309
-0.000267483
0.019223
-0.000273779
0.020566
-0.000254061
0.0206077
0.0180686
-7.63801e-05
0.0174875
-0.000110618
0.0177824
-0.000145249
0.0178971
-0.000177058
0.0182811
-0.000208686
0.0184411
-0.000233905
0.0190562
-0.000262124
0.0192512
-0.000264686
0.0205686
-0.000240724
0.0205837
0.0178279
-7.57334e-05
0.0175236
-0.000109788
0.0178165
-0.00014416
0.0179314
-0.000175465
0.0183124
-0.000206409
0.0184721
-0.000230371
0.0190801
-0.000256714
0.0192775
-0.00025556
0.0205674
-0.000227564
0.0205557
0.0176003
-7.509e-05
0.0175595
-0.000108962
0.0178503
-0.000143073
0.0179655
-0.000173873
0.0183432
-0.000204125
0.0185023
-0.000226826
0.0191028
-0.000251252
0.0193019
-0.0002464
0.0205626
-0.00021462
0.0205239
0.0173857
-7.4453e-05
-0.000108138
-0.000141992
-0.000172279
-0.000201833
-0.000223268
-0.000245727
-0.000237196
-0.00020178
-6.7707e-05
0.0170978
-0.0170824
-8.30909e-05
0.0174101
-0.0173948
-9.90248e-05
0.0175179
-0.0175019
-0.00011526
0.0179247
-0.0179085
-0.000131688
0.0180852
-0.0180688
-0.000150534
0.0187408
-0.0187219
-0.000172386
0.0188805
-0.0188587
-0.000204267
0.0203668
-0.0203349
-0.000229706
0.0206173
-0.0205918
0.021271
-0.0215008
-6.69868e-05
0.0171133
-8.21516e-05
0.0174253
-9.78181e-05
0.0175335
-0.000113554
0.0179404
-0.000129389
0.0181011
-0.000147002
0.0187584
-0.000167586
0.0189011
-0.000195204
0.0203944
-0.000216083
0.0206382
0.021055
-6.62653e-05
0.0171286
-8.12113e-05
0.0174403
-9.6611e-05
0.0175489
-0.000111844
0.0179557
-0.000127083
0.0181163
-0.000143451
0.0187747
-0.000162742
0.0189204
-0.000186195
0.0204178
-0.000202608
0.0206546
0.0208524
-6.5542e-05
0.0171439
-8.027e-05
0.017455
-9.54034e-05
0.0175641
-0.000110129
0.0179704
-0.000124768
0.018131
-0.000139878
0.0187899
-0.000157845
0.0189384
-0.000177241
0.0204372
-0.000189316
0.0206666
0.020663
-6.4818e-05
0.0171591
-7.93287e-05
0.0174695
-9.4195e-05
0.0175789
-0.00010841
0.0179846
-0.000122444
0.018145
-0.000136283
0.0188037
-0.000152892
0.018955
-0.000168299
0.0204526
-0.000176166
0.0206745
0.0204869
-6.40931e-05
0.0171742
-7.83877e-05
0.0174838
-9.29867e-05
0.0175935
-0.000106689
0.0179983
-0.000120111
0.0181584
-0.000132671
0.0188163
-0.000147889
0.0189702
-0.000159343
0.0204641
-0.000163116
0.0206783
0.0203238
-6.33678e-05
0.0171892
-7.74476e-05
0.0174979
-9.17793e-05
0.0176079
-0.000104966
0.0180115
-0.000117771
0.0181712
-0.000129046
0.0188275
-0.000142843
0.018984
-0.000150362
0.0204716
-0.000150134
0.0206781
0.0201736
-6.26429e-05
0.0172042
-7.65091e-05
0.0175117
-9.05734e-05
0.0176219
-0.000103243
0.0180242
-0.000115427
0.0181834
-0.000125412
0.0188375
-0.000137762
0.0189963
-0.000141346
0.0204752
-0.000137202
0.0206739
0.0200364
-6.19182e-05
0.0172191
-7.55727e-05
0.0175254
-8.93701e-05
0.0176357
-0.000101522
0.0180363
-0.00011308
0.018195
-0.000121772
0.0188462
-0.00013265
0.0190072
-0.000132282
0.0204748
-0.000124317
0.020666
0.0199121
-6.11965e-05
-7.46388e-05
-8.81719e-05
-9.98016e-05
-0.000110731
-0.00011813
-0.000127504
-0.000123156
-0.000111459
-5.2779e-05
0.0171375
-0.0171431
-4.79044e-05
0.0174495
-0.0174544
-4.33618e-05
0.0175556
-0.0175601
-4.0293e-05
0.0179583
-0.0179613
-3.72705e-05
0.0181224
-0.0181254
-4.11616e-05
0.018742
-0.0187381
-4.47226e-05
0.0188763
-0.0188727
-8.21818e-05
0.0201913
-0.0201539
-0.000117821
0.0204296
-0.020394
0.0220002
-0.022118
-5.20778e-05
0.0171318
-4.69653e-05
0.0174444
-4.21293e-05
0.0175507
-3.85924e-05
0.0179547
-3.49688e-05
0.0181188
-3.77377e-05
0.0187447
-4.01701e-05
0.0188787
-7.34593e-05
0.0202246
-0.000105154
0.0204613
0.021895
-5.13756e-05
0.0171259
-4.60169e-05
0.0174391
-4.08985e-05
0.0175456
-3.6873e-05
0.0179507
-3.26625e-05
0.0181146
-3.42517e-05
0.0187463
-3.55653e-05
0.01888
-6.46553e-05
0.0202537
-9.28601e-05
0.0204895
0.0218022
-5.06691e-05
0.01712
-4.50651e-05
0.0174335
-3.96644e-05
0.0175402
-3.51443e-05
0.0179462
-3.03475e-05
0.0181098
-3.07248e-05
0.0187467
-3.09119e-05
0.0188802
-5.58266e-05
0.0202786
-8.05491e-05
0.0205142
0.0217216
-4.99581e-05
0.0171139
-4.41104e-05
0.0174276
-3.84286e-05
0.0175345
-3.34092e-05
0.0179412
-2.80273e-05
0.0181044
-2.71644e-05
0.0187458
-2.62261e-05
0.0188793
-4.69495e-05
0.0202994
-6.81376e-05
0.0205354
0.0216535
-4.92435e-05
0.0171078
-4.31533e-05
0.0174215
-3.71916e-05
0.0175286
-3.16687e-05
0.0179357
-2.57043e-05
0.0180984
-2.35734e-05
0.0187437
-2.15192e-05
0.0188772
-3.79897e-05
0.0203158
-5.56458e-05
0.0205531
0.0215978
-4.85255e-05
0.0171016
-4.21943e-05
0.0174152
-3.59541e-05
0.0175223
-2.99235e-05
0.0179296
-2.338e-05
0.0180919
-1.9953e-05
0.0187403
-1.68036e-05
0.0188741
-2.89117e-05
0.0203279
-4.30907e-05
0.0205672
0.0215547
-4.78043e-05
0.0170953
-4.1234e-05
0.0174086
-3.47169e-05
0.0175158
-2.81753e-05
0.0179231
-2.10566e-05
0.0180848
-1.63035e-05
0.0187355
-1.20979e-05
0.0188699
-1.96634e-05
0.0203355
-3.0488e-05
0.0205781
0.0215243
-4.70807e-05
0.0170889
-4.02734e-05
0.0174018
-3.34807e-05
0.017509
-2.64255e-05
0.017916
-1.87368e-05
0.0180771
-1.26252e-05
0.0187294
-7.43679e-06
0.0188647
-1.01243e-05
0.0203382
-1.78922e-05
0.0205858
0.0215064
-4.63554e-05
-3.93146e-05
-3.22487e-05
-2.46781e-05
-1.64259e-05
-8.91837e-06
-2.9101e-06
3.9496e-07
-5.60458e-06
-3.50795e-05
0.0173844
-0.0174106
-1.0299e-05
0.0176894
-0.0177142
1.42646e-05
0.0177943
-0.0178189
3.68762e-05
0.0181845
-0.0182071
5.88756e-05
0.0183525
-0.0183745
7.17159e-05
0.0188949
-0.0189077
8.47863e-05
0.0190542
-0.0190673
4.57319e-05
0.0199541
-0.0199151
7.10627e-06
0.0202144
-0.0201758
0.0215273
-0.0215202
-3.44675e-05
0.0173581
-9.43051e-06
0.0176643
1.5441e-05
0.0177695
3.84611e-05
0.0181615
6.11209e-05
0.0183299
7.4769e-05
0.0188812
8.92286e-05
0.0190397
5.33444e-05
0.01999
1.84245e-05
0.0202493
0.0215457
-3.38552e-05
0.0173316
-8.54947e-06
0.017639
1.66176e-05
0.0177443
4.00725e-05
0.018138
6.3377e-05
0.0183066
7.79048e-05
0.0188667
9.37652e-05
0.0190239
6.11461e-05
0.0200227
2.93601e-05
0.0202811
0.0215751
-3.32367e-05
0.017305
-7.663e-06
0.0176135
1.77981e-05
0.0177188
4.16933e-05
0.0181141
6.56455e-05
0.0182826
8.10864e-05
0.0188513
9.8371e-05
0.0190066
6.90522e-05
0.020052
4.05934e-05
0.0203095
0.0216157
-3.26125e-05
0.0172783
-6.77113e-06
0.0175876
1.89813e-05
0.0176931
4.33198e-05
0.0180898
6.79182e-05
0.018258
8.42985e-05
0.0188349
0.000103016
0.0189879
7.70582e-05
0.0200779
5.22579e-05
0.0203343
0.0216679
-3.19825e-05
0.0172515
-5.87432e-06
0.0175615
2.01663e-05
0.0176671
4.49512e-05
0.018065
7.01933e-05
0.0182328
8.75378e-05
0.0188176
0.000107693
0.0189677
8.51793e-05
0.0201004
6.4306e-05
0.0203552
0.0217322
-3.13475e-05
0.0172246
-4.97183e-06
0.0175351
2.13529e-05
0.0176407
4.6587e-05
0.0180398
7.24703e-05
0.0182069
9.08028e-05
0.0187992
0.0001124
0.0189461
9.3427e-05
0.0201194
7.67276e-05
0.0203719
0.0218089
-3.07075e-05
0.0171975
-4.06384e-06
0.0175085
2.25404e-05
0.0176141
4.82263e-05
0.0180141
7.47472e-05
0.0181804
9.40901e-05
0.0187799
0.000117128
0.0189231
0.000101807
0.0201347
8.95643e-05
0.0203842
0.0218985
-3.00633e-05
0.0171704
-3.14954e-06
0.0174816
2.37269e-05
0.0175872
4.98667e-05
0.0179879
7.70202e-05
0.0181532
9.73939e-05
0.0187595
0.000121864
0.0188986
0.000110323
0.0201463
0.000102873
0.0203916
0.0220014
-2.94148e-05
-2.22987e-06
2.49102e-05
5.15026e-05
7.92829e-05
0.000100704
0.000126578
0.000118969
0.000116618
-1.45928e-05
0.017827
-0.0178726
2.90548e-05
0.0181187
-0.0181623
7.28274e-05
0.0182262
-0.01827
0.000114546
0.0186004
-0.0186421
0.000154458
0.0187626
-0.0188025
0.000186091
0.0192231
-0.0192547
0.000211146
0.0193658
-0.0193909
0.00018157
0.0197463
-0.0197167
0.000138901
0.0199563
-0.0199137
0.0198104
-0.0196715
-1.41088e-05
0.0177812
2.97922e-05
0.0180748
7.38737e-05
0.0181821
0.000115961
0.0185583
0.000156518
0.0187221
0.00018874
0.0191909
0.000215321
0.0193392
0.000187522
0.0197741
0.000148521
0.0199953
0.0199589
-1.36242e-05
0.0177354
3.05438e-05
0.0180306
7.49208e-05
0.0181378
0.000117408
0.0185158
0.0001586
0.0186809
0.000191477
0.019158
0.000219647
0.0193111
0.000193745
0.0198
0.000157317
0.0200318
0.0201162
-1.31336e-05
0.0176894
3.12994e-05
0.0179862
7.59722e-05
0.0180931
0.000118861
0.0184729
0.000160697
0.0186391
0.000194254
0.0191244
0.000224057
0.0192813
0.000200184
0.0198239
0.000166733
0.0200652
0.0202829
-1.26377e-05
0.0176432
3.20582e-05
0.0179415
7.70255e-05
0.0180481
0.000120317
0.0184296
0.000162797
0.0185966
0.000197055
0.0190902
0.000228513
0.0192498
0.000206831
0.0198455
0.000176987
0.0200951
0.0204599
-1.21366e-05
0.0175969
3.282e-05
0.0178965
7.80804e-05
0.0180029
0.000121775
0.0183859
0.000164898
0.0185534
0.000199877
0.0190552
0.000233007
0.0192167
0.000213684
0.0198649
0.000187878
0.0201209
0.0206478
-1.16302e-05
0.0175505
3.35847e-05
0.0178513
7.91366e-05
0.0179573
0.000123234
0.0183418
0.000167002
0.0185097
0.000202719
0.0190195
0.000237537
0.0191818
0.000220742
0.0198817
0.000199335
0.0201423
0.0208471
-1.11192e-05
0.017504
3.43515e-05
0.0178059
8.01938e-05
0.0179115
0.000124694
0.0182973
0.000169106
0.0184653
0.00020558
0.018983
0.000242095
0.0191453
0.000228001
0.0198958
0.000211409
0.0201589
0.0210585
-1.06038e-05
0.0174574
3.51196e-05
0.0177601
8.12497e-05
0.0178653
0.000126152
0.0182524
0.000171206
0.0184202
0.000208453
0.0189458
0.000246661
0.0191071
0.00023545
0.019907
0.000224148
0.0201702
0.0212827
-1.00845e-05
3.58843e-05
8.23026e-05
0.000127602
0.000173295
0.000211329
0.000251197
0.000243073
0.000237481
8.21564e-06
0.018448
-0.0185116
6.88322e-05
0.0187232
-0.0187838
0.000130611
0.0188364
-0.0188981
0.0001894
0.0191962
-0.019255
0.000246693
0.0193408
-0.0193981
0.000295623
0.019734
-0.0197829
0.000330696
0.0197737
-0.0198088
0.000322112
0.0196798
-0.0196712
0.000255323
0.0195378
-0.019471
0.0169128
-0.0166575
8.51985e-06
0.0183846
6.98485e-05
0.0186618
0.000131711
0.0187745
0.000191824
0.0191361
0.000249387
0.0192833
0.000300289
0.0196831
0.000336702
0.0197373
0.000327851
0.0196886
0.000265815
0.0195998
0.0171786
8.87917e-06
0.018321
7.04664e-05
0.0186003
0.000132612
0.0187123
0.000193103
0.0190756
0.000251231
0.0192251
0.00030271
0.0196316
0.000340466
0.0196995
0.000332511
0.0196966
0.000274548
0.0196578
0.0174531
9.23437e-06
0.0182574
7.10662e-05
0.0185384
0.00013347
0.0186499
0.000194313
0.0190148
0.000252971
0.0191665
0.000304997
0.0195796
0.000344218
0.0196603
0.000337328
0.0197035
0.000284266
0.0197109
0.0177374
9.5943e-06
0.0181935
7.16709e-05
0.0184763
0.000134337
0.0185873
0.000195541
0.0189536
0.000254755
0.0191073
0.000307363
0.019527
0.000348134
0.0196196
0.000342311
0.0197093
0.000294165
0.019759
0.0180316
9.95942e-06
0.0181296
7.22808e-05
0.018414
0.000135213
0.0185243
0.000196785
0.018892
0.000256571
0.0190475
0.000309786
0.0194738
0.000352159
0.0195772
0.000347532
0.0197139
0.000304512
0.019802
0.0183361
1.03285e-05
0.0180655
7.28928e-05
0.0183515
0.000136091
0.0184611
0.000198028
0.01883
0.000258391
0.0189871
0.000312219
0.0194199
0.000356241
0.0195332
0.000353003
0.0197172
0.000315547
0.0198395
0.0186516
1.07007e-05
0.0180013
7.35053e-05
0.0182887
0.000136966
0.0183977
0.000199266
0.0187677
0.000260206
0.0189262
0.000314653
0.0193655
0.000360366
0.0194874
0.000358705
0.0197188
0.000327302
0.0198709
0.0189789
1.10756e-05
0.017937
7.41168e-05
0.0182256
0.000137838
0.018334
0.000200498
0.0187051
0.000262015
0.0188646
0.000317087
0.0193104
0.000364518
0.01944
0.000364607
0.0197187
0.000339748
0.0198958
0.0193187
1.14533e-05
7.47229e-05
0.000138706
0.000201717
0.000263816
0.000319515
0.000368668
0.000370676
0.000352768
0.000757098
-1.08426e-05
1.14274e-05
0.000757379
3.14743e-05
-3.17554e-05
0.000754614
4.80852e-05
-4.53197e-05
0.000753865
9.6053e-05
-9.53043e-05
0.000748978
6.40519e-05
-5.91652e-05
0.000737951
0.000509567
-0.00049854
0.000717272
0.000389008
-0.000368329
0.000653021
0.00264109
-0.00257683
0.000519611
0.00303122
-0.00289781
0.0217365
-0.0212169
0.000757037
-1.01965e-05
0.000757405
3.11063e-05
0.000754529
5.09609e-05
0.000753931
9.66512e-05
0.000748813
6.91692e-05
0.000738054
0.000520326
0.000716779
0.000410283
0.000653518
0.00270435
0.000519182
0.00316556
0.0222557
0.000756976
-9.49005e-06
0.00075743
3.06524e-05
0.000754447
5.39444e-05
0.000753997
9.71004e-05
0.000748652
7.45146e-05
0.000738162
0.000530816
0.000716301
0.000432144
0.000654072
0.00276658
0.000518985
0.00330064
0.0227747
0.000756916
-8.72326e-06
0.000757456
3.01118e-05
0.000754365
5.70364e-05
0.000754067
9.73983e-05
0.000748491
8.00902e-05
0.00073828
0.000541027
0.00071583
0.000454594
0.000654707
0.0028277
0.000518938
0.00343641
0.0232936
0.000756856
-7.89649e-06
0.000757484
2.9484e-05
0.000754283
6.02368e-05
0.000754139
9.7543e-05
0.000748331
8.58977e-05
0.000738408
0.00055095
0.000715367
0.000477635
0.00065543
0.00288763
0.000518995
0.00357285
0.0238126
0.000756796
-7.01022e-06
0.000757512
2.87683e-05
0.000754203
6.35457e-05
0.000754213
9.75329e-05
0.000748173
9.19384e-05
0.000738546
0.000560577
0.000714914
0.000501267
0.00065625
0.0029463
0.000519164
0.00370993
0.0243318
0.000756738
-6.06508e-06
0.000757541
2.79644e-05
0.000754124
6.69627e-05
0.000754291
9.73664e-05
0.000748017
9.82127e-05
0.000738694
0.0005699
0.000714474
0.000525488
0.000657169
0.0030036
0.000519442
0.00384766
0.0248512
0.00075668
-5.06188e-06
0.000757572
2.70722e-05
0.000754047
7.0487e-05
0.000754371
9.70426e-05
0.000747863
0.000104721
0.000738853
0.000578909
0.000714042
0.000550299
0.000658179
0.00305947
0.000519811
0.00398603
0.025371
0.000756622
-4.00159e-06
0.000757603
2.60915e-05
0.000753972
7.4118e-05
0.000754454
9.65603e-05
0.000747712
0.000111464
0.000739024
0.000587597
0.000713629
0.000575693
0.000659348
0.00311375
0.000520318
0.00412506
0.0258913
0.000756584
-2.90255e-06
0.000757605
2.50701e-05
0.000753947
7.77766e-05
0.000754482
9.60249e-05
0.000747673
0.000118273
0.000739108
0.000596162
0.000713595
0.000601207
0.000660724
0.00316662
0.000522224
0.00426356
0.0264136
0.00086451
-1.39682e-05
1.38921e-05
0.000863862
3.01877e-05
-2.95391e-05
0.000861999
2.32913e-05
-2.14286e-05
0.000859552
8.01896e-05
-7.77429e-05
0.00085679
2.44645e-05
-2.17022e-05
0.000841933
0.0003765
-0.000361644
0.000827275
0.000212866
-0.000198208
0.000748351
0.00191093
-0.001832
0.000639433
0.00189243
-0.00178351
0.0154617
-0.0148223
0.000864442
-1.39763e-05
0.000863883
3.0747e-05
0.000861909
2.52651e-05
0.000859605
8.24932e-05
0.000856638
2.74321e-05