/*--------------------------------*- C++ -*----------------------------------*\
  =========                 |
  \\      /  F ield         | OpenFOAM: The Open Source CFD Toolbox
   \\    /   O peration     | Website:  https://openfoam.org
    \\  /    A nd           | Version:  10
     \\/     M anipulation  |
\*---------------------------------------------------------------------------*/
FoamFile
{
    format      ascii;
    class       volVectorField;
    location    "20";
    object      U;
}
// * * * * * * * * * * * * * * * * * * * * * * * * * * * * * * * * * * * * * //

dimensions      [0 1 -1 0 0 0 0];

internalField   nonuniform List<vector> 
3600
(
(0.79397 -0.00417972 -3.2663e-19)
(0.6908 -0.0031023 4.40787e-20)
(0.718919 -0.00478635 7.70331e-19)
(0.572047 -0.00279094 -1.76255e-18)
(0.652269 -0.00516439 2.85675e-18)
(0.443703 -0.00286782 -2.40932e-18)
(0.585332 -0.00769682 -7.03987e-18)
(0.252881 -0.00346995 5.80359e-18)
(0.506651 -0.00869771 8.96158e-18)
(0.0153573 -0.0209087 -1.39782e-18)
(0.793079 -0.00374381 -5.61395e-19)
(0.689599 -0.00277953 1.32693e-19)
(0.717707 -0.00428749 5.94799e-19)
(0.570486 -0.00250121 -1.67729e-18)
(0.650697 -0.00462777 3.31131e-18)
(0.441647 -0.00257218 -2.87206e-18)
(0.583183 -0.00689929 -6.30114e-18)
(0.249939 -0.00311828 5.01788e-18)
(0.503276 -0.00771069 7.90635e-18)
(0.0181614 -0.0187173 -1.01685e-18)
(0.792284 -0.00330625 -5.64362e-19)
(0.688529 -0.00245596 2.39603e-19)
(0.716625 -0.00378621 -3.33805e-20)
(0.569093 -0.00221105 -2.2746e-18)
(0.649296 -0.00408726 3.87715e-18)
(0.439814 -0.00227623 -2.40297e-18)
(0.581266 -0.00609464 -5.81691e-18)
(0.247315 -0.00276547 5.6498e-18)
(0.500269 -0.00674657 9.2868e-18)
(0.0207008 -0.0165062 -1.7437e-19)
(0.791587 -0.00286762 -6.05235e-19)
(0.687589 -0.00213112 3.45735e-19)
(0.715676 -0.00328379 -2.30063e-19)
(0.567871 -0.00191939 -1.72828e-18)
(0.648065 -0.00354532 3.87065e-18)
(0.438205 -0.00197778 -2.05185e-18)
(0.579583 -0.00528748 -5.53607e-18)
(0.245012 -0.00240742 5.26233e-18)
(0.497633 -0.00580322 8.92177e-18)
(0.0229593 -0.0143008 6.73685e-19)
(0.790988 -0.00242805 -6.53533e-19)
(0.686782 -0.0018052 4.9657e-19)
(0.71486 -0.00278033 -3.88723e-19)
(0.566821 -0.00162646 -1.28421e-18)
(0.647008 -0.00300207 4.02268e-18)
(0.436823 -0.0016773 -1.74503e-18)
(0.578135 -0.00447802 -5.5418e-18)
(0.243034 -0.00204508 6.28109e-18)
(0.495369 -0.00487849 6.95539e-18)
(0.0249223 -0.0120984 1.52599e-18)
(0.790488 -0.00198763 -4.72707e-19)
(0.686108 -0.0014784 6.27326e-19)
(0.714179 -0.00227589 -1.68186e-19)
(0.565944 -0.00133257 -9.15012e-19)
(0.646125 -0.0024575 4.26323e-18)
(0.435669 -0.00137531 -1.53167e-18)
(0.576926 -0.00366622 -5.70255e-18)
(0.241382 -0.00167953 6.35677e-18)
(0.49348 -0.00396975 5.1642e-18)
(0.0265774 -0.00989578 2.02831e-18)
(0.790087 -0.00154651 -3.06151e-19)
(0.685567 -0.00115091 7.64297e-19)
(0.713633 -0.0017706 4.25513e-20)
(0.565241 -0.0010379 -5.75912e-19)
(0.645417 -0.0019118 4.01188e-18)
(0.434744 -0.00107213 -1.34064e-18)
(0.575957 -0.00285241 -6.14821e-18)
(0.240058 -0.00131137 5.37715e-18)
(0.491966 -0.0030743 5.62159e-18)
(0.0279141 -0.0076923 1.69451e-18)
(0.789786 -0.00110477 -1.68224e-19)
(0.685161 -0.000822933 8.77922e-19)
(0.713223 -0.00126456 -1.53781e-19)
(0.564713 -0.000742754 -2.17456e-19)
(0.644885 -0.00136505 3.82436e-18)
(0.434049 -0.000768233 -3.13392e-19)
(0.575229 -0.00203682 -5.59596e-18)
(0.239064 -0.000941478 3.46393e-18)
(0.490829 -0.00218963 8.52621e-18)
(0.0289237 -0.00548694 1.35351e-18)
(0.789585 -0.000662559 -5.38742e-20)
(0.684891 -0.000494645 1.10784e-18)
(0.712949 -0.000757896 1.05975e-19)
(0.564361 -0.000447366 1.22726e-19)
(0.644531 -0.000817403 3.79987e-18)
(0.433585 -0.000464055 6.68262e-19)
(0.574743 -0.00121969 -4.09878e-18)
(0.238401 -0.000570817 1.57006e-18)
(0.49007 -0.00131294 1.15964e-17)
(0.0296001 -0.00327834 7.12423e-19)
(0.789484 -0.000220457 4.73187e-20)
(0.684755 -0.000165555 9.40485e-19)
(0.712812 -0.000251679 3.47045e-19)
(0.564185 -0.000150547 4.32648e-19)
(0.644353 -0.000270624 3.31411e-18)
(0.433353 -0.000157427 2.70396e-18)
(0.5745 -0.000403547 -2.7333e-18)
(0.238069 -0.000195659 -3.07426e-19)
(0.489691 -0.00043848 1.51823e-17)
(0.0299393 -0.00107632 5.82602e-19)
(0.807225 -0.00828402 3.1201e-19)
(0.708684 -0.0061136 5.6692e-19)
(0.736984 -0.00948108 -3.32684e-18)
(0.595415 -0.00547178 -1.17077e-18)
(0.675799 -0.0101859 -2.68769e-18)
(0.474678 -0.00555808 2.98817e-18)
(0.617665 -0.0151174 -5.27314e-18)
(0.297601 -0.00650072 1.24878e-17)
(0.558344 -0.020091 1.41019e-17)
(-0.0226881 -0.0418364 -1.59889e-18)
(0.805543 -0.00788409 4.22035e-19)
(0.706414 -0.00582292 5.15973e-19)
(0.734693 -0.00902422 -3.19063e-18)
(0.592448 -0.00521553 -6.78433e-19)
(0.672816 -0.00970103 -2.25703e-18)
(0.470744 -0.00530719 2.60872e-18)
(0.613577 -0.0144068 -7.0599e-18)
(0.291924 -0.00623646 1.06923e-17)
(0.551779 -0.0187911 1.35907e-17)
(-0.0183701 -0.0397494 -1.90373e-18)
(0.803936 -0.00748143 5.56839e-19)
(0.704246 -0.00553008 4.64444e-19)
(0.732505 -0.00856358 -3.18041e-18)
(0.589614 -0.00495702 -2.27638e-19)
(0.669966 -0.00921018 -1.18443e-18)
(0.466986 -0.00505297 2.31567e-18)
(0.609667 -0.0136846 -7.98925e-18)
(0.2865 -0.00596484 9.21987e-18)
(0.545507 -0.0175249 1.35618e-17)
(-0.0141075 -0.037639 -2.23682e-18)
(0.802407 -0.00707653 7.07518e-19)
(0.702182 -0.00523476 4.55245e-19)
(0.730422 -0.00810041 -2.4277e-18)
(0.586916 -0.0046956 -3.79652e-19)
(0.667251 -0.00871606 -8.55311e-19)
(0.463409 -0.00479406 1.23639e-18)
(0.60594 -0.0129566 -9.23544e-18)
(0.281336 -0.00568306 8.10835e-18)
(0.539535 -0.0162989 1.39628e-17)
(-0.009923 -0.0355417 -2.7553e-18)
(0.800957 -0.00666944 8.85395e-19)
(0.700225 -0.00493713 4.78295e-19)
(0.728445 -0.00763472 -1.7646e-18)
(0.584358 -0.00443154 -5.61962e-19)
(0.664676 -0.00821863 -6.62549e-19)
(0.460018 -0.00453104 2.57495e-19)
(0.602402 -0.0122229 -1.07451e-17)
(0.276438 -0.00539241 7.16294e-18)
(0.533869 -0.0151126 1.28229e-17)
(-0.00583877 -0.0334512 -2.86171e-18)
(0.799586 -0.00626024 8.47645e-19)
(0.698376 -0.00463737 4.94924e-19)
(0.726577 -0.00716652 -1.21368e-18)
(0.581942 -0.00416508 -7.48987e-19)
(0.662242 -0.00771777 -3.7354e-19)
(0.456814 -0.00426434 -6.71966e-19)
(0.599056 -0.0114829 -1.14299e-17)
(0.27181 -0.00509375 6.45136e-18)
(0.528517 -0.0139638 9.95935e-18)
(-0.00187687 -0.0313617 -2.59449e-18)
(0.798298 -0.00584903 5.90901e-19)
(0.696638 -0.0043356 1.21623e-19)
(0.724821 -0.00669593 -6.49199e-19)
(0.579671 -0.00389637 -9.77748e-19)
(0.659954 -0.00721362 -1.90792e-19)
(0.453802 -0.00399418 -1.60738e-18)
(0.595907 -0.0107371 -1.15192e-17)
(0.267458 -0.00478754 6.03745e-18)
(0.523484 -0.0128508 7.48713e-18)
(0.00194112 -0.0292725 -2.39495e-18)
(0.797093 -0.00543588 3.52707e-19)
(0.695011 -0.00403202 1.40411e-19)
(0.723177 -0.00622299 -9.80364e-20)
(0.577546 -0.00362571 -1.24731e-18)
(0.657812 -0.00670629 3.74753e-21)
(0.450985 -0.00372111 -1.78691e-18)
(0.592959 -0.00998579 -1.07373e-17)
(0.263387 -0.00447492 5.76504e-18)
(0.518777 -0.0117724 7.36399e-18)
(0.0055942 -0.0271836 -1.85836e-18)
(0.795972 -0.00502089 1.23566e-19)
(0.6935 -0.00372679 2.2459e-19)
(0.721649 -0.0057478 4.35197e-19)
(0.57557 -0.00335335 -1.54437e-18)
(0.65582 -0.00619582 8.8536e-19)
(0.448365 -0.00344557 -1.96079e-18)
(0.590215 -0.00922899 -9.2046e-18)
(0.259601 -0.00415698 5.66725e-18)
(0.5144 -0.0107264 7.6234e-18)
(0.00906209 -0.0250937 -1.79075e-18)
(0.794937 -0.00460458 -9.02646e-20)
(0.692103 -0.00341934 -4.55809e-20)
(0.720237 -0.00527118 5.84018e-19)
(0.573746 -0.0030778 -1.94889e-18)
(0.653979 -0.0056833 1.87303e-18)
(0.445946 -0.00316457 -2.13032e-18)
(0.587678 -0.0084672 -7.96593e-18)
(0.256103 -0.00382767 5.66628e-18)
(0.510359 -0.00970476 8.2024e-18)
(0.0123254 -0.0229995 -1.80634e-18)
(0.826023 -0.0118476 -5.76477e-19)
(0.734122 -0.00866596 -7.68593e-19)
(0.76266 -0.0135431 -1.2464e-18)
(0.628962 -0.00768473 -1.97435e-18)
(0.709605 -0.0144469 -2.19311e-18)
(0.519793 -0.00766089 1.31683e-18)
(0.664537 -0.0212916 4.05424e-18)
(0.363751 -0.00847741 1.40206e-17)
(0.634642 -0.0347279 1.11718e-17)
(-0.0644858 -0.0609323 1.28171e-18)
(0.823915 -0.011505 -4.78711e-19)
(0.731268 -0.00842442 -5.30027e-19)
(0.759786 -0.0131538 -1.80818e-18)
(0.625197 -0.00747962 -1.99449e-18)
(0.705823 -0.0140442 -2.54445e-18)
(0.514732 -0.00747526 1.05018e-18)
(0.659318 -0.0207167 3.96764e-18)
(0.356352 -0.00832889 1.35846e-17)
(0.626233 -0.0330889 1.00633e-17)
(-0.0606458 -0.0590079 1.01825e-18)
(0.821855 -0.0111593 -3.74064e-19)
(0.728478 -0.00818003 -3.43305e-19)
(0.756975 -0.0127601 -2.38455e-18)
(0.621518 -0.00727098 -2.04679e-18)
(0.702124 -0.0136345 -2.98131e-18)
(0.509783 -0.00728415 7.96467e-19)
(0.654206 -0.0201282 3.99574e-18)
(0.349111 -0.00816993 1.36321e-17)
(0.617968 -0.0314746 1.13708e-17)
(-0.0566887 -0.0570641 7.74262e-19)
(0.819844 -0.0108109 -2.82067e-19)
(0.725756 -0.00793264 -4.93667e-19)
(0.754231 -0.0123633 -2.66294e-18)
(0.617927 -0.00705868 -2.15483e-18)
(0.698511 -0.0132208 -3.49928e-18)
(0.504952 -0.00708714 1.31117e-18)
(0.649205 -0.0195326 2.90326e-18)
(0.342034 -0.00799869 1.30348e-17)
(0.609858 -0.0299057 1.31354e-17)
(-0.052629 -0.0551461 5.94256e-19)
(0.817885 -0.0104597 -2.0806e-19)
(0.723104 -0.00768243 -3.1042e-19)
(0.751555 -0.0119633 -2.66965e-18)
(0.614427 -0.00684309 -2.32316e-18)
(0.694986 -0.0128027 -4.12907e-18)
(0.500243 -0.00688506 1.89195e-18)
(0.64432 -0.0189291 2.00384e-18)
(0.335129 -0.00781716 1.28271e-17)
(0.601916 -0.0283829 1.34154e-17)
(-0.0484816 -0.053241 4.072e-19)
(0.815978 -0.0101059 -1.2891e-19)
(0.720524 -0.00742952 -9.89938e-20)
(0.74895 -0.01156 -2.74139e-18)
(0.611022 -0.00662434 -2.60405e-18)
(0.691554 -0.0123799 -4.92283e-18)
(0.495661 -0.00667816 2.47676e-18)
(0.639558 -0.0183171 -1.53922e-19)
(0.328402 -0.00762584 1.30731e-17)
(0.594151 -0.0269036 1.40651e-17)
(-0.0442624 -0.0513405 2.35499e-19)
(0.814126 -0.00974935 -3.5075e-20)
(0.718017 -0.00717397 1.03253e-19)
(0.746418 -0.0111533 -2.91811e-18)
(0.607715 -0.00640249 -2.94489e-18)
(0.688217 -0.0119525 -4.59336e-18)
(0.491208 -0.00646653 3.20954e-18)
(0.634923 -0.0176969 -2.25714e-18)
(0.321861 -0.00742473 1.37168e-17)
(0.586577 -0.0254671 1.51799e-17)
(-0.0399876 -0.0494445 8.02178e-20)
(0.81233 -0.00939023 4.48953e-20)
(0.715587 -0.00691592 2.95525e-19)
(0.743962 -0.0107435 -3.17428e-18)
(0.604508 -0.00617783 -2.77283e-18)
(0.684979 -0.0115206 -4.39565e-18)
(0.48689 -0.00625063 3.95201e-18)
(0.630419 -0.0170688 -3.4082e-18)
(0.315511 -0.00721467 1.3621e-17)
(0.579203 -0.0240743 1.46815e-17)
(-0.0356743 -0.0475551 -7.37797e-20)
(0.810591 -0.00902851 1.23225e-19)
(0.713235 -0.00665552 5.00877e-19)
(0.741584 -0.0103304 -3.49187e-18)
(0.601404 -0.0059506 -2.19555e-18)
(0.681843 -0.0110842 -3.66865e-18)
(0.482709 -0.00603093 4.06595e-18)
(0.626052 -0.0164327 -3.46451e-18)
(0.30936 -0.00699676 1.38975e-17)
(0.572039 -0.0227242 1.4573e-17)
(-0.0313399 -0.0456722 -7.0042e-19)
(0.808912 -0.0086646 2.18256e-19)
(0.710964 -0.00639224 6.91235e-19)
(0.739285 -0.00991449 -3.57276e-18)
(0.598407 -0.00571933 -1.65469e-18)
(0.678812 -0.0106431 -3.15237e-18)
(0.478671 -0.00580452 3.45172e-18)
(0.621826 -0.0157864 -3.77476e-18)
(0.303413 -0.00676522 1.35541e-17)
(0.565096 -0.0214036 1.31385e-17)
(-0.0270023 -0.0437749 -1.34008e-18)
(0.846402 -0.0147282 -1.52059e-19)
(0.761838 -0.010668 8.84052e-20)
(0.790623 -0.0167953 3.78205e-18)
(0.666083 -0.00934406 3.14893e-19)
(0.747104 -0.0177396 1.45875e-19)
(0.570908 -0.00911068 -6.01763e-18)
(0.71735 -0.0259026 4.63588e-18)
(0.440334 -0.00952827 7.60642e-18)
(0.719098 -0.0518704 1.10547e-17)
(-0.095277 -0.0774904 3.12958e-18)
(0.844257 -0.0144555 -1.5393e-19)
(0.758918 -0.0104776 3.74768e-20)
(0.787689 -0.0164901 3.45122e-18)
(0.662176 -0.00918699 3.80004e-19)
(0.743178 -0.0174378 -3.87203e-19)
(0.565538 -0.00897568 -5.24734e-18)
(0.71186 -0.0254856 4.90374e-18)
(0.432329 -0.00943337 8.23961e-18)
(0.710652 -0.0498683 7.25656e-18)
(-0.0928692 -0.0759994 3.84561e-18)
(0.842135 -0.014179 -1.71338e-19)
(0.75603 -0.0102874 -2.27822e-20)
(0.784784 -0.0161802 2.81057e-18)
(0.65831 -0.0090319 1.08151e-21)
(0.739288 -0.0171311 -9.03558e-19)
(0.560219 -0.00884441 -3.86263e-18)
(0.706409 -0.0250652 4.14685e-18)
(0.424389 -0.00933954 9.1785e-18)
(0.702183 -0.0481054 5.61624e-18)
(-0.090298 -0.0741196 3.60519e-18)
(0.840038 -0.013899 -1.98567e-19)
(0.753177 -0.0100958 -8.85918e-20)
(0.781911 -0.0158649 2.25329e-18)
(0.654488 -0.00887677 1.62988e-19)
(0.735435 -0.0168154 -1.47508e-18)
(0.554955 -0.00871583 -2.5521e-18)
(0.701 -0.0246288 3.4908e-18)
(0.416519 -0.0092612 9.2807e-18)
(0.693699 -0.0463369 5.93282e-18)
(-0.0875679 -0.0724122 3.44688e-18)
(0.837966 -0.0136164 -2.4397e-19)
(0.750359 -0.0099015 1.3556e-19)
(0.77907 -0.015546 1.76477e-18)
(0.650711 -0.00871842 2.98342e-19)
(0.731624 -0.0164941 -1.44121e-18)
(0.549752 -0.00858258 -1.32776e-18)
(0.695638 -0.0241818 3.96523e-18)
(0.408725 -0.00917744 9.68651e-18)
(0.685209 -0.0445751 6.8278e-18)
(-0.0846837 -0.0707841 2.87139e-18)
(0.835922 -0.0133312 -2.78282e-19)
(0.747578 -0.0097045 7.3094e-20)
(0.776264 -0.015224 1.32458e-18)
(0.646983 -0.00855651 -2.86651e-20)
(0.727857 -0.0161682 -1.46533e-18)
(0.544611 -0.00844361 -8.00358e-19)
(0.690327 -0.0237265 3.48752e-18)
(0.401013 -0.00908383 1.02885e-17)
(0.676724 -0.0428511 7.77335e-18)
(-0.0816508 -0.0691515 2.30737e-18)
(0.833907 -0.0130435 -3.16273e-19)
(0.744836 -0.00950493 -1.4299e-20)
(0.773494 -0.0148987 8.66899e-19)
(0.643306 -0.00839135 -4.02936e-19)
(0.724136 -0.0158377 -1.50157e-18)
(0.539537 -0.0082996 -3.10915e-19)
(0.685071 -0.0232628 3.02123e-18)
(0.393389 -0.00898188 1.12282e-17)
(0.668252 -0.0411685 8.98124e-18)
(-0.0784747 -0.0675159 1.86395e-18)
(0.831921 -0.0127533 -3.7745e-19)
(0.742136 -0.00930293 -1.18042e-19)
(0.770764 -0.0145701 4.22408e-19)
(0.639683 -0.00822327 -7.49043e-19)
(0.720465 -0.0155025 -1.63547e-18)
(0.534533 -0.00815114 3.46748e-20)
(0.679874 -0.022791 2.63496e-18)
(0.385859 -0.00887258 1.24327e-17)
(0.659805 -0.039527 1.03916e-17)
(-0.0751618 -0.0658925 1.36467e-18)
(0.829966 -0.0124604 -4.30954e-19)
(0.739478 -0.00909863 -5.17075e-19)
(0.768074 -0.0142382 1.69077e-20)
(0.636115 -0.00805255 -1.13679e-18)
(0.716845 -0.0151623 -1.80465e-18)
(0.529604 -0.00799878 5.0598e-19)
(0.674742 -0.0223105 3.41302e-18)
(0.378429 -0.00875685 1.29932e-17)
(0.651393 -0.037926 1.23745e-17)
(-0.0717195 -0.0642855 1.48573e-18)
(0.828044 -0.0121652 -5.04848e-19)
(0.736864 -0.00889157 -6.21837e-19)
(0.765427 -0.0139026 -7.78121e-19)
(0.632606 -0.00787783 -1.52517e-18)
(0.713281 -0.0148157 -1.95017e-18)
(0.524752 -0.00784006 8.53698e-19)
(0.669677 -0.0218164 4.23102e-18)
(0.371104 -0.00863082 1.39181e-17)
(0.643026 -0.0363403 1.26104e-17)
(-0.0681554 -0.0626537 1.60998e-18)
(1.14604 0.0347412 2.6786e-18)
(1.16271 0.0413975 6.10628e-18)
(1.17025 0.0297498 3.35554e-18)
(1.19118 0.0358205 5.00104e-19)
(1.20072 0.00489031 1.43858e-18)
(1.2317 0.00555287 6.57665e-20)
(1.2434 -0.0661212 -6.15703e-18)
(1.29509 -0.0841273 5.60274e-19)
(1.25058 -0.255406 4.59448e-18)
(0.862261 -0.182415 1.30478e-17)
(1.14621 0.0342942 2.58168e-18)
(1.16267 0.0408322 6.64471e-18)
(1.17023 0.0290174 2.63899e-18)
(1.19081 0.0347092 3.65563e-19)
(1.20029 0.00323207 1.49568e-18)
(1.23048 0.00285137 -3.04295e-19)
(1.24189 -0.0703537 -4.29608e-18)
(1.29051 -0.0917126 7.0223e-19)
(1.24017 -0.264623 1.31159e-18)
(0.831959 -0.189073 1.28465e-17)
(1.14638 0.033853 2.50871e-18)
(1.16263 0.0402721 6.41403e-18)
(1.17021 0.0282913 2.67046e-18)
(1.19043 0.033601 3.21813e-19)
(1.19985 0.00157701 1.51674e-18)
(1.22924 0.000139865 -1.51972e-19)
(1.24034 -0.0746201 -4.22844e-18)
(1.28587 -0.0993473 8.63537e-19)
(1.22959 -0.273732 1.6937e-18)
(0.802995 -0.1956 1.33717e-17)
(1.14654 0.033418 2.48523e-18)
(1.16258 0.0397181 6.24003e-18)
(1.17017 0.0275726 2.87202e-18)
(1.19003 0.0324975 -1.08254e-19)
(1.19935 -7.30709e-05 1.43484e-18)
(1.22791 -0.00257874 -2.85718e-19)
(1.23858 -0.0789174 -3.89616e-18)
(1.28093 -0.107026 7.43915e-19)
(1.21866 -0.28279 2.57707e-18)
(0.776325 -0.20205 1.20272e-17)
(1.1467 0.0329911 2.44509e-18)
(1.16252 0.0391719 6.03597e-18)
(1.17011 0.0268634 3.33227e-18)
(1.18959 0.0314013 -1.03699e-18)
(1.1988 -0.00171473 1.62587e-18)
(1.2265 -0.00529967 -1.62517e-19)
(1.23665 -0.0832395 -3.71023e-18)
(1.27572 -0.11474 9.02968e-19)
(1.20739 -0.291827 6.39622e-18)
(0.751005 -0.20843 9.66048e-18)
(1.14686 0.0325762 2.43291e-18)
(1.16245 0.0386379 5.93761e-18)
(1.17003 0.0261687 3.15936e-18)
(1.18913 0.0303182 -1.10429e-18)
(1.19821 -0.00334048 2.25029e-18)
(1.22502 -0.00801391 -2.02834e-19)
(1.23455 -0.0875744 -2.97868e-18)
(1.27027 -0.122475 9.90703e-19)
(1.19586 -0.300845 6.15672e-18)
(0.726704 -0.214681 8.25039e-18)
(1.14701 0.0321832 2.48791e-18)
(1.16238 0.0381266 5.76548e-18)
(1.16994 0.0255007 3.05838e-18)
(1.18865 0.0292627 -9.93816e-19)
(1.19757 -0.00493073 1.30746e-18)
(1.22346 -0.0106977 -3.71423e-20)
(1.23231 -0.0918884 -1.18854e-18)
(1.26461 -0.130189 1.02212e-18)
(1.18414 -0.309798 5.31397e-18)
(0.703573 -0.220656 6.57408e-18)
(1.14716 0.0318373 2.70333e-18)
(1.1623 0.0376652 5.70167e-18)
(1.16984 0.0248919 2.97489e-18)
(1.18815 0.0282736 -1.12012e-18)
(1.19689 -0.0064311 1.37919e-18)
(1.22183 -0.0132818 5.10341e-19)
(1.22991 -0.0960762 -7.94903e-19)
(1.25874 -0.137748 1.76276e-18)
(1.17226 -0.318492 4.53396e-18)
(0.681564 -0.226045 3.51484e-18)
(1.1473 0.031602 3.35215e-18)
(1.16221 0.0373234 5.80024e-18)
(1.16972 0.0244267 2.91137e-18)
(1.18761 0.0274565 -1.73393e-18)
(1.19615 -0.00768827 1.34304e-18)
(1.22011 -0.0155598 2.39139e-18)
(1.22728 -0.099803 3.95794e-19)
(1.25248 -0.144679 4.49806e-18)
(1.15974 -0.326242 1.00954e-18)
(0.659579 -0.230228 -4.15054e-18)
(1.14743 0.0316378 3.81596e-18)
(1.16212 0.0372808 6.33531e-18)
(1.16957 0.0243279 2.92675e-18)
(1.18705 0.0270993 -7.14416e-19)
(1.19534 -0.00826754 1.44283e-18)
(1.21827 -0.0169095 3.62058e-18)
(1.22435 -0.101999 -1.04863e-18)
(1.2456 -0.149333 4.49922e-18)
(1.14601 -0.330728 7.52765e-19)
(0.637672 -0.232 -5.58808e-18)
(1.14409 0.0401487 2.94479e-18)
(1.16277 0.0480152 6.55126e-18)
(1.17023 0.0384521 9.32864e-19)
(1.19442 0.04796 2.29409e-18)
(1.20454 0.0233277 8.05606e-19)
(1.24273 0.0328924 -9.44802e-19)
(1.25533 -0.0225124 -3.54792e-18)
(1.33387 -0.0121087 -9.32656e-18)
(1.3263 -0.155263 -1.10515e-17)
(1.10111 -0.0961882 9.73294e-18)
(1.14431 0.0395828 3.54312e-18)
(1.16281 0.0473282 6.29098e-18)
(1.17029 0.0375442 7.27618e-19)
(1.19421 0.0467302 2.07858e-18)
(1.20433 0.0214441 1.02515e-18)
(1.24192 0.0302043 -2.88024e-18)
(1.25468 -0.0268573 -3.24122e-18)
(1.33091 -0.0189982 -8.54525e-18)
(1.32002 -0.165892 -1.02773e-17)
(1.07231 -0.105789 1.94778e-17)
(1.14452 0.0390211 3.86047e-18)
(1.16284 0.0466455 6.13494e-18)
(1.17036 0.0366423 2.8566e-20)
(1.19399 0.0455023 1.82568e-18)
(1.20412 0.0195655 1.8834e-18)
(1.24109 0.0275031 -3.1945e-18)
(1.25403 -0.0312113 -1.80487e-18)
(1.3279 -0.0259655 -4.87911e-18)
(1.31371 -0.176278 -9.44313e-18)
(1.04417 -0.115109 2.50325e-17)
(1.14472 0.0384637 3.45851e-18)
(1.16285 0.0459672 5.93562e-18)
(1.1704 0.0357467 1.10137e-19)
(1.19373 0.0442769 1.02911e-18)
(1.20385 0.0176928 1.34765e-18)
(1.24017 0.0247912 -5.12763e-18)
(1.25322 -0.0355722 -3.65451e-18)
(1.32462 -0.0330023 -4.84663e-18)
(1.30701 -0.186491 -5.00399e-18)
(1.01829 -0.124222 2.15289e-17)
(1.14492 0.037911 3.88662e-18)
(1.16286 0.0452939 5.76265e-18)
(1.17043 0.034858 3.50509e-19)
(1.19345 0.0430551 1.93976e-18)
(1.20353 0.0158276 3.52891e-19)
(1.23917 0.0220715 -6.27854e-18)
(1.25224 -0.0399364 -3.67397e-18)
(1.32107 -0.0400988 -4.59369e-18)
(1.29991 -0.19658 -3.94363e-18)
(0.993845 -0.133183 1.32086e-17)
(1.14512 0.037363 3.69573e-18)
(1.16286 0.0446258 5.56593e-18)
(1.17043 0.0339766 1.13205e-18)
(1.19313 0.0418376 1.86583e-18)
(1.20317 0.0139709 1.77835e-19)
(1.2381 0.0193465 -4.46761e-18)
(1.25112 -0.0443015 -4.44671e-18)
(1.3173 -0.0472472 -4.66113e-18)
(1.29251 -0.206576 1.74802e-19)
(0.970356 -0.142016 9.12986e-18)
(1.14531 0.03682 3.45508e-18)
(1.16284 0.0439631 5.4683e-18)
(1.17043 0.0331032 1.34605e-18)
(1.19279 0.0406249 1.41926e-18)
(1.20276 0.0121236 2.62467e-19)
(1.23695 0.0166177 -4.40458e-18)
(1.24986 -0.0486654 -6.47495e-18)
(1.3133 -0.0544419 -4.07924e-18)
(1.28484 -0.216497 -2.57366e-19)
(0.947795 -0.150729 2.46165e-18)
(1.1455 0.0362823 2.94572e-18)
(1.16282 0.043306 5.26747e-18)
(1.1704 0.0322381 2.30331e-18)
(1.19242 0.039417 4.63891e-19)
(1.20231 0.0102867 5.12893e-19)
(1.23573 0.0138856 -3.86242e-18)
(1.24846 -0.0530262 -7.78145e-18)
(1.30909 -0.0616789 -3.71407e-18)
(1.27692 -0.22636 1.4667e-19)
(0.926239 -0.159301 4.1891e-18)
(1.14569 0.0357504 2.96775e-18)
(1.16279 0.0426544 5.34903e-18)
(1.17036 0.0313821 2.8856e-18)
(1.19202 0.0382122 3.67552e-19)
(1.20181 0.00846068 1.50288e-18)
(1.23444 0.0111464 -1.71982e-18)
(1.2469 -0.0573823 -7.33897e-18)
(1.30467 -0.0689594 -2.76194e-18)
(1.26887 -0.236153 3.64461e-19)
(0.906245 -0.167642 7.25597e-18)
(1.14587 0.0352252 3.2439e-18)
(1.16275 0.042007 6.04047e-18)
(1.1703 0.0305369 2.92546e-18)
(1.19159 0.0370036 4.27601e-19)
(1.20125 0.00664491 1.48592e-18)
(1.23305 0.00838055 -1.45475e-19)
(1.24517 -0.0617348 -6.98052e-18)
(1.30006 -0.0763124 4.86922e-19)
(1.26108 -0.245806 1.26191e-18)
(0.888098 -0.175504 1.41995e-17)
(1.14174 0.0464735 3.43549e-18)
(1.16188 0.0556158 2.72486e-18)
(1.16918 0.0486713 7.94776e-19)
(1.19552 0.0610122 3.16246e-18)
(1.20588 0.0438257 -8.40261e-19)
(1.24864 0.0597237 -1.05063e-18)
(1.25926 0.0234052 4.23365e-18)
(1.35501 0.0515033 -1.93561e-17)
(1.36512 -0.040279 -2.46949e-17)
(1.29905 0.0167802 1.69701e-17)
(1.14199 0.0458298 3.35234e-18)
(1.16203 0.0548388 2.15341e-18)
(1.16935 0.0476221 6.78451e-19)
(1.19554 0.0596982 3.15807e-18)
(1.2059 0.0417439 -7.37658e-19)
(1.24836 0.0571005 -2.82597e-18)
(1.25927 0.0187715 2.10614e-18)
(1.35389 0.0455256 -1.56798e-17)
(1.36238 -0.0525867 -2.33073e-17)
(1.27533 0.00447813 2.67614e-17)
(1.14224 0.0451869 3.19265e-18)
(1.16216 0.054064 2.86447e-18)
(1.16952 0.0465761 4.09609e-19)
(1.19555 0.0583841 3.11488e-18)
(1.20593 0.0396639 -7.66754e-19)
(1.24807 0.0544601 -2.58256e-18)
(1.25934 0.0141348 1.52574e-18)
(1.35269 0.0394505 -1.62641e-17)
(1.35978 -0.0645818 -2.21351e-17)
(1.2516 -0.0075096 3.25004e-17)
(1.14249 0.0445454 3.05057e-18)
(1.16228 0.0532919 2.95115e-18)
(1.16967 0.045534 -3.17567e-19)
(1.19552 0.0570705 3.26813e-18)
(1.20592 0.0375871 -8.621e-19)
(1.24769 0.0518044 -2.15266e-18)
(1.25929 0.00949853 1.18852e-18)
(1.35123 0.0332856 -1.67298e-17)
(1.35684 -0.0763395 -2.05306e-17)
(1.23002 -0.0192495 3.14089e-17)
(1.14273 0.0439055 2.89461e-18)
(1.16239 0.0525229 3.77595e-18)
(1.1698 0.0444964 -5.27316e-19)
(1.19546 0.0557586 4.13444e-18)
(1.20585 0.0355151 -8.32796e-19)
(1.24722 0.0491363 -4.42952e-19)
(1.25909 0.00486793 -1.00922e-18)
(1.34948 0.0270426 -1.93112e-17)
(1.3535 -0.0879249 -1.85524e-17)
(1.20992 -0.0308039 2.91717e-17)
(1.14297 0.0432674 2.50306e-18)
(1.16248 0.0517574 4.51582e-18)
(1.16991 0.043464 -9.95041e-19)
(1.19536 0.0544491 2.79707e-18)
(1.20574 0.0334496 -6.99839e-19)
(1.24666 0.0464582 -1.07783e-18)
(1.25876 0.00024715 -1.02772e-18)
(1.34748 0.0207312 -1.827e-17)
(1.34984 -0.0993734 -1.41146e-17)
(1.19073 -0.0422034 2.10526e-17)
(1.14321 0.0426316 3.01253e-18)
(1.16256 0.0509957 4.73091e-18)
(1.17001 0.0424374 -1.66518e-19)
(1.19523 0.0531428 2.79641e-18)
(1.20559 0.0313919 -3.34311e-19)
(1.24603 0.043772 -2.67684e-18)
(1.25833 -0.00436012 -1.27499e-18)
(1.34525 0.0143588 -1.35938e-17)
(1.3459 -0.110712 -1.39342e-17)
(1.17237 -0.0534667 1.84683e-17)
(1.14344 0.0419984 3.09579e-18)
(1.16263 0.0502382 5.52384e-18)
(1.17009 0.0414173 -8.87164e-20)
(1.19508 0.0518399 2.6939e-18)
(1.2054 0.0293435 8.22046e-19)
(1.24533 0.041079 -2.08041e-18)
(1.25778 -0.00894991 -1.58661e-18)
(1.34278 0.00793054 -1.09093e-17)
(1.34171 -0.121963 -1.37893e-17)
(1.15492 -0.064601 1.75679e-17)
(1.14366 0.0413684 3.40873e-18)
(1.16269 0.049485 6.29001e-18)
(1.17015 0.0404048 1.98802e-19)
(1.19488 0.0505401 2.62725e-18)
(1.20515 0.0273063 1.16412e-18)
(1.24453 0.0383777 -6.26998e-19)
(1.2571 -0.0135168 -3.2554e-18)
(1.34009 0.00144527 -1.30733e-17)
(1.33735 -0.13314 -1.68361e-17)
(1.13881 -0.0755739 1.71751e-17)
(1.14388 0.0407427 2.83149e-18)
(1.16273 0.0487355 6.81848e-18)
(1.17019 0.0394027 9.5678e-19)
(1.19465 0.0492395 2.37591e-18)
(1.20485 0.0252837 2.00133e-18)
(1.24364 0.035656 -2.1893e-18)
(1.25624 -0.0180493 -1.76729e-18)
(1.33712 -0.00513201 -9.618e-18)
(1.33291 -0.144217 -1.57555e-17)
(1.12402 -0.0862239 1.52201e-17)
(1.13897 0.0531503 4.07116e-18)
(1.15979 0.0637611 7.1561e-18)
(1.16694 0.0598424 2.53982e-18)
(1.19405 0.0745646 4.61769e-18)
(1.20471 0.0656139 -1.04265e-18)
(1.24832 0.0856865 -2.39037e-18)
(1.25745 0.0715005 6.70408e-18)
(1.35618 0.106346 -1.24816e-17)
(1.37274 0.0881983 -1.585e-17)
(1.4263 0.148661 -4.33495e-18)
(1.13927 0.0524914 4.195e-18)
(1.16006 0.0629426 6.02422e-18)
(1.16724 0.0587175 3.01453e-18)
(1.19433 0.0732086 3.84801e-18)
(1.20497 0.063439 -9.17012e-19)
(1.24868 0.0831439 1.14997e-20)
(1.25793 0.0667302 8.31482e-18)
(1.35712 0.101237 -1.26843e-17)
(1.37297 0.0747795 -1.9079e-17)
(1.41034 0.134916 -3.20664e-18)
(1.13957 0.0518291 4.58436e-18)
(1.16033 0.0621236 5.06037e-18)
(1.16753 0.0575916 2.28697e-18)
(1.1946 0.0718508 5.70414e-18)
(1.20525 0.061257 -8.70917e-19)
(1.24904 0.0805862 1.87359e-18)
(1.25848 0.0619317 9.57362e-18)
(1.35803 0.0960307 -1.32893e-17)
(1.3734 0.0616345 -1.95487e-17)
(1.39391 0.121399 5.34644e-18)
(1.13986 0.0511637 4.37213e-18)
(1.16057 0.0613044 4.81156e-18)
(1.1678 0.0564652 2.19358e-18)
(1.19484 0.0704916 4.69469e-18)
(1.20548 0.0590695 -5.21989e-19)
(1.2493 0.0780141 1.68415e-18)
(1.25895 0.0571108 7.17276e-18)
(1.35864 0.0907324 -1.6185e-17)
(1.37358 0.048686 -2.29348e-17)
(1.37952 0.108049 6.96254e-18)
(1.14014 0.0504957 4.20317e-18)
(1.1608 0.0604856 4.39571e-18)
(1.16805 0.0553392 2.12167e-18)
(1.19504 0.0691321 5.36257e-18)
(1.20567 0.0568786 2.28114e-19)
(1.24947 0.0754299 1.18757e-18)
(1.2593 0.0522748 6.89916e-18)
(1.35893 0.0853521 -1.70314e-17)
(1.37339 0.0358597 -2.32906e-17)
(1.36663 0.0948031 1.36904e-17)
(1.14042 0.0498254 4.08869e-18)
(1.16102 0.0596676 3.55787e-18)
(1.16829 0.0542142 1.82923e-18)
(1.19521 0.067773 4.10405e-18)
(1.20581 0.0546863 -8.9246e-19)
(1.24954 0.0728356 -8.13557e-19)
(1.25955 0.0474302 6.98138e-18)
(1.35894 0.0798991 -2.34482e-17)
(1.3729 0.0231141 -2.95522e-17)
(1.35462 0.0816278 1.39859e-17)
(1.14069 0.0491532 3.98526e-18)
(1.16122 0.0588508 3.61211e-18)
(1.1685 0.053091 9.06319e-19)
(1.19534 0.0664151 3.83299e-18)
(1.20591 0.0524942 -8.17997e-19)
(1.24954 0.0702328 -6.9642e-19)
(1.25971 0.0425825 7.04108e-18)
(1.3587 0.0743809 -2.27617e-17)
(1.37213 0.0104191 -2.83946e-17)
(1.34337 0.0685021 1.59956e-17)
(1.14096 0.0484795 3.78902e-18)
(1.16141 0.0580356 3.34162e-18)
(1.1687 0.0519703 2.95326e-19)
(1.19543 0.065059 3.77213e-18)
(1.20597 0.0503043 -8.48243e-19)
(1.24945 0.0676226 -4.86746e-19)
(1.25977 0.0377377 8.68103e-18)
(1.3582 0.068804 -2.23104e-17)
(1.37111 -0.00225424 -2.3652e-17)
(1.33298 0.0554078 2.41404e-17)
(1.14123 0.047805 3.67099e-18)
(1.16158 0.0572222 3.24551e-18)
(1.16888 0.0508536 1.01797e-18)
(1.19549 0.0637047 3.57703e-18)
(1.20599 0.0481193 -8.24069e-19)
(1.24927 0.0650049 -3.8463e-19)
(1.25974 0.0329043 7.60799e-18)
(1.35744 0.0631701 -2.12568e-17)
(1.36989 -0.0149314 -2.66133e-17)
(1.32379 0.0423417 2.30547e-17)
(1.14149 0.0471309 3.57583e-18)
(1.16173 0.0564108 3.10032e-18)
(1.16903 0.0497441 9.94148e-19)
(1.19551 0.0623512 3.37967e-18)
(1.20594 0.0459451 -8.7553e-19)
(1.24898 0.0623742 -5.98439e-19)
(1.25953 0.0281011 5.2668e-18)
(1.35634 0.0574563 -2.01063e-17)
(1.36837 -0.0276197 -2.54433e-17)
(1.31554 0.0293735 1.55423e-17)
(1.13578 0.0595174 5.78403e-18)
(1.15644 0.0719079 5.34345e-18)
(1.16347 0.071212 4.54156e-18)
(1.19012 0.0881595 1.87502e-18)
(1.20104 0.0873519 4.763e-19)
(1.24189 0.110888 3.66624e-18)
(1.25094 0.118485 -6.56337e-18)
(1.33706 0.154545 -7.86223e-18)
(1.3536 0.219154 -2.10551e-17)
(1.46456 0.282653 4.70153e-18)
(1.13613 0.0589083 6.02626e-18)
(1.15684 0.0711032 5.12678e-18)
(1.16389 0.0700865 4.68177e-18)
(1.19064 0.0868081 1.95675e-18)
(1.20155 0.0852249 3.52365e-19)
(1.24286 0.108401 3.56979e-18)
(1.25182 0.114001 -6.43602e-18)
(1.34011 0.150024 -8.35128e-18)
(1.35628 0.206212 -2.03416e-17)
(1.45779 0.269477 1.14513e-17)
(1.13647 0.0582919 5.41587e-18)
(1.15723 0.0702952 4.87299e-18)
(1.16431 0.0689563 4.72755e-18)
(1.19115 0.0854529 2.30637e-18)
(1.20207 0.0830818 -6.09095e-19)
(1.24381 0.105902 3.32631e-18)
(1.25279 0.109448 -6.16339e-18)
(1.34308 0.14542 -8.59756e-18)
(1.35922 0.193384 -2.26975e-17)
(1.45039 0.256367 1.59359e-18)
(1.1368 0.0576686 5.72337e-18)
(1.15761 0.0694842 4.49413e-18)
(1.1647 0.0678217 5.37032e-18)
(1.19164 0.0840943 3.82615e-18)
(1.20255 0.0809239 5.42454e-19)
(1.24468 0.103393 2.79621e-18)
(1.25367 0.104832 -5.59294e-18)
(1.34577 0.140736 -1.2231e-17)
(1.36194 0.180591 -2.14699e-17)
(1.44503 0.243263 -6.88859e-18)
(1.13713 0.0570387 5.37655e-18)
(1.15797 0.0686707 5.7309e-18)
(1.16508 0.0666835 5.01416e-18)
(1.19208 0.0827334 5.65337e-18)
(1.20298 0.0787531 2.68954e-19)
(1.24546 0.100876 3.88671e-19)
(1.25445 0.10016 -3.66613e-18)
(1.34815 0.13598 -1.57828e-17)
(1.36435 0.167758 -1.77375e-17)
(1.44115 0.230098 -7.71519e-18)
(1.13745 0.0564027 4.69782e-18)
(1.15831 0.0678551 5.6523e-18)
(1.16544 0.0655423 4.08274e-18)
(1.19249 0.081371 4.42838e-18)
(1.20337 0.0765715 -8.39148e-19)
(1.24616 0.0983526 -1.5235e-18)
(1.25515 0.0954398 -2.84147e-18)
(1.35025 0.131159 -1.83801e-17)
(1.3665 0.154844 -1.62285e-17)
(1.4381 0.216842 -1.4609e-17)
(1.13777 0.0557608 4.64926e-18)
(1.15863 0.0670377 5.69888e-18)
(1.16577 0.0643987 3.98326e-18)
(1.19287 0.0800078 4.65251e-18)
(1.20372 0.0743806 -5.70362e-19)
(1.24677 0.095824 -1.98558e-18)
(1.25578 0.0906784 -7.06777e-19)
(1.35206 0.126281 -1.51375e-17)
(1.36843 0.14182 -1.23384e-17)
(1.43576 0.203475 -1.27479e-17)
(1.13808 0.0551135 4.96529e-18)
(1.15895 0.066219 6.34503e-18)
(1.1661 0.0632535 3.71338e-18)
(1.19321 0.0786443 5.89376e-18)
(1.20404 0.0721826 3.75033e-19)