/*--------------------------------*- C++ -*----------------------------------*\
  =========                 |
  \\      /  F ield         | OpenFOAM: The Open Source CFD Toolbox
   \\    /   O peration     | Website:  https://openfoam.org
    \\  /    A nd           | Version:  7
     \\/     M anipulation  |
\*---------------------------------------------------------------------------*/
FoamFile
{
    version     2.0;
    format      ascii;
    class       volVectorField;
    location    "22";
    object      U;
}
// * * * * * * * * * * * * * * * * * * * * * * * * * * * * * * * * * * * * * //

dimensions      [0 1 -1 0 0 0 0];

internalField   nonuniform List<vector> 
250
(
(1.06382 -0.398123 8.8136e-17)
(1.03527 -0.429382 -1.0881e-16)
(0.998711 -0.458269 5.77085e-17)
(0.955096 -0.497398 -5.14027e-17)
(0.90136 -0.523104 -8.468e-17)
(0.833451 -0.566585 4.92009e-17)
(0.745241 -0.565367 -8.95326e-17)
(0.575677 -0.528813 -6.34421e-17)
(0.236507 -0.230465 5.16613e-18)
(1.06627 -0.366627 -2.53943e-17)
(1.03861 -0.391655 9.5468e-17)
(1.00596 -0.420429 -8.06732e-17)
(0.964254 -0.447205 -9.41497e-18)
(0.916456 -0.481814 2.66261e-17)
(0.857073 -0.504046 -2.09496e-17)
(0.78737 -0.546986 7.3439e-17)
(0.706961 -0.542488 2.47087e-17)
(0.544951 -0.521017 -9.17935e-17)
(0.246076 -0.235358 1.76096e-17)
(1.04537 -0.359553 -4.46459e-17)
(1.01422 -0.383088 5.21539e-17)
(0.977425 -0.408819 -5.81748e-17)
(0.930523 -0.433036 3.29101e-17)
(0.877922 -0.460913 -1.08792e-16)
(0.810156 -0.479139 -5.76494e-17)
(0.738954 -0.508473 9.15271e-17)
(0.645451 -0.500952 1.31358e-17)
(0.50443 -0.48523 2.97831e-17)
(0.229355 -0.224375 7.40132e-17)
(1.02453 -0.350501 -4.59132e-17)
(0.990621 -0.371815 1.02527e-16)
(0.950831 -0.393964 -1.06319e-16)
(0.901552 -0.414287 3.89196e-17)
(0.84702 -0.435696 -1.0147e-16)
(0.778463 -0.448264 -4.69444e-17)
(0.708549 -0.469472 1.324e-16)
(0.618584 -0.45782 2.07722e-17)
(0.495418 -0.450972 2.3083e-17)
(0.245624 -0.220095 1.49335e-16)
(1.00272 -0.339934 3.31981e-17)
(0.965182 -0.358879 1.34557e-16)
(0.920915 -0.377634 -5.3568e-17)
(0.866277 -0.394625 -3.7028e-17)
(0.805618 -0.409491 -1.72801e-16)
(0.729062 -0.41821 -4.89888e-17)
(0.653368 -0.426863 1.95529e-16)
(0.54771 -0.413018 1.98957e-17)
(0.431274 -0.398078 5.66615e-18)
(0.19217 -0.196063 2.38749e-17)
(0.999107 -0.287556 -2.11483e-17)
(0.968627 -0.299039 -4.15003e-17)
(0.93295 -0.308057 -4.77955e-17)
(0.891596 -0.312969 4.64551e-17)
(0.842614 -0.312691 4.32733e-17)
(0.786581 -0.305497 6.55034e-17)
(0.72277 -0.290333 -1.76562e-17)
(0.653933 -0.264281 -6.20316e-17)
(0.57611 -0.22749 -5.28598e-19)
(0.509805 -0.169939 1.05217e-17)
(0.391114 -0.084145 3.70009e-17)
(0.969491 -0.209454 -4.82571e-18)
(0.947015 -0.213094 5.88011e-19)
(0.923092 -0.214225 -1.93967e-17)
(0.897872 -0.211658 2.78089e-18)
(0.870916 -0.204104 1.83711e-17)
(0.842345 -0.189797 -5.43717e-18)
(0.812735 -0.168502 5.34434e-18)
(0.783495 -0.134211 -5.39978e-18)
(0.758305 -0.0949534 5.51008e-18)
(0.747641 -0.0359695 1.46265e-17)
(0.948963 -0.152192 -4.9539e-17)
(0.926377 -0.148856 -1.92393e-17)
(0.902524 -0.143059 -2.99041e-17)
(0.877955 -0.134633 2.34844e-17)
(0.853642 -0.123268 1.2429e-16)
(0.830503 -0.108913 -3.45629e-17)
(0.809454 -0.0906444 -2.04989e-17)
(0.790702 -0.0693259 -3.56103e-17)
(0.776165 -0.0431053 2.27304e-17)
(0.762097 -0.0147238 1.99691e-16)
(0.975828 -0.111479 -1.38654e-16)
(0.96556 -0.109345 -2.31664e-17)
(0.955298 -0.105265 -1.35776e-16)
(0.944983 -0.0989449 -2.67527e-17)
(0.934581 -0.0902123 -1.55419e-16)
(0.924366 -0.0788577 -1.49216e-16)
(0.914827 -0.0651701 -2.44291e-17)
(0.90711 -0.0488208 -1.47735e-16)
(0.901881 -0.0308864 -2.59707e-17)
(0.900789 -0.01076 -1.48402e-16)
(0.960819 -0.0763487 1.05538e-16)
(0.94849 -0.072764 5.7724e-17)
(0.936317 -0.0680807 1.18001e-16)
(0.924729 -0.0623025 9.0757e-17)
(0.91416 -0.0553904 2.93748e-16)
(0.904893 -0.0473825 1.43666e-16)
(0.897099 -0.0381853 6.07984e-17)
(0.890644 -0.0280671 1.17631e-16)
(0.885717 -0.0170064 8.28561e-17)
(0.882268 -0.00563442 2.9139e-16)
(0.988172 -0.0587857 1.74122e-16)
(0.983728 -0.0565032 5.35004e-17)
(0.979403 -0.0531922 1.86181e-16)
(0.975143 -0.0488266 3.2916e-17)
(0.970958 -0.0434418 1.48268e-16)
(0.967001 -0.0370897 2.04596e-16)
(0.963526 -0.029923 5.81379e-17)
(0.960931 -0.0220076 1.96391e-16)
(0.9594 -0.0135554 3.51984e-17)
(0.959006 -0.00461053 1.11171e-16)
(0.974246 -0.0385026 1.29704e-16)
(0.967552 -0.0362288 3.08489e-17)
(0.961182 -0.0334668 1.27808e-16)
(0.955354 -0.0302342 2.21194e-17)
(0.950237 -0.0265384 3.45146e-17)
(0.945903 -0.0224047 1.32091e-16)
(0.942341 -0.0178508 3.14871e-17)
(0.939464 -0.0129663 1.33451e-16)
(0.937303 -0.00783054 2.50333e-17)
(0.935999 -0.00260497 3.72692e-17)
(0.996162 -0.0312711 1.64963e-17)
(0.994376 -0.0297635 1.22453e-17)
(0.992649 -0.0277298 2.27648e-17)
(0.990941 -0.0251894 2.592e-17)
(0.989259 -0.0221849 1.52191e-16)
(0.98768 -0.0187695 3.69424e-17)
(0.986331 -0.0150133 1.37112e-17)
(0.985361 -0.0109694 2.20492e-17)
(0.984823 -0.00670191 2.61881e-17)
(0.984656 -0.0022607 1.66683e-16)
(0.983704 -0.0194012 1.67658e-16)
(0.979972 -0.0181343 5.00233e-17)
(0.976486 -0.0166457 1.67586e-16)
(0.973356 -0.0149461 9.02135e-18)
(0.970654 -0.0130433 -4.54163e-17)
(0.968395 -0.01095 1.55014e-16)
(0.966551 -0.00868408 4.81723e-17)
(0.965083 -0.00628308 1.65805e-16)
(0.964002 -0.003792 8.87662e-18)
(0.963396 -0.00126476 -7.13771e-17)
(1.00023 -0.0168405 -2.48004e-18)
(0.999654 -0.0159605 1.21403e-18)
(0.999089 -0.0148034 5.48505e-18)
(0.998506 -0.0133878 -5.40247e-18)
(0.997907 -0.0117418 -9.92718e-17)
(0.99733 -0.00989792 -1.08143e-18)
(0.996841 -0.00789063 3.56853e-18)
(0.996499 -0.00574898 6.29828e-18)
(0.996321 -0.00350112 -4.97138e-18)
(0.996265 -0.00117721 -8.43602e-17)
(0.989681 -0.00965552 1.53017e-16)
(0.987542 -0.00898802 4.4292e-17)
(0.985561 -0.00821987 1.58907e-16)
(0.983799 -0.00735606 4.16858e-17)
(0.982288 -0.00640032 1.62042e-16)
(0.981031 -0.00535836 1.74856e-16)
(0.980009 -0.00424017 4.67585e-17)
(0.979204 -0.00306296 1.6254e-16)
(0.978624 -0.00184817 3.21953e-17)
(0.97831 -0.000617053 1.17609e-16)
(1.00196 -0.00918567 -5.78498e-18)
(1.00192 -0.00869366 -1.14546e-17)
(1.00187 -0.0080506 -3.35176e-17)
(1.00179 -0.00726886 -3.99087e-17)
(1.00167 -0.00636519 -1.9922e-16)
(1.00153 -0.0053581 -5.86085e-17)
(1.00142 -0.00426572 -1.80237e-17)
(1.00134 -0.00310383 -3.52065e-17)
(1.00131 -0.00188741 -4.19298e-17)
(1.00131 -0.000633757 -2.03885e-16)
(0.993369 -0.00466066 7.57768e-17)
(0.992115 -0.00432318 3.00536e-17)
(0.990959 -0.00394206 6.11948e-17)
(0.989933 -0.00351916 3.06898e-17)
(0.989057 -0.00305565 6.95996e-17)
(0.988329 -0.00255371 7.28871e-17)
(0.98774 -0.002018 3.02844e-17)
(0.98728 -0.00145638 5.96678e-17)
(0.986955 -0.000878557 2.39088e-17)
(0.986783 -0.000293417 2.95115e-17)
(1.00247 -0.00505965 1.30416e-16)
(1.00266 -0.00478993 1.57044e-17)
(1.00282 -0.0044356 1.31605e-16)
(1.00295 -0.00400421 -2.76048e-18)
(1.00303 -0.00350547 -2.73208e-18)
(1.00309 -0.00294988 1.29573e-16)
(1.00313 -0.00234745 1.3552e-17)
(1.00316 -0.00170706 1.30026e-16)
(1.0032 -0.00103729 -2.41858e-18)
(1.00322 -0.000348088 -1.06522e-17)
(0.995654 -0.00209075 -6.43819e-17)
(0.994906 -0.00193054 -6.02168e-17)
(0.994218 -0.00175395 -4.49709e-17)
(0.993608 -0.00156139 -4.94059e-17)
(0.993087 -0.00135279 -1.43184e-17)
(0.992655 -0.0011286 -3.5873e-17)
(0.992307 -0.000890589 -5.87698e-17)
(0.992037 -0.00064206 -4.69826e-17)
(0.991849 -0.000387095 -5.23961e-17)
(0.991751 -0.000129261 -1.65567e-17)
(1.00241 -0.00278313 4.34828e-17)
(1.00267 -0.00263857 -1.22143e-16)
(1.0029 -0.00244597 1.85288e-17)
(1.0031 -0.00220976 -1.37039e-16)
(1.00326 -0.00193553 -5.09773e-19)
(1.00338 -0.00162927 3.41546e-17)
(1.00348 -0.00129664 -1.26281e-16)
(1.00356 -0.000942776 1.80875e-17)
(1.00362 -0.000572702 -1.40358e-16)
(1.00365 -0.00019213 -1.69102e-17)
(0.997075 -0.000752792 1.62113e-16)
(0.996623 -0.000687308 3.48342e-17)
(0.996205 -0.000618815 1.52753e-16)
(0.995836 -0.000547111 2.1214e-17)
(0.99552 -0.000471574 3.03351e-17)
(0.995258 -0.000391817 1.40477e-16)
(0.995048 -0.000308107 2.76782e-17)
(0.994887 -0.000221452 1.49383e-16)
(0.994776 -0.0001332 1.71805e-17)
(0.994718 -4.4422e-05 7.82782e-18)
(1.0021 -0.00145693 -4.15026e-17)
(1.00236 -0.00138513 -1.51732e-16)
(1.00259 -0.00128679 -2.87133e-17)
(1.00279 -0.00116442 -1.41236e-16)
(1.00296 -0.00102115 1.135e-17)
(1.0031 -0.000860293 -6.09088e-17)
(1.00322 -0.000685007 -1.62844e-16)
(1.0033 -0.000498172 -3.21706e-17)
(1.00336 -0.000302625 -1.44778e-16)
(1.00339 -0.000101519 8.35023e-18)
(0.998011 6.67656e-06 1.81571e-16)
(0.997729 1.8422e-05 9.03754e-17)
(0.997468 2.55835e-05 1.80033e-16)
(0.997237 2.86755e-05 7.91233e-17)
(0.997038 2.86768e-05 1.54072e-16)
(0.996874 2.64629e-05 9.48976e-18)
(0.996742 2.26482e-05 6.30874e-17)
(0.996642 1.7493e-05 1.77596e-16)
(0.996574 1.11271e-05 8.00808e-17)
(0.996538 3.82893e-06 1.31927e-16)
(1.00166 -0.00058301 -4.30987e-17)
(1.00187 -0.000557002 -3.1227e-17)
(1.00206 -0.000519387 -4.46422e-17)
(1.00223 -0.000471243 -3.00592e-17)
(1.00238 -0.000414026 -5.16334e-17)
(1.0025 -0.000349255 -1.34514e-16)
(1.0026 -0.000278343 -3.49743e-17)
(1.00268 -0.000202548 -4.58811e-17)
(1.00273 -0.000123089 -2.82708e-17)
(1.00275 -4.12986e-05 -4.32872e-17)
)
;

boundaryField
{
    inlet
    {
        type            uniformFixedValue;
        uniformValue    constant (1 0 0);
        value           uniform (1 0 0);
    }
    outlet
    {
        type            pressureInletOutletVelocity;
        value           nonuniform 0();
    }
    polygon
    {
        type            fixedValue;
        value           uniform (0 0 0);
    }
    top
    {
        type            symmetryPlane;
    }
    bottom
    {
        type            symmetryPlane;
    }
    outside
    {
        type            zeroGradient;
    }
    procBoundary4to0
    {
        type            processor;
        value           nonuniform List<vector> 
28
(
(1.08773 -0.372095 -3.2654e-17)
(1.08773 -0.372095 -3.2654e-17)
(1.08849 -0.342643 2.87429e-17)
(1.07039 -0.336843 -6.61682e-17)
(1.05207 -0.329495 -4.85848e-17)
(1.03339 -0.320828 9.55584e-18)
(1.03339 -0.320828 9.55584e-18)
(1.02565 -0.274514 -1.29381e-16)
(0.990644 -0.203953 -1.80659e-17)
(0.990644 -0.203953 -1.80659e-17)
(0.969908 -0.15333 -7.23521e-17)
(0.986173 -0.111943 -1.79327e-16)
(0.972926 -0.0788451 2.87701e-17)
(0.992811 -0.0600936 -1.19228e-16)
(0.981035 -0.0402696 4.57557e-17)
(0.998068 -0.0322523 -1.87796e-17)
(0.987552 -0.0204326 3.24147e-17)
(1.00086 -0.017435 -4.08814e-17)
(0.991902 -0.0102149 -9.24548e-17)
(1.00201 -0.00951985 8.22112e-17)
(0.994675 -0.0049509 1.77653e-16)
(1.00229 -0.0052404 7.10537e-17)
(0.996432 -0.00223299 -2.07521e-16)
(1.00215 -0.00287709 -4.33967e-17)
(0.997545 -0.000814739 1.46836e-16)
(1.00184 -0.00150091 -1.83252e-16)
(0.998303 -9.79349e-06 7.85399e-17)
(1.00145 -0.000596792 -2.2924e-17)
)
;
    }
    procBoundary4to5
    {
        type            processor;
        value           nonuniform List<vector> 9((1.09014 -0.400997 3.6779e-18) (1.06563 -0.434096 -8.55981e-17) (1.03594 -0.464307 1.8941e-17) (0.995752 -0.509219 -3.6716e-17) (0.953796 -0.540861 -1.32309e-16) (0.885268 -0.604492 1.94647e-17) (0.824623 -0.614621 -6.66677e-17) (0.622473 -0.588959 -4.00542e-17) (0.279414 -0.255544 -1.13928e-18));
    }
    procBoundary4to8
    {
        type            processor;
        value           nonuniform List<vector> 
20
(
(0.391114 0.084145 2.1007e-16)
(0.747641 0.0359695 -1.79382e-16)
(0.762097 0.0147238 2.75864e-16)
(0.900789 0.01076 -2.37358e-18)
(0.882268 0.00563442 2.1623e-16)
(0.959006 0.00461053 -1.986e-17)
(0.935999 0.00260497 6.75779e-17)
(0.984656 0.0022607 1.7204e-16)
(0.963396 0.00126476 -1.53267e-17)
(0.996265 0.00117721 1.37369e-16)
(0.97831 0.000617053 -4.90663e-17)
(1.00131 0.000633757 -7.91852e-17)
(0.986783 0.000293417 -1.57319e-16)
(1.00322 0.000348088 2.63943e-17)
(0.991751 0.000129261 -4.64012e-17)
(1.00365 0.00019213 -1.28385e-17)
(0.994718 4.4422e-05 -2.07548e-17)
(1.00339 0.000101519 -6.28631e-17)
(0.996538 -3.82892e-06 -1.45917e-16)
(1.00275 4.12986e-05 -9.89696e-17)
)
;
    }
}


// ************************************************************************* //
