/*--------------------------------*- C++ -*----------------------------------*\
  =========                 |
  \\      /  F ield         | OpenFOAM: The Open Source CFD Toolbox
   \\    /   O peration     | Website:  https://openfoam.org
    \\  /    A nd           | Version:  7
     \\/     M anipulation  |
\*---------------------------------------------------------------------------*/
FoamFile
{
    version     2.0;
    format      ascii;
    class       surfaceScalarField;
    location    "5";
    object      phi;
}
// * * * * * * * * * * * * * * * * * * * * * * * * * * * * * * * * * * * * * //

dimensions      [0 3 -1 0 0 0 0];

internalField   nonuniform List<scalar> 
203
(
-0.0133933
0.0148911
-0.0118997
-0.0104097
-0.0089224
-0.00743697
-0.00595237
-0.00446751
-0.00298128
-0.00149251
0.00116753
-0.00396684
0.00422162
-0.0253337
0.0265012
0.00115887
-0.00370696
-0.0241748
0.00115691
-0.00344859
-0.0230179
0.00115654
-0.00319292
-0.0218614
0.00115699
-0.00294051
-0.0207044
0.00115807
-0.00269162
-0.0195463
0.00115969
-0.00244647
-0.0183866
0.00116183
-0.00220524
-0.0172248
0.00116477
-0.0019684
-0.01606
0.00116895
0.000634896
-0.0193118
0.0192079
0.000671712
-0.0199631
0.0199263
0.000687988
-0.0207307
0.0207144
-0.0200547
0.0207426
0.000616986
-0.0194081
0.000641673
-0.0199878
0.000624995
-0.020714
-0.0194297
0.000599761
-0.0194973
0.000614508
-0.0200025
0.000571123
-0.0206706
-0.0188585
0.000582702
-0.0195795
0.000588549
-0.0200084
0.00052238
-0.0206044
-0.0183362
0.000565928
-0.0196551
0.000564089
-0.0200065
0.000478883
-0.0205192
-0.0178573
0.000480434
-0.0193092
0.000549557
-0.0197242
0.000541116
-0.0199981
0.000440056
-0.0204182
-0.0174172
0.000471007
-0.0193986
0.000533966
-0.0197872
0.00051958
-0.0199837
0.000404905
-0.0203035
-0.0170123
0.00046209
-0.0194856
0.000519614
-0.0198447
0.000499608
-0.0199637
0.000372298
-0.0201762
-0.01664
0.000452308
-0.0195704
0.000505703
-0.0198981
0.000481495
-0.0199395
0.000343526
-0.0200382
-0.0162965
0.000436331
-0.0196515
0.000485654
-0.0199474
0.000461121
-0.0199149
0.000319867
-0.019897
-0.0159766
0.000125384
-0.019091
0.000152906
-0.0202754
0.000182756
-0.0210922
-0.0203275
0.000106784
-0.019126
0.000119457
-0.0202881
0.000129246
-0.021102
-0.0201982
8.82279e-05
-0.0191554
8.73897e-05
-0.0202873
7.96196e-05
-0.0210942
-0.0201186
6.97596e-05
-0.0191791
5.62254e-05
-0.0202737
3.15524e-05
-0.0210696
-0.0200871
5.15025e-05
-0.0191972
2.61464e-05
-0.0202484
-1.3416e-05
-0.02103
-0.0201005
3.35114e-05
-0.0192097
-2.40957e-06
-0.0202125
-5.2431e-05
-0.02098
-0.0201529
1.5783e-05
-0.0192166
-3.5191e-05
-0.0201615
-9.11859e-05
-0.020924
-0.0202441
-1.61309e-06
-0.0192181
-6.6044e-05
-0.0200971
-0.000128557
-0.0208615
-0.0203726
-1.80433e-05
-0.0192153
-9.64779e-05
-0.0200186
-0.000164962
-0.020793
-0.0205376
-3.40937e-05
-0.000126465
-0.000205046
0.0169297
-0.00236702
-0.0156057
0.0167265
-0.00282298
-0.0188266
0.0165199
-0.0033987
-0.0222216
0.0159883
-0.0038471
-0.0261303
0.0156057
)
;

boundaryField
{
    inlet
    {
        type            calculated;
        value           nonuniform 0();
    }
    outlet
    {
        type            calculated;
        value           nonuniform 0();
    }
    polygon
    {
        type            calculated;
        value           uniform 0;
    }
    top
    {
        type            symmetryPlane;
        value           uniform 0;
    }
    bottom
    {
        type            symmetryPlane;
        value           uniform 0;
    }
    outside
    {
        type            calculated;
        value           nonuniform 0();
    }
    procBoundary5to0
    {
        type            processor;
        value           nonuniform List<scalar> 10(-0.00142231 -0.00141874 -0.00141528 -0.00141221 -0.0014094 -0.0165863 -0.0162705 -0.0159442 -0.0155399 -0.0152312);
    }
    procBoundary5to1
    {
        type            processor;
        value           nonuniform List<scalar> 
23
(
-0.000531044
-0.000520674
-0.000510562
-0.000500451
-0.000490361
0.0192172
-0.000388398
-0.000381619
-0.000375022
-0.000367512
-0.0003553
-8.478e-05
-7.17579e-05
-5.88551e-05
-4.60512e-05
-3.34077e-05
-2.0978e-05
-8.85602e-06
3.0584e-06
1.53063e-05
2.66704e-05
0.00202359
0.0128839
)
;
    }
    procBoundary5to4
    {
        type            processor;
        value           nonuniform List<scalar> 
16
(
-0.00149779
-0.00173684
-0.00149359
-0.00149003
-0.00148727
-0.00148543
-0.0014846
-0.00148485
-0.00148623
-0.00148877
-0.00149251
-0.00140695
-0.00140484
-0.00140306
-0.0014016
-0.00140051
)
;
    }
    procBoundary5to6
    {
        type            processor;
        value           nonuniform List<scalar> 4(0.0190504 0.0202479 0.0210624 0.0205102);
    }
    procBoundary5to9
    {
        type            processor;
        value           uniform 4.33582e-13;
    }
}


// ************************************************************************* //
