/*--------------------------------*- C++ -*----------------------------------*\
  =========                 |
  \\      /  F ield         | OpenFOAM: The Open Source CFD Toolbox
   \\    /   O peration     | Website:  https://openfoam.org
    \\  /    A nd           | Version:  7
     \\/     M anipulation  |
\*---------------------------------------------------------------------------*/
FoamFile
{
    version     2.0;
    format      ascii;
    class       volVectorField;
    location    "20";
    object      U;
}
// * * * * * * * * * * * * * * * * * * * * * * * * * * * * * * * * * * * * * //

dimensions      [0 1 -1 0 0 0 0];

internalField   nonuniform List<vector> 
225
(
(1.14149 -0.0471309 2.25285e-19)
(1.16173 -0.0564108 -1.51843e-18)
(1.16903 -0.0497441 -1.12599e-19)
(1.19551 -0.0623512 -3.50253e-18)
(1.20594 -0.0459451 -1.304e-18)
(1.24898 -0.0623742 6.28601e-18)
(1.14123 -0.047805 3.89599e-19)
(1.16158 -0.0572222 -6.3163e-19)
(1.16888 -0.0508536 -2.35819e-19)
(1.19549 -0.0637047 -3.61303e-18)
(1.20599 -0.0481193 -1.34525e-18)
(1.24927 -0.0650049 6.45289e-18)
(1.14096 -0.0484795 4.07685e-19)
(1.16141 -0.0580356 -4.5184e-19)
(1.1687 -0.0519703 -2.3027e-19)
(1.19543 -0.065059 -4.85726e-18)
(1.20597 -0.0503043 -1.52689e-18)
(1.24945 -0.0676226 6.32572e-18)
(1.14069 -0.0491532 4.19655e-19)
(1.16122 -0.0588508 -4.8769e-19)
(1.1685 -0.053091 -2.0706e-19)
(1.19534 -0.0664151 -4.05533e-18)
(1.20591 -0.0524942 -1.56362e-18)
(1.24954 -0.0702328 4.69525e-18)
(1.14042 -0.0498254 -1.33198e-19)
(1.16102 -0.0596676 -1.10553e-18)
(1.16829 -0.0542142 5.74995e-19)
(1.19521 -0.067773 -3.89727e-18)
(1.20581 -0.0546863 -2.86976e-18)
(1.24954 -0.0728356 2.66402e-18)
(1.14014 -0.0504957 -8.54338e-19)
(1.1608 -0.0604856 -5.77486e-19)
(1.16805 -0.0553392 8.02134e-19)
(1.19504 -0.0691321 -2.84217e-18)
(1.20567 -0.0568786 -4.50612e-18)
(1.24947 -0.0754299 1.015e-19)
(1.13986 -0.0511637 -1.05002e-18)
(1.16057 -0.0613044 3.67951e-19)
(1.1678 -0.0564652 9.76515e-19)
(1.19484 -0.0704916 -3.73446e-18)
(1.20548 -0.0590695 -5.12325e-18)
(1.2493 -0.0780141 -8.54787e-19)
(1.13957 -0.0518291 -1.69666e-18)
(1.16033 -0.0621236 6.35382e-19)
(1.16753 -0.0575916 1.09563e-18)
(1.19461 -0.0718508 -4.11246e-18)
(1.20525 -0.061257 -4.12018e-18)
(1.24904 -0.0805862 -7.35054e-19)
(1.13927 -0.0524914 -1.93863e-18)
(1.16006 -0.0629426 7.41657e-19)
(1.16724 -0.0587175 1.062e-18)
(1.19433 -0.0732086 -4.28659e-18)
(1.20497 -0.063439 -3.97868e-18)
(1.24868 -0.0831439 -9.76193e-19)
(1.13897 -0.0531503 -2.10764e-18)
(1.15979 -0.0637611 6.94757e-19)
(1.16694 -0.0598423 1.2798e-18)
(1.19405 -0.0745646 -4.50745e-18)
(1.20471 -0.0656139 -4.06368e-18)
(1.24832 -0.0856865 -1.04858e-18)
(1.14388 -0.0407427 -5.12867e-19)
(1.16273 -0.0487355 -5.24963e-18)
(1.17019 -0.0394027 -1.86685e-18)
(1.19465 -0.0492395 -3.64987e-18)
(1.20485 -0.0252837 -1.70974e-18)
(1.24364 -0.035656 2.22487e-18)
(1.14366 -0.0413684 -4.98853e-19)
(1.16269 -0.049485 -5.48016e-18)
(1.17015 -0.0404048 -1.62887e-18)
(1.19488 -0.0505401 -2.61133e-18)
(1.20515 -0.0273063 -1.89645e-18)
(1.24453 -0.0383777 4.14378e-18)
(1.14344 -0.0419984 -5.08085e-19)
(1.16263 -0.0502382 -4.96107e-18)
(1.17009 -0.0414173 -1.5935e-18)
(1.19508 -0.0518399 -2.38674e-18)
(1.2054 -0.0293435 -1.9707e-18)
(1.24533 -0.041079 4.57317e-18)
(1.14321 -0.0426316 -4.13778e-19)
(1.16256 -0.0509957 -4.96714e-18)
(1.17001 -0.0424374 -1.70496e-18)
(1.19523 -0.0531428 -2.38607e-18)
(1.20559 -0.0313919 -9.73422e-19)
(1.24603 -0.043772 4.58573e-18)
(1.14297 -0.0432674 -4.4439e-19)
(1.16248 -0.0517574 -4.31304e-18)
(1.16991 -0.043464 -1.6519e-18)
(1.19536 -0.0544491 -3.58402e-18)
(1.20574 -0.0334496 -7.96256e-19)
(1.24666 -0.0464582 4.74594e-18)
(1.14273 -0.0439055 -4.30928e-19)
(1.16239 -0.0525229 -5.02268e-18)
(1.1698 -0.0444964 -8.88773e-19)
(1.19546 -0.0557586 -3.97442e-18)
(1.20585 -0.0355151 -8.69137e-19)
(1.24722 -0.0491363 4.93413e-18)
(1.14249 -0.0445454 -9.42837e-19)
(1.16228 -0.0532919 -4.52763e-18)
(1.16967 -0.045534 1.41375e-19)
(1.19552 -0.0570705 -4.12208e-18)
(1.20592 -0.0375871 -7.60815e-19)
(1.24769 -0.0518044 6.97923e-18)
(1.14224 -0.0451869 -1.1315e-18)
(1.16216 -0.054064 -3.65447e-18)
(1.16952 -0.0465761 5.12514e-19)
(1.19555 -0.0583841 -4.35759e-18)
(1.20593 -0.0396639 -1.07448e-18)
(1.24807 -0.0544601 8.0099e-18)
(1.14199 -0.0458298 -5.74373e-20)
(1.16203 -0.0548387 -2.81426e-18)
(1.16935 -0.0476221 7.07028e-19)
(1.19554 -0.0596982 -4.52725e-18)
(1.2059 -0.0417439 -1.22823e-18)
(1.24836 -0.0571004 6.51683e-18)
(1.14174 -0.0464735 -2.69403e-19)
(1.16188 -0.0556157 -1.88707e-18)
(1.16918 -0.0486713 7.64557e-19)
(1.19552 -0.0610122 -3.68697e-18)
(1.20588 -0.0438257 -1.28149e-18)
(1.24864 -0.0597237 6.18737e-18)
(1.14587 -0.0352252 1.7189e-19)
(1.16275 -0.042007 -2.07571e-18)
(1.1703 -0.0305369 -1.58e-18)
(1.19159 -0.0370036 1.94699e-18)
(1.20125 -0.0066449 9.06965e-19)
(1.14569 -0.0357504 -4.3455e-19)
(1.16279 -0.0426544 -2.6452e-18)
(1.17036 -0.0313821 -1.64745e-18)
(1.19202 -0.0382122 6.84445e-19)
(1.20181 -0.00846068 3.07862e-19)
(1.1455 -0.0362823 -6.45972e-20)
(1.16282 -0.043306 -3.68617e-18)
(1.1704 -0.0322381 -2.45196e-18)
(1.19242 -0.039417 3.50621e-19)
(1.20231 -0.0102867 2.03479e-19)
(1.14531 -0.03682 -4.72212e-19)
(1.16284 -0.0439631 -4.13013e-18)
(1.17043 -0.0331032 -2.85475e-18)
(1.19279 -0.0406249 -8.57039e-19)
(1.20276 -0.0121236 1.08484e-19)
(1.14512 -0.037363 -6.98192e-20)
(1.16286 -0.0446258 -4.25638e-18)
(1.17043 -0.0339766 -2.97047e-18)
(1.19313 -0.0418376 -2.30139e-18)
(1.20317 -0.0139709 -1.04602e-18)
(1.14492 -0.037911 1.63318e-19)
(1.16286 -0.0452939 -4.46596e-18)
(1.17043 -0.034858 -2.30291e-18)
(1.19345 -0.0430551 -2.76976e-18)
(1.20353 -0.0158276 -2.53894e-18)
(1.14472 -0.0384637 -2.63742e-19)
(1.16285 -0.0459672 -4.65115e-18)
(1.1704 -0.0357467 -2.87762e-18)
(1.19373 -0.0442769 -3.04104e-18)
(1.20385 -0.0176928 -2.89233e-18)
(1.14452 -0.0390211 -4.86723e-19)
(1.16284 -0.0466455 -4.79983e-18)
(1.17036 -0.0366423 -3.11956e-18)
(1.19399 -0.0455023 -3.30802e-18)
(1.20412 -0.0195655 -2.02911e-18)
(1.14431 -0.0395828 -5.4278e-19)
(1.16281 -0.0473282 -4.95537e-18)
(1.17029 -0.0375442 -3.26571e-18)
(1.19421 -0.0467302 -3.46085e-18)
(1.20433 -0.0214441 -1.68719e-18)
(1.14409 -0.0401487 -5.12411e-19)
(1.16277 -0.0480152 -5.15776e-18)
(1.17023 -0.038452 -2.66073e-18)
(1.19442 -0.04796 -3.55371e-18)
(1.20454 -0.0233277 -1.70219e-18)
(1.14743 -0.0316378 -7.47872e-19)
(1.16212 -0.0372808 -1.29118e-18)
(1.16957 -0.0243279 -7.44756e-19)
(1.18705 -0.0270993 3.28341e-18)
(1.19534 0.00826755 -3.35393e-18)
(1.1473 -0.031602 -6.42349e-19)
(1.16221 -0.0373234 -1.37481e-18)
(1.16972 -0.0244267 -8.50103e-19)
(1.18761 -0.0274565 3.14977e-18)
(1.19615 0.00768828 -2.56282e-18)
(1.14716 -0.0318373 -6.99559e-19)
(1.1623 -0.0376652 -1.38022e-18)
(1.16984 -0.0248919 -9.56673e-19)
(1.18815 -0.0282736 3.29459e-18)
(1.19689 0.00643111 -2.19516e-18)
(1.14701 -0.0321832 -2.03864e-19)
(1.16238 -0.0381266 -1.50498e-18)
(1.16994 -0.0255007 -1.02429e-18)
(1.18865 -0.0292627 3.39055e-18)
(1.19757 0.00493074 -2.18824e-18)
(1.14686 -0.0325762 -8.33176e-20)
(1.16245 -0.0386379 -1.54998e-18)
(1.17003 -0.0261687 -1.71988e-18)
(1.18913 -0.0303182 4.36192e-18)
(1.19821 0.00334049 -2.30299e-18)
(1.1467 -0.0329911 1.35337e-20)
(1.16252 -0.0391719 -1.56874e-18)
(1.17011 -0.0268634 -1.42624e-18)
(1.18959 -0.0314013 4.94073e-18)
(1.1988 0.00171473 -2.33386e-18)
(1.14654 -0.033418 2.24455e-20)
(1.16258 -0.0397181 -1.63561e-18)
(1.17017 -0.0275726 -1.32536e-18)
(1.19003 -0.0324975 4.26882e-18)
(1.19935 7.30754e-05 -2.47838e-18)
(1.14638 -0.033853 8.12893e-20)
(1.16263 -0.0402721 -2.3597e-18)
(1.17021 -0.0282913 -1.34322e-18)
(1.19043 -0.033601 4.21916e-18)
(1.19985 -0.00157701 -1.68024e-18)
(1.14621 -0.0342942 5.31036e-19)
(1.16267 -0.0408322 -2.10187e-18)
(1.17023 -0.0290174 -1.38418e-18)
(1.19081 -0.0347091 3.2291e-18)
(1.20029 -0.00323207 -1.46133e-18)
(1.14604 -0.0347412 3.02569e-19)
(1.16271 -0.0413975 -2.08776e-18)
(1.17025 -0.0297498 -1.42207e-18)
(1.19118 -0.0358205 3.06754e-18)
(1.20072 -0.00489031 -4.23422e-19)
(1.13551 -0.0829529 -6.55956e-20)
(1.1492 -0.0909571 2.1153e-17)
(1.16138 -0.0879232 2.54391e-17)
(1.16144 -0.0922099 5.48475e-18)
(1.16165 -0.0866522 -1.89903e-17)
)
;

boundaryField
{
    inlet
    {
        type            uniformFixedValue;
        uniformValue    constant (1 0 0);
        value           nonuniform 0();
    }
    outlet
    {
        type            pressureInletOutletVelocity;
        value           nonuniform 0();
    }
    polygon
    {
        type            fixedValue;
        value           nonuniform 0();
    }
    top
    {
        type            symmetryPlane;
    }
    bottom
    {
        type            symmetryPlane;
    }
    outside
    {
        type            zeroGradient;
    }
    procBoundary2to1
    {
        type            processor;
        value           nonuniform List<vector> 6((1.13868 -0.0538056 -2.27713e-18) (1.15952 -0.0645796 6.64989e-19) (1.16667 -0.0609666 3.95201e-19) (1.19379 -0.0759199 -3.57275e-18) (1.20453 -0.067782 -2.94248e-18) (1.24805 -0.0882167 -8.33625e-19));
    }
    procBoundary2to3
    {
        type            processor;
        value           nonuniform List<vector> 5((1.16151 0.068817 5.87369e-19) (1.16426 0.0568896 -4.28292e-19) (1.16442 0.045831 -3.45044e-17) (1.16082 0.0393681 -3.37507e-17) (1.15786 0.0240087 -4.38237e-18));
    }
    procBoundary2to6
    {
        type            processor;
        value           nonuniform List<vector> 
42
(
(1.25953 -0.0281011 5.99374e-18)
(1.25974 -0.0329043 5.87815e-18)
(1.25977 -0.0377377 4.11791e-18)
(1.25971 -0.0425825 3.83997e-18)
(1.25955 -0.0474302 1.79521e-18)
(1.2593 -0.0522748 1.32932e-18)
(1.25895 -0.0571108 1.34599e-18)
(1.25848 -0.0619317 1.48283e-18)
(1.25793 -0.0667302 1.62049e-18)
(1.25745 -0.0715005 3.53498e-18)
(1.25624 0.0180493 4.42855e-18)
(1.24273 -0.0328924 2.28952e-18)
(1.2571 0.0135168 4.303e-18)
(1.25778 0.00894991 4.46565e-18)
(1.25833 0.00436012 6.30385e-18)
(1.25876 -0.000247146 6.72319e-18)
(1.25909 -0.00486792 6.94078e-18)
(1.25929 -0.00949853 9.07861e-18)
(1.25934 -0.0141348 9.7873e-18)
(1.25927 -0.0187715 8.1849e-18)
(1.25926 -0.0234052 7.86325e-18)
(1.23305 -0.00838054 1.3869e-18)
(1.23444 -0.0111464 6.52502e-19)
(1.23573 -0.0138856 7.78417e-19)
(1.23695 -0.0166177 -1.03038e-18)
(1.2381 -0.0193465 -3.29002e-18)
(1.23917 -0.0220715 -4.22123e-18)
(1.24017 -0.0247912 -2.71527e-18)
(1.24109 -0.0275031 -6.26588e-19)
(1.24192 -0.0302043 1.58995e-18)
(1.24273 -0.0328924 2.28952e-18)
(1.21827 0.0169095 6.02237e-18)
(1.22011 0.0155598 4.75081e-18)
(1.22183 0.0132818 4.31144e-18)
(1.22346 0.0106977 4.4331e-18)
(1.22502 0.00801392 4.51218e-18)
(1.2265 0.00529967 4.62736e-18)
(1.22791 0.00257874 6.20237e-18)
(1.22924 -0.000139862 6.57586e-18)
(1.23048 -0.00285137 5.36337e-18)
(1.2317 -0.00555286 3.62794e-18)
(1.09117 -0.0764711 1.1827e-18)
)
;
    }
}


// ************************************************************************* //
