/*--------------------------------*- C++ -*----------------------------------*\
  =========                 |
  \\      /  F ield         | OpenFOAM: The Open Source CFD Toolbox
   \\    /   O peration     | Website:  https://openfoam.org
    \\  /    A nd           | Version:  7
     \\/     M anipulation  |
\*---------------------------------------------------------------------------*/
FoamFile
{
    version     2.0;
    format      ascii;
    class       volScalarField;
    location    "36";
    object      p;
}
// * * * * * * * * * * * * * * * * * * * * * * * * * * * * * * * * * * * * * //

dimensions      [0 2 -2 0 0 0 0];

internalField   nonuniform List<scalar> 
125
(
-0.283771
-0.311834
-0.337919
-0.0051129
-0.0156193
-0.0272876
-0.0402898
-0.0553208
-0.0726864
-0.0928014
-0.11583
-0.14174
-0.170154
-0.200366
-0.231432
-0.262377
-0.292356
-0.320721
-0.346982
-0.00469963
-0.0152301
-0.0267414
-0.039831
-0.0550701
-0.072853
-0.0935752
-0.117381
-0.144178
-0.173507
-0.204571
-0.236367
-0.267895
-0.298323
-0.327025
-0.353533
-0.00399308
-0.0144099
-0.0254249
-0.0383817
-0.0535922
-0.0715793
-0.0926916
-0.117055
-0.144519
-0.174555
-0.206301
-0.238708
-0.270761
-0.301633
-0.330705
-0.357519
-0.0029107
-0.0131576
-0.0232744
-0.0359059
-0.0508447
-0.0688302
-0.090118
-0.114824
-0.142741
-0.17329
-0.20556
-0.238474
-0.271002
-0.302315
-0.331784
-0.358952
-0.00137141
-0.011483
-0.0202144
-0.0324085
-0.0468213
-0.0646257
-0.0858885
-0.110737
-0.138908
-0.16979
-0.20244
-0.235765
-0.26872
-0.300468
-0.330354
-0.357913
0.000710125
-0.00941869
-0.016179
-0.0279417
-0.0415552
-0.059055
-0.0801123
-0.104935
-0.133182
-0.164233
-0.197128
-0.230771
-0.264098
-0.296272
-0.326582
-0.354558
0.00341806
-0.00701685
-0.0111322
-0.0226122
-0.0351192
-0.0522901
-0.0729741
-0.0976446
-0.125814
-0.156892
-0.189905
-0.22377
-0.257401
-0.289991
-0.320713
-0.349124
0.00682178
-0.00434257
-0.00508722
-0.0165837
-0.027643
-0.0445867
-0.0647284
-0.0891846
-0.117151
-0.148133
)
;

boundaryField
{
    inlet
    {
        type            zeroGradient;
    }
    outlet
    {
        type            fixedValue;
        value           uniform 0;
    }
    polygon
    {
        type            zeroGradient;
    }
    top
    {
        type            symmetryPlane;
    }
    bottom
    {
        type            symmetryPlane;
    }
    outside
    {
        type            slip;
    }
    procBoundary55to47
    {
        type            processor;
        value           nonuniform List<scalar> 
17
(
-0.181155
-0.215141
-0.249025
-0.281923
-0.31307
-0.341921
0.010959
-0.00146912
0.00187178
-0.0100662
-0.0193302
-0.0362732
-0.0556934
-0.0799509
-0.107617
-0.181155
-0.138422
)
;
    }
    procBoundary55to54
    {
        type            processor;
        value           nonuniform List<scalar> 7(-0.37076 -0.377481 -0.381713 -0.383452 -0.382766 -0.379803 -0.374788);
    }
    procBoundary55to62
    {
        type            processor;
        value           uniform -0.36162;
    }
    procBoundary55to63
    {
        type            processor;
        value           nonuniform List<scalar> 
17
(
-0.272678
-0.300464
-0.326445
-0.00530463
-0.0155825
-0.027119
-0.0398143
-0.0544132
-0.0711561
-0.0904576
-0.112499
-0.137305
-0.164595
-0.19377
-0.22397
-0.254255
-0.254255
)
;
    }
}


// ************************************************************************* //
