/*--------------------------------*- C++ -*----------------------------------*\
  =========                 |
  \\      /  F ield         | OpenFOAM: The Open Source CFD Toolbox
   \\    /   O peration     | Website:  https://openfoam.org
    \\  /    A nd           | Version:  7
     \\/     M anipulation  |
\*---------------------------------------------------------------------------*/
FoamFile
{
    version     2.0;
    format      ascii;
    class       surfaceScalarField;
    location    "72";
    object      phi;
}
// * * * * * * * * * * * * * * * * * * * * * * * * * * * * * * * * * * * * * //

dimensions      [0 3 -1 0 0 0 0];

internalField   nonuniform List<scalar> 
22080
(
0.000720315
2.63229e-07
-3.26018e-07
0.000720507
9.42081e-07
-1.13478e-06
0.000720858
1.84703e-06
-2.19821e-06
0.000721305
2.263e-06
-2.70951e-06
0.000721747
1.93894e-06
-2.38103e-06
0.000722085
7.96659e-07
-1.13488e-06
0.000722225
-1.15259e-06
1.01246e-06
0.000722084
-3.83081e-06
3.9722e-06
0.000721591
-7.1334e-06
7.62622e-06
0.00072069
-1.09493e-05
1.18502e-05
0.000719336
-1.51732e-05
1.65273e-05
0.000717495
-1.97068e-05
2.15483e-05
0.000715141
-2.44632e-05
2.6817e-05
0.000712258
-2.93659e-05
3.2249e-05
0.000708836
-3.43487e-05
3.77709e-05
0.000704871
-3.93537e-05
4.33186e-05
0.000700365
-4.43303e-05
4.8836e-05
0.000695325
-4.92333e-05
5.4273e-05
0.000689763
-5.40216e-05
5.95841e-05
0.000683693
-5.86575e-05
6.47272e-05
0.000677136
-6.31052e-05
6.96625e-05
0.000670114
-6.73304e-05
7.4352e-05
0.000662656
-7.13e-05
7.87585e-05
0.000654791
-7.49815e-05
8.2846e-05
0.000646555
-7.8344e-05
8.65799e-05
0.000637986
-8.13576e-05
8.99269e-05
0.000629124
-8.39952e-05
9.28568e-05
0.000620014
-8.62327e-05
9.53427e-05
0.000610702
-8.80507e-05
9.73629e-05
0.000601235
-8.9435e-05
9.89018e-05
0.000591663
-9.03784e-05
9.99511e-05
0.000582032
-9.08803e-05
0.00010051
0.000572393
-9.09477e-05
0.000100587
0.00056279
-9.05945e-05
0.000100197
0.000553269
-8.984e-05
9.93612e-05
0.000543871
-8.8708e-05
9.81059e-05
0.000534636
-8.72247e-05
9.64602e-05
0.000525599
-8.54172e-05
9.44542e-05
0.000516794
-8.3312e-05
9.21171e-05
0.000508251
-8.0934e-05
8.94768e-05
0.000499998
-7.83061e-05
8.65587e-05
0.000492061
-7.54492e-05
8.33865e-05
0.000484462
-7.23826e-05
7.99817e-05
0.000477221
-6.91242e-05
7.6365e-05
0.000470356
-6.56918e-05
7.25564e-05
0.000463883
-6.21034e-05
6.85766e-05
0.000457814
-5.83782e-05
6.44475e-05
0.000452158
-5.45374e-05
6.01933e-05
0.000446922
-5.06052e-05
5.58416e-05
0.000442108
-4.6609e-05
5.14234e-05
0.000437714
-4.25803e-05
4.69742e-05
0.000433735
-3.85541e-05
4.25332e-05
0.00043016
-3.45684e-05
3.81428e-05
0.000426976
-3.06633e-05
3.38478e-05
0.000424162
-2.68794e-05
2.96928e-05
0.000421697
-2.32563e-05
2.57212e-05
0.000419554
-1.98303e-05
2.19731e-05
0.000417705
-1.66336e-05
1.84833e-05
0.000416117
-1.36931e-05
1.52805e-05
0.00041476
-1.10292e-05
1.23868e-05
0.000413599
-8.65568e-06
9.8164e-06
0.000412602
-6.57921e-06
7.57581e-06
0.000411738
-4.80032e-06
5.66485e-06
0.000410975
-3.31519e-06
4.07849e-06
0.000410283
-2.11574e-06
2.80729e-06
0.000409635
-1.194e-06
1.84158e-06
0.000409007
-5.41497e-07
1.1698e-06
0.000408374
-1.46972e-07
7.80579e-07
0.000407709
6.36299e-09
6.58163e-07
0.000406993
-8.09362e-08
7.96488e-07
0.000406204
-3.98927e-07
1.1883e-06
0.000405318
-9.46433e-07
1.83224e-06
0.000404314
-1.72846e-06
2.73305e-06
0.000403167
-2.75308e-06
3.8997e-06
0.000401854
-4.03531e-06
5.34865e-06
0.000400346
-5.59135e-06
7.09878e-06
0.000398614
-7.44503e-06
9.17689e-06
0.000396624
-9.63168e-06
1.16222e-05
0.000394336
-1.21895e-05
1.44774e-05
0.000391706
-1.51787e-05
1.78091e-05
0.000388681
-1.86555e-05
2.16799e-05
0.000385201
-2.27264e-05
2.62066e-05
0.000381195
-2.74657e-05
3.14719e-05
0.000376574
-3.30707e-05
3.76912e-05
0.000371241
-3.9622e-05
4.49549e-05
0.000365064
-4.75142e-05
5.36917e-05
0.000357903
-5.6776e-05
6.39368e-05
0.000349549
-6.82551e-05
7.66092e-05
0.000339806
-8.17466e-05
9.14897e-05
0.000328315
-9.91329e-05
0.000110624
0.000314811
-0.000119604
0.000133108
0.000298641
-0.000146948
0.000163117
0.000279446
-0.000180136
0.000199332
0.000256139
-0.000223215
0.000246521
0.000227869
-0.000283058
0.000311328
0.000194068
-0.000343557
0.000377358
0.000150561
-0.000456967
0.000500473
0.000104654
-0.000501586
0.000547493
4.20163e-05
-0.000608219
0.000670856
-0.000418014
0.000460031
0.000730441
2.11656e-07
0.000730606
7.77187e-07
0.000730914
1.5391e-06
0.000731305
1.87209e-06
0.000731685
1.55897e-06
0.000731957
5.24606e-07
0.000732028
-1.22376e-06
0.000731815
-3.61791e-06
0.000731248
-6.56613e-06
0.000730269
-9.97032e-06
0.000728832
-1.37368e-05
0.000726904
-1.77781e-05
0.000724457
-2.20166e-05
0.000721475
-2.63843e-05
0.000717949
-3.08221e-05
0.000713874
-3.52784e-05
0.000709251
-3.97081e-05
0.000704089
-4.40712e-05
0.000698399
-4.83312e-05
0.000692196
-5.24545e-05
0.0006855
-5.64097e-05
0.000678336
-6.01663e-05
0.000670731
-6.36949e-05
0.000662717
-6.6967e-05
0.000654328
-6.99551e-05
0.000645603
-7.2633e-05
0.000636585
-7.49765e-05
0.000627316
-7.69644e-05
0.000617845
-7.85795e-05
0.000608219
-7.98094e-05
0.000598488
-8.06474e-05
0.000588701
-8.10933e-05
0.000578907
-8.11532e-05
0.000569152
-8.08395e-05
0.000559482
-8.01695e-05
0.000549938
-7.91644e-05
0.000540561
-7.78474e-05
0.000531386
-7.62427e-05
0.000522448
-7.43738e-05
0.000513777
-7.22627e-05
0.0005054
-6.99297e-05
0.000497344
-6.73929e-05
0.00048963
-6.46692e-05
0.00048228
-6.17742e-05
0.000475312
-5.87232e-05
0.00046874
-5.55317e-05
0.000462578
-5.22163e-05
0.000456836
-4.87953e-05
0.00045152
-4.52896e-05
0.000446634
-4.17231e-05
0.000442178
-3.81235e-05
0.000438145
-3.45214e-05
0.000434527
-3.09506e-05
0.000431311
-2.74469e-05
0.000428478
-2.40463e-05
0.000426006
-2.07843e-05
0.000423869
-1.7694e-05
0.00042204
-1.48044e-05
0.000420487
-1.21402e-05
0.000419178
-9.72032e-06
0.000418081
-7.55781e-06
0.000417161
-5.65934e-06
0.000416386
-4.02602e-06
0.000415726
-2.65517e-06
0.000415151
-1.53991e-06
0.000414632
-6.75227e-07
0.000414141
-5.04726e-08
0.000413657
3.36402e-07
0.000413156
5.07314e-07
0.000412613
4.62848e-07
0.000412003
2.10499e-07
0.000411308
-2.50896e-07
0.000410504
-9.24718e-07
0.000409567
-1.81611e-06
0.000408472
-2.94073e-06
0.000407193
-4.31154e-06
0.000405697
-5.94933e-06
0.000403951
-7.88547e-06
0.000401915
-1.01536e-05
0.000399543
-1.28072e-05
0.000396784
-1.5896e-05
0.000393573
-1.95155e-05
0.000389839
-2.37315e-05
0.00038549
-2.8722e-05
0.000380425
-3.45577e-05
0.000374507
-4.15962e-05
0.000367592
-4.98602e-05
0.000359457
-6.01199e-05
0.000349896
-7.21862e-05
0.000338528
-8.77651e-05
0.000325064
-0.000106139
0.000308812
-0.000130696
0.000289333
-0.000160657
0.000265514
-0.000199396
0.000236231
-0.000253775
0.000201029
-0.000308355
0.000155202
-0.00041114
0.000106387
-0.000452771
4.24371e-05
-0.000544269
-0.000375577
0.000739478
1.69052e-07
0.00073962
6.34937e-07
0.000739891
1.26761e-06
0.000740235
1.52856e-06
0.000740561
1.23262e-06
0.000740776
3.10129e-07
0.000740786
-1.23453e-06
0.000740511
-3.34206e-06
0.000739878
-5.93311e-06
0.000738829
-8.92228e-06
0.00073732
-1.22275e-05
0.000735314
-1.5772e-05
0.000732785
-1.94879e-05
0.000729716
-2.33153e-05
0.000726097
-2.72027e-05
0.000721923
-3.11048e-05
0.000717198
-3.49823e-05
0.000711927
-3.88002e-05
0.000706122
-4.25268e-05
0.000699801
-4.6133e-05
0.000692982
-4.95912e-05
0.000685691
-5.28751e-05
0.000677955
-5.59592e-05
0.000669807
-5.88188e-05
0.000661282
-6.14299e-05
0.000652419
-6.37698e-05
0.00064326
-6.58176e-05
0.00063385
-6.75548e-05
0.000624237
-6.89665e-05
0.00061447
-7.00418e-05
0.000604597
-7.0775e-05
0.00059467
-7.1166e-05
0.000584737
-7.12202e-05
0.000574846
-7.09483e-05
0.000565042
-7.03655e-05
0.000555368
-6.94903e-05
0.000545863
-6.83431e-05
0.000536565
-6.69449e-05
0.000527508
-6.53162e-05
0.000518721
-6.34761e-05
0.000510233
-6.14419e-05
0.00050207
-5.92295e-05
0.000494254
-5.6853e-05
0.000486805
-5.43258e-05
0.000479743
-5.16607e-05
0.000473082
-4.8871e-05
0.000466836
-4.59704e-05
0.000461016
-4.29747e-05
0.000455628
-3.99015e-05
0.000450676
-3.67715e-05
0.000446161
-3.36084e-05
0.000442078
-3.04388e-05
0.00043842
-2.7292e-05
0.000435172
-2.41994e-05
0.000432319
-2.11928e-05
0.000429838
-1.83034e-05
0.000427705
-1.55606e-05
0.000425891
-1.29905e-05
0.000424366
-1.06152e-05
0.000423097
-8.45203e-06
0.000422053
-6.51313e-06
0.000421198
-4.80507e-06
0.000420502
-3.3294e-06
0.000419931
-2.0845e-06
0.000419456
-1.06438e-06
0.000419047
-2.66272e-07
0.000418682
3.14621e-07
0.00041833
6.8831e-07
0.000417968
8.68696e-07
0.000417574
8.5692e-07
0.000417126
6.58574e-07
0.000416599
2.75864e-07
0.000415971
-2.96375e-07
0.000415219
-1.0641e-06
0.000414317
-2.03906e-06
0.000413238
-3.23259e-06
0.000411951
-4.66221e-06
0.000410421
-6.35519e-06
0.000408608
-8.34052e-06
0.000406465
-1.06647e-05
0.00040394
-1.3371e-05
0.000400968
-1.65433e-05
0.000397475
-2.02387e-05
0.000393368
-2.46147e-05
0.000388543
-2.97324e-05
0.000382856
-3.59097e-05
0.00037616
-4.3164e-05
0.000368222
-5.21816e-05
0.000358828
-6.27921e-05
0.000347574
-7.65114e-05
0.000334153
-9.27177e-05
0.000317836
-0.00011438
0.000298119
-0.00014094
0.000273865
-0.000175142
0.000243715
-0.000223625
0.000207312
-0.000271951
0.000159538
-0.000363366
0.000108206
-0.000401439
4.31546e-05
-0.000479217
-0.000332423
0.000747412
1.33551e-07
0.000747536
5.11021e-07
0.000747777
1.02638e-06
0.000748081
1.22493e-06
0.000748362
9.51849e-07
0.000748527
1.44994e-07
0.000748486
-1.19325e-06
0.000748155
-3.01171e-06
0.000747465
-5.243e-06
0.000746357
-7.81415e-06
0.000744784
-1.06546e-05
0.000742711
-1.36984e-05
0.00074011
-1.68873e-05
0.000736965
-2.01701e-05
0.000733264
-2.35023e-05
0.000729005
-2.68455e-05
0.000724189
-3.0166e-05
0.000718823
-3.34342e-05
0.000712919
-3.66229e-05
0.000706493
-3.97077e-05
0.000699567
-4.26651e-05
0.000692165
-4.54728e-05
0.000684315
-4.81093e-05
0.00067605
-5.05535e-05
0.000667405
-5.27853e-05
0.000658421
-5.47853e-05
0.000649139
-5.65359e-05
0.000639605
-5.80213e-05
0.000629868
-5.92289e-05
0.000619976
-6.01496e-05
0.000609979
-6.07786e-05
0.000599929
-6.11156e-05
0.000589874
-6.11654e-05
0.000579863
-6.09371e-05
0.000569941
-6.04438e-05
0.000560152
-5.97012e-05
0.000550536
-5.87268e-05
0.000541129
-5.75383e-05
0.000531966
-5.61532e-05
0.000523078
-5.45875e-05
0.000514492
-5.28559e-05
0.000506233
-5.09713e-05
0.000498326
-4.89457e-05
0.00049079
-4.679e-05
0.000483644
-4.45148e-05
0.000476904
-4.21308e-05
0.000470583
-3.96495e-05
0.000464692
-3.70837e-05
0.000459239
-3.44484e-05
0.000454228
-3.17606e-05
0.00044966
-2.90403e-05
0.000445532
-2.63102e-05
0.000441835
-2.35954e-05
0.000438558
-2.09225e-05
0.000435685
-1.83191e-05
0.000433193
-1.58122e-05
0.00043106
-1.34274e-05
0.000429257
-1.11875e-05
0.000427754
-9.11213e-06
0.000426519
-7.21683e-06
0.000425518
-5.51265e-06
0.000424719
-4.00594e-06
0.000424088
-2.69857e-06
0.000423594
-1.5898e-06
0.000423205
-6.75636e-07
0.000422892
4.67497e-08
0.000422631
5.75221e-07
0.000422394
9.26041e-07
0.000422155
1.10768e-06
0.000421891
1.12067e-06
0.000421579
9.70041e-07
0.0004212
6.5573e-07
0.000420725
1.78704e-07
0.000420134
-4.73058e-07
0.000419399
-1.30505e-06
0.000418495
-2.32853e-06
0.00041739
-3.55676e-06
0.000416048
-5.01312e-06
0.000414429
-6.72188e-06
0.000412487
-8.72241e-06
0.000410167
-1.10511e-05
0.000407404
-1.37801e-05
0.000404123
-1.69577e-05
0.000400228
-2.07198e-05
0.000395613
-2.5118e-05
0.000390132
-3.04281e-05
0.000383631
-3.66633e-05
0.00037587
-4.44204e-05
0.000366628
-5.35499e-05
0.000355483
-6.53665e-05
0.00034211
-7.93447e-05
0.000325755
-9.80246e-05
0.000305849
-0.000121033
0.000281247
-0.00015054
0.000250375
-0.000192754
0.000212972
-0.000234548
0.000163582
-0.000313976
0.000110063
-0.000347919
4.39523e-05
-0.000413107
-0.00028847
0.000754234
1.03616e-07
0.000754343
4.01766e-07
0.00075456
8.09881e-07
0.00075483
9.54318e-07
0.000755073
7.09083e-07
0.000755197
2.13527e-08
0.000755111
-1.10807e-06
0.000754735
-2.63518e-06
0.000753996
-4.50442e-06
0.000752837
-6.65491e-06
0.00075121
-9.02757e-06
0.000749079
-1.15674e-05
0.000746417
-1.42257e-05
0.000743207
-1.69597e-05
0.000739438
-1.97328e-05
0.000735105
-2.2513e-05
0.000730212
-2.52725e-05
0.000724764
-2.79869e-05
0.000718776
-3.06341e-05
0.000712262
-3.31939e-05
0.000705244
-3.56471e-05
0.000697747
-3.79756e-05
0.000689799
-4.01617e-05
0.000681434
-4.21882e-05
0.000672687
-4.40386e-05
0.000663598
-4.5697e-05
0.000654212
-4.7149e-05
0.000644572
-4.83817e-05
0.000634728
-4.93847e-05
0.000624729
-5.01507e-05
0.000614626
-5.06755e-05
0.000604469
-5.09593e-05
0.00059431
-5.10058e-05
0.000584195
-5.08227e-05
0.000574172
-5.04208e-05
0.000564284
-4.98131e-05
0.000554571
-4.90139e-05
0.000545071
-4.80379e-05
0.000535817
-4.68991e-05
0.00052684
-4.56108e-05
0.000518169
-4.41846e-05
0.000509829
-4.2631e-05
0.000501842
-4.09594e-05
0.00049423
-3.91784e-05
0.000487012
-3.72962e-05
0.000480202
-3.53214e-05
0.000473816
-3.32629e-05
0.000467863
-3.11311e-05
0.000462353
-2.89378e-05
0.000457289
-2.6697e-05
0.000452674
-2.4425e-05
0.000448504
-2.21405e-05
0.000444773
-1.98641e-05
0.000441469
-1.76183e-05
0.000438575
-1.5426e-05
0.000436073
-1.33101e-05
0.000433938
-1.12921e-05
0.000432142
-9.39174e-06
0.000430656
-7.62582e-06
0.000429447
-6.00798e-06
0.000428483
-4.54812e-06
0.000427729
-3.25223e-06
0.000427153
-2.12242e-06
0.000426722
-1.15872e-06
0.000426404
-3.57987e-07
0.000426175
2.75639e-07
0.000426002
7.48301e-07
0.00042586
1.06784e-06
0.000425725
1.24331e-06
0.000425571
1.27393e-06
0.000425378
1.16378e-06
0.00042512
9.13208e-07
0.000424779
5.19559e-07
0.000424321
-1.5244e-08
0.000423732
-7.15786e-07
0.000422977
-1.57353e-06
0.000422027
-2.60654e-06
0.000420846
-3.83208e-06
0.000419394
-5.26978e-06
0.000417623
-6.9517e-06
0.000415479
-8.90743e-06
0.000412896
-1.11968e-05
0.000409798
-1.38593e-05
0.000406087
-1.70086e-05
0.000401655
-2.06867e-05
0.000396353
-2.51256e-05
0.000390024
-3.03347e-05
0.000382421
-3.68169e-05
0.000373316
-4.44456e-05
0.000362276
-5.43258e-05
0.000348958
-6.60269e-05
0.000332589
-8.1656e-05
0.000312544
-0.000100988
0.000287682
-0.000125678
0.000256231
-0.000161303
0.000218028
-0.000196345
0.00016733
-0.000263278
0.000111954
-0.000292544
4.48626e-05
-0.000346015
-0.000243608
0.000759933
7.79718e-08
0.000760031
3.04012e-07
0.000760228
6.13168e-07
0.000760471
7.10367e-07
0.000760683
4.97381e-07
0.000760773
-6.86792e-08
0.000760652
-9.86693e-07
0.000760237
-2.22066e-06
0.000759459
-3.72589e-06
0.000758257
-5.45352e-06
0.000756586
-7.35591e-06
0.000754407
-9.38893e-06
0.000751695
-1.15135e-05
0.000748431
-1.36957e-05
0.000744605
-1.59063e-05
0.000740212
-1.81201e-05
0.000735255
-2.03153e-05
0.00072974
-2.24727e-05
0.000723681
-2.45751e-05
0.000717094
-2.66069e-05
0.000710001
-2.85532e-05
0.000702425
-3.03999e-05
0.000694396
-3.21333e-05
0.000685948
-3.374e-05
0.000677117
-3.52072e-05
0.000667943
-3.65226e-05
0.000658468
-3.76749e-05
0.000648741
-3.8654e-05
0.000638808
-3.94519e-05
0.00062872
-4.00629e-05
0.000618528
-4.04838e-05
0.000608284
-4.07147e-05
0.000598037
-4.07588e-05
0.000587836
-4.06221e-05
0.000577729
-4.03131e-05
0.000567758
-3.9842e-05
0.000557964
-3.92201e-05
0.000548385
-3.84586e-05
0.000539054
-3.75686e-05
0.000530003
-3.656e-05
0.00052126
-3.54416e-05
0.000512851
-3.42214e-05
0.000504798
-3.29063e-05
0.000497122
-3.15024e-05
0.000489842
-3.0016e-05
0.000482973
-2.8453e-05
0.000476531
-2.68204e-05
0.000470525
-2.51256e-05
0.000464965
-2.3378e-05
0.000459856
-2.15881e-05
0.0004552
-1.97687e-05
0.000450994
-1.79346e-05
0.000447232
-1.61022e-05
0.000443903
-1.42894e-05
0.000440992
-1.25148e-05
0.000438479
-1.07968e-05
0.00043634
-9.15318e-06
0.000434548
-7.60008e-06
0.000433074
-6.1516e-06
0.000431885
-4.81931e-06
0.000430949
-3.61186e-06
0.000430232
-2.53477e-06
0.000429699
-1.59024e-06
0.00042932
-7.79356e-07
0.000429062
-1.00328e-07
0.000428899
4.39404e-07
0.000428799
8.47823e-07
0.000428736
1.1306e-06
0.000428686
1.29365e-06
0.000428624
1.33592e-06
0.000428527
1.26052e-06
0.000428373
1.06738e-06
0.000428137
7.56195e-07
0.000427799
3.21826e-07
0.000427326
-2.42062e-07
0.000426695
-9.4303e-07
0.000425874
-1.78566e-06
0.000424828
-2.7854e-06
0.000423515
-3.95689e-06
0.000421888
-5.32473e-06
0.000419892
-6.91162e-06
0.00041746
-8.76492e-06
0.000414516
-1.09152e-05
0.00041096
-1.34531e-05
0.000406685
-1.64115e-05
0.000401536
-1.99767e-05
0.000395357
-2.41551e-05
0.000387892
-2.93523e-05
0.000378912
-3.54658e-05
0.000367971
-4.33845e-05
0.000354715
-5.27706e-05
0.000338357
-6.52985e-05
0.000318222
-8.08532e-05
0.000293183
-0.000100639
0.000261296
-0.000129416
0.000222491
-0.000157541
0.000170778
-0.000211564
0.000113891
-0.000235657
4.59212e-05
-0.000278045
-0.000197686
0.000764502
5.55417e-08
0.000764591
2.15008e-07
0.000764772
4.31743e-07
0.000764995
4.87186e-07
0.000765183
3.09855e-07
0.000765246
-1.32054e-07
0.000765097
-8.36962e-07
0.000764652
-1.77618e-06
0.000763842
-2.91584e-06
0.000762607
-4.21889e-06
0.000760901
-5.64907e-06
0.000758685
-7.1731e-06
0.000755933
-8.76169e-06
0.000752627
-1.03895e-05
0.000748755
-1.2035e-05
0.000744315
-1.36797e-05
0.000739308
-1.53079e-05
0.000733741
-1.69057e-05
0.000727627
-1.8461e-05
0.000720982
-1.99624e-05
0.000713828
-2.13995e-05
0.000706191
-2.27624e-05
0.000698099
-2.40412e-05
0.000689585
-2.52266e-05
0.000680687
-2.63092e-05
0.000671445
-2.72803e-05
0.000661902
-2.81318e-05
0.000652104
-2.88566e-05
0.000642101
-2.94489e-05
0.000631943
-2.99046e-05
0.000621681
-3.02216e-05
0.000611366
-3.04e-05
0.000601049
-3.04423e-05
0.00059078
-3.03528e-05
0.000580605
-3.01378e-05
0.000570567
-2.98046e-05
0.000560709
-2.93614e-05
0.000551066
-2.88161e-05
0.000541674
-2.81764e-05
0.000532563
-2.74493e-05
0.000523762
-2.66407e-05
0.000515297
-2.57557e-05
0.000507189
-2.47989e-05
0.000499461
-2.37742e-05
0.00049213
-2.26854e-05
0.000485214
-2.15364e-05
0.000478725
-2.03318e-05
0.000472676
-1.90766e-05
0.000467075
-1.77772e-05
0.000461929
-1.64412e-05
0.000457238
-1.50779e-05
0.000453001
-1.3698e-05
0.000449213
-1.23139e-05
0.000445863
-1.0939e-05
0.000442935
-9.58718e-06
0.000440411
-8.2728e-06
0.000438267
-7.00949e-06
0.000436477
-5.80992e-06
0.000435011
-4.68532e-06
0.000433837
-3.64513e-06
0.000432921
-2.69665e-06
0.000432232
-1.84488e-06
0.000431733
-1.0919e-06
0.000431394
-4.3998e-07
0.000431183
1.10075e-07
0.000431072
5.51105e-07
0.000431029
8.90469e-07
0.000431029
1.13084e-06
0.000431046
1.27638e-06
0.000431057
1.3254e-06
0.000431037
1.28004e-06
0.000430965
1.13996e-06
0.000430816
9.04606e-07
0.000430567
5.71146e-07
0.00043019
1.34272e-07
0.00042966
-4.12147e-07
0.000428943
-1.06869e-06
0.000428004
-1.84695e-06
0.000426804
-2.75634e-06
0.000425293
-3.81404e-06
0.000423417
-5.03584e-06
0.000421109
-6.45635e-06
0.000418291
-8.09719e-06
0.000414863
-1.00258e-05
0.000410717
-1.22655e-05
0.000405697
-1.49563e-05
0.000399644
-1.81018e-05
0.000392299
-2.20079e-05
0.00038343
-2.65969e-05
0.000372583
-3.25376e-05
0.000359395
-3.95821e-05
0.000343072
-4.89758e-05
0.000322896
-6.0677e-05
0.000297762
-7.5505e-05
0.000265577
-9.72304e-05
0.000226366
-0.00011833
0.000173921
-0.000159119
0.000115872
-0.000177608
4.71425e-05
-0.000209316
-0.000150544
0.000767934
3.54019e-08
0.000768016
1.32315e-07
0.000768187
2.61476e-07
0.000768395
2.79225e-07
0.000768564
1.40163e-07
0.000768608
-1.75853e-07
0.000768437
-6.66308e-07
0.000767971
-1.30966e-06
0.000767138
-2.08264e-06
0.000765879
-2.95988e-06
0.000764146
-3.91647e-06
0.000761903
-4.92998e-06
0.000759122
-5.98086e-06
0.000755785
-7.05253e-06
0.000751881
-8.13107e-06
0.000747406
-9.20487e-06
0.000742363
-1.02641e-05
0.000736757
-1.13005e-05
0.000730603
-1.23067e-05
0.000723917
-1.3276e-05
0.00071672
-1.42024e-05
0.000709037
-1.50799e-05
0.000700899
-1.59028e-05
0.000692338
-1.66655e-05
0.000683391
-1.73623e-05
0.000674099
-1.79882e-05
0.000664505
-1.85381e-05
0.000654656
-1.90079e-05
0.000644602
-1.93941e-05
0.000634391
-1.96943e-05
0.000624077
-1.99073e-05
0.00061371
-2.00333e-05
0.000603342
-2.0074e-05
0.000593021
-2.00322e-05
0.000582796
-1.99118e-05
0.000572708
-1.97174e-05
0.000562801
-1.94539e-05
0.000553111
-1.91259e-05
0.000543672
-1.87378e-05
0.000534516
-1.82934e-05
0.000525671
-1.77957e-05
0.000517162
-1.72472e-05
0.000509014
-1.665e-05
0.000501245
-1.60057e-05
0.000493876
-1.53159e-05
0.000486922
-1.45825e-05
0.000480397
-1.38074e-05
0.000474314
-1.29934e-05
0.000468681
-1.21443e-05
0.000463504
-1.12644e-05
0.000458786
-1.03596e-05
0.000454525
-9.43676e-06
0.000450715
-8.50405e-06
0.000447346
-7.5704e-06
0.000444405
-6.64539e-06
0.000441871
-5.73882e-06
0.000439721
-4.86033e-06
0.000437931
-4.01903e-06
0.000436468
-3.22322e-06
0.000435303
-2.48011e-06
0.000434402
-1.79563e-06
0.000433732
-1.17403e-06
0.000433258
-6.17871e-07
0.000432947
-1.29375e-07
0.000432771
2.85612e-07
0.000432697
6.25191e-07
0.000432697
8.90898e-07
0.000432743
1.0848e-06
0.00043281
1.2089e-06
0.000432875
1.26086e-06
0.000432913
1.24182e-06
0.000432902
1.15114e-06
0.000432818
9.88451e-07
0.000432637
7.52243e-07
0.000432335
4.36244e-07
0.000431877
4.58797e-08
0.00043124
-4.31196e-07
0.000430384
-9.90997e-07
0.000429269
-1.64167e-06
0.000427848
-2.3927e-06
0.000426064
-3.25266e-06
0.000423851
-4.24343e-06
0.000421132
-5.37776e-06
0.000417806
-6.69937e-06
0.000413763
-8.22241e-06
0.000408846
-1.00396e-05
0.000402896
-1.21523e-05
0.000395653
-1.47649e-05
0.000386882
-1.78253e-05
0.000376124
-2.17799e-05
0.000363009
-2.64671e-05
0.000346743
-3.27101e-05
0.000326573
-4.05072e-05
0.000301424
-5.03554e-05
0.000269076
-6.48826e-05
0.000229653
-7.89072e-05
0.000176749
-0.000106215
0.000117892
-0.000118751
4.85366e-05
-0.00013996
-0.000102007
0.000770224
1.67362e-08
0.000770302
5.3719e-08
0.000770465
9.85096e-08
0.000770663
8.1215e-08
0.000770821
-1.78227e-08
0.000770852
-2.06903e-07
0.000770668
-4.82039e-07
0.000770187
-8.2889e-07
0.000769339
-1.23455e-06
0.000768065
-1.6853e-06
0.000766316
-2.16752e-06
0.000764055
-2.66962e-06
0.000761256
-3.18183e-06
0.0007579
-3.69628e-06
0.000753976
-4.20677e-06
0.000749479
-4.70849e-06
0.000744413
-5.19769e-06
0.000738784
-5.67148e-06
0.000732605
-6.12747e-06
0.000725892
-6.56367e-06
0.000718668
-6.97824e-06
0.000710958
-7.36941e-06
0.00070279
-7.73544e-06
0.000694199
-8.07454e-06
0.000685222
-8.38491e-06
0.000675899
-8.6648e-06
0.000666273
-8.91259e-06
0.000656392
-9.12684e-06
0.000646304
-9.30644e-06
0.000636061
-9.45071e-06
0.000625713
-9.55943e-06
0.000615313
-9.63294e-06
0.000604911
-9.67208e-06
0.000594557
-9.67812e-06
0.000584297
-9.65267e-06
0.000574177
-9.59741e-06
0.000564238
-9.51399e-06
0.000554515
-9.4038e-06
0.000545046
-9.26787e-06
0.000535859
-9.10679e-06
0.000526984
-8.92072e-06
0.000518446
-8.70944e-06
0.000510269
-8.47252e-06
0.000502472
-8.20936e-06
0.000495076
-7.91938e-06
0.000488095
-7.60214e-06
0.000481546
-7.25752e-06
0.000475438
-6.88584e-06
0.000469782
-6.488e-06
0.000464583
-6.06551e-06
0.000459844
-5.62072e-06
0.000455564
-5.15676e-06
0.000451737
-4.6775e-06
0.000448355
-4.18751e-06
0.000445401
-3.69184e-06
0.000442858
-3.19592e-06
0.000440703
-2.70532e-06
0.00043891
-2.22553e-06
0.000437448
-1.7619e-06
0.000436288
-1.31936e-06
0.000435394
-9.02392e-07
0.000434735
-5.14764e-07
0.000434275
-1.57713e-07
0.000433984
1.61584e-07
0.000433829
4.40444e-07
0.00043378
6.74659e-07
0.000433807
8.64035e-07
0.000433883
1.00844e-06
0.000433983
1.10829e-06
0.000434084
1.16046e-06
0.000434161
1.16509e-06
0.000434191
1.12123e-06
0.00043415
1.02859e-06
0.000434016
8.86663e-07
0.00043376
6.92338e-07
0.000433359
4.46738e-07
0.000432774
1.54243e-07
0.000431973
-1.90807e-07
0.000430919
-5.87078e-07
0.00042956
-1.03379e-06
0.000427842
-1.53476e-06
0.000425697
-2.09861e-06
0.000423049
-2.72929e-06
0.000419796
-3.4466e-06
0.000415829
-4.25572e-06
0.000410991
-5.20159e-06
0.000405123
-6.28389e-06
0.000397962
-7.60434e-06
0.000389274
-9.13689e-06
0.000378599
-1.11052e-05
0.000365562
-1.34303e-05
0.000349375
-1.65227e-05
0.000329258
-2.03898e-05
0.000304169
-2.52669e-05
0.000271792
-3.25057e-05
0.000232347
-3.94619e-05
0.000179252
-5.31206e-05
0.000119949
-5.94479e-05
5.01205e-05
-7.01314e-05
-5.18869e-05
0.000771369
-1.20366e-09
0.000771445
-2.28533e-08
0.000771605
-6.08164e-08
0.000771798
-1.11829e-07
0.00077195
-1.7032e-07
0.000771975
-2.31678e-07
0.000771784
-2.91368e-07
0.000771297
-3.41558e-07
0.000770442
-3.79758e-07
0.000769161
-4.03879e-07
0.000767405
-4.11569e-07
0.000765137
-4.02053e-07
0.000762331
-3.75334e-07
0.000758967
-3.32281e-07
0.000755034
-2.74389e-07
0.00075053
-2.03655e-07
0.000745454
-1.22417e-07
0.000739816
-3.32007e-08
0.000733627
6.1398e-08
0.000726905
1.58788e-07
0.00071967
2.5647e-07
0.000711948
3.52065e-07
0.00070377
4.43341e-07
0.000695167
5.28224e-07
0.000686177
6.04796e-07
0.000676841
6.71296e-07
0.000667202
7.26121e-07
0.000657308
7.6784e-07
0.000647206
7.95215e-07
0.000636948
8.07227e-07
0.000626586
8.03126e-07
0.00061617
7.82464e-07
0.000605753
7.45149e-07
0.000595383
6.9148e-07
0.000585108
6.22186e-07
0.000574973
5.3842e-07
0.000565017
4.41754e-07
0.000555279
3.34155e-07
0.000545793
2.17927e-07
0.000536591
9.5628e-08
0.0005277
-2.9967e-08
0.000519146
-1.55937e-07
0.000510953
-2.79408e-07
0.000503141
-3.97492e-07
0.00049573
-5.0742e-07
0.000488734
-6.06596e-07
0.000482169
-6.92656e-07
0.000476047
-7.63489e-07
0.000470376
-8.17299e-07
0.000465163
-8.52669e-07
0.000460411
-8.68532e-07
0.000456118
-8.64182e-07
0.00045228
-8.39325e-07
0.000448887
-7.94094e-07
0.000445924
-7.29066e-07
0.000443373
-6.45261e-07
0.000441212
-5.44158e-07
0.000439414
-4.2764e-07
0.000437951
-2.98026e-07
0.000436789
-1.57958e-07
0.000435897
-1.0399e-08
0.000435241
1.41588e-07
0.000434788
2.95472e-07
0.000434504
4.45157e-07
0.000434358
5.86428e-07
0.000434319
7.13468e-07
0.000434359
8.24589e-07
0.000434449
9.1774e-07
0.000434566
9.9169e-07
0.000434684
1.04243e-06
0.00043478
1.0691e-06
0.000434831
1.07043e-06
0.000434813
1.04625e-06
0.000434703
9.971e-07
0.000434474
9.21448e-07
0.000434097
8.2363e-07
0.000433543
7.07702e-07
0.000432776
5.76118e-07
0.000431754
4.3487e-07
0.000430431
2.89698e-07
0.000428751
1.45271e-07
0.000426647
5.67522e-09
0.000424041
-1.24142e-07
0.000420835
-2.40292e-07
0.000416918
-3.38981e-07
0.000412134
-4.17408e-07
0.000406324
-4.73722e-07
0.000399227
-5.07083e-07
0.000390608
-5.17761e-07
0.000380009
-5.07099e-07
0.000367056
-4.77354e-07
0.000350966
-4.31876e-07
0.00033095
-3.7421e-07
0.000305992
-3.09086e-07
0.000273727
-2.40363e-07
0.000234439
-1.73865e-07
0.000181431
-1.12575e-07
0.000122042
-5.88907e-08
5.19209e-05
-1.04801e-08
3.4013e-08
0.000501821
1.59249e-06
-1.89381e-06
0.000502504
4.38426e-06
-5.06727e-06
0.000503466
7.29227e-06
-8.25464e-06
0.000504607
8.99742e-06
-1.01384e-05
0.000505766
8.77328e-06
-9.93239e-06
0.000506829
6.73839e-06
-7.80095e-06
0.00050771
3.03285e-06
-3.91398e-06
0.000508345
-2.11418e-06
1.47891e-06
0.000508684
-8.4698e-06
8.13117e-06
0.000508689
-1.57926e-05
1.57879e-05
0.000508331
-2.38752e-05
2.42326e-05
0.000507591
-3.253e-05
3.32699e-05
0.000506454
-4.1595e-05
4.27319e-05
0.000504911
-5.093e-05
5.24731e-05
0.000502957
-6.04136e-05
6.23679e-05
0.000500591
-6.994e-05
7.23065e-05
0.000497814
-7.94157e-05
8.21922e-05
0.000494633
-8.8757e-05
9.1938e-05
0.000491056
-9.78869e-05
0.000101464
0.000487094
-0.000106733
0.000110695
0.000482762
-0.000115228
0.00011956
0.000478077
-0.000123303
0.000127989
0.000473058
-0.000130895
0.000135914
0.000467729
-0.000137939
0.000143268
0.000462115
-0.000144373
0.000149987
0.000456246
-0.000150139
0.000156008
0.000450151
-0.000155182
0.000161276
0.000443865
-0.000159457
0.000165743
0.000437421
-0.000162925
0.000169368
0.000430857
-0.000165561
0.000172126
0.000424207
-0.000167353
0.000174003
0.000417507
-0.0001683
0.000174999
0.000410794
-0.000168418
0.000175132
0.0004041
-0.000167734
0.000174427
0.00039746
-0.000166283
0.000172924
0.000390903
-0.000164111
0.000170668
0.00038446
-0.000161266
0.000167709
0.000378157
-0.000157797
0.000164099
0.000372021
-0.000153753
0.000159889
0.000366075
-0.000149183
0.000155129
0.00036034
-0.00014413
0.000149865
0.000354835
-0.00013864
0.000144144
0.000349578
-0.000132753
0.00013801
0.000344582
-0.000126512
0.000131508
0.000339857
-0.000119959
0.000124684
0.000335411
-0.000113141
0.000117587
0.000331247
-0.000106107
0.00011027
0.000327366
-9.89104e-05
0.000102792
0.000323761
-9.16126e-05
9.52171e-05
0.000320425
-8.42797e-05
8.76165e-05
0.000317342
-7.69837e-05
8.00667e-05
0.000314494
-6.98006e-05
7.2648e-05
0.000311861
-6.28092e-05
6.54429e-05
0.000309415
-5.60877e-05
5.85333e-05
0.000307129
-4.97106e-05
5.19961e-05
0.000304974
-4.37457e-05
4.59009e-05
0.000302918
-3.82509e-05
4.03067e-05
0.000300931
-3.32726e-05
3.52598e-05
0.000298983
-2.88445e-05
3.07932e-05
0.000297043
-2.49885e-05
2.69278e-05
0.000295085
-2.17135e-05
2.36713e-05
0.000293083
-1.90159e-05
2.10182e-05
0.000291013
-1.68825e-05
1.89532e-05
0.000288851
-1.52934e-05
1.74545e-05
0.00028658
-1.42255e-05
1.64973e-05
0.000284178
-1.36541e-05
1.60555e-05
0.000281629
-1.35555e-05
1.61045e-05
0.000278915
-1.39083e-05
1.66221e-05
0.00027602
-1.46941e-05
1.75899e-05
0.000272925
-1.59036e-05
1.89986e-05
0.000269613
-1.75312e-05
2.08433e-05
0.000266065
-1.95811e-05
2.31289e-05
0.000262261
-2.20649e-05
2.58683e-05
0.000258181
-2.50035e-05
2.90836e-05
0.000253802
-2.84275e-05
3.28072e-05
0.000249097
-3.23773e-05
3.70817e-05
0.000244041
-3.6905e-05
4.19615e-05
0.000238602
-4.20801e-05
4.75188e-05
0.000232748
-4.79814e-05
5.38354e-05
0.000226442
-5.47208e-05
6.10269e-05
0.000219643
-6.2413e-05
6.92121e-05
0.000212306
-7.12409e-05
7.85779e-05
0.00020438
-8.13612e-05
8.92872e-05
0.00019581
-9.30911e-05
0.000101661
0.000186532
-0.000106626
0.000115903
0.000176482
-0.000122555
0.000132605
0.00016558
-0.000141054
0.000151956
0.000153757
-0.000163318
0.00017514
0.000140926
-0.000189272
0.000202104
0.000127032
-0.000221529
0.000235423
0.000112025
-0.000258943
0.00027395
9.58861e-05
-0.000307562
0.000323701
7.89197e-05
-0.000362897
0.000379864
6.09245e-05
-0.000437531
0.000455526
4.40249e-05
-0.00052172
0.000538619
2.65681e-05
-0.000625192
0.000642648
1.71902e-05
-0.000755148
0.000764526
6.54585e-06
-0.00081246
0.000823104
5.85714e-06