/*--------------------------------*- C++ -*----------------------------------*\
  =========                 |
  \\      /  F ield         | OpenFOAM: The Open Source CFD Toolbox
   \\    /   O peration     | Website:  https://openfoam.org
    \\  /    A nd           | Version:  10
     \\/     M anipulation  |
\*---------------------------------------------------------------------------*/
FoamFile
{
    format      ascii;
    class       volScalarField;
    location    "5";
    object      p;
}
// * * * * * * * * * * * * * * * * * * * * * * * * * * * * * * * * * * * * * //

dimensions      [0 2 -2 0 0 0 0];

internalField   nonuniform List<scalar> 
800
(
-0.296173
-0.293094
-0.298328
-0.300424
-0.316315
-0.32348
-0.378011
-0.397084
-0.493128
-1.17664
-0.301321
-0.298761
-0.304287
-0.307318
-0.324928
-0.334185
-0.394107
-0.429516
-0.593276
-0.557381
-0.306079
-0.304135
-0.310581
-0.315739
-0.336655
-0.353171
-0.423735
-0.465243
-0.663601
-0.63959
-0.310474
-0.309337
-0.316858
-0.324542
-0.348362
-0.372137
-0.452056
-0.505144
-0.67475
-0.620783
-0.314531
-0.314331
-0.322837
-0.33282
-0.358986
-0.388322
-0.474225
-0.544245
-0.67681
-0.668766
-0.318245
-0.319065
-0.328507
-0.340647
-0.369452
-0.404656
-0.496775
-0.576655
-0.687625
-0.688151
-0.321608
-0.323496
-0.333824
-0.34777
-0.378825
-0.417944
-0.51711
-0.59918
-0.711367
-0.70092
-0.324637
-0.327633
-0.338845
-0.35447
-0.388324
-0.432084
-0.54093
-0.620991
-0.74104
-0.696725
-0.327341
-0.331464
-0.343481
-0.360216
-0.395889
-0.440315
-0.555071
-0.630394
-0.770314
-0.680278
-0.329771
-0.335111
-0.347979
-0.365903
-0.404267
-0.453756
-0.579075
-0.667247
-0.804592
-0.638315
-0.232236
-0.215026
-0.21013
-0.189413
-0.170923
-0.127257
-0.0769211
0.033091
0.115526
0.337716
-0.240232
-0.224184
-0.220911
-0.20213
-0.188058
-0.148503
-0.11183
-0.0107805
0.0389265
0.26412
-0.247603
-0.233204
-0.231861
-0.216603
-0.20897
-0.177834
-0.156091
-0.0636835
-0.02605
0.20867
-0.254157
-0.241519
-0.241924
-0.230243
-0.228314
-0.205272
-0.195605
-0.115133
-0.0978479
0.143767
-0.260389
-0.249417
-0.251362
-0.242778
-0.245833
-0.229794
-0.233394
-0.168374
-0.176814
0.0603236
-0.266619
-0.257194
-0.260479
-0.254491
-0.262013
-0.252348
-0.271188
-0.22038
-0.260291
-0.0253064
-0.272862
-0.26491
-0.269287
-0.265601
-0.276895
-0.273234
-0.305366
-0.271654
-0.346916
-0.155931
-0.279015
-0.272486
-0.277676
-0.276047
-0.290372
-0.291436
-0.334591
-0.315541
-0.432105
-0.267121
-0.284964
-0.279798
-0.285424
-0.285619
-0.301614
-0.306897
-0.356506
-0.355378
-0.502295
-0.535625
-0.290697
-0.286761
-0.292475
-0.294083
-0.310999
-0.318469
-0.373326
-0.377571
-0.511214
-0.698878
-0.290696
-0.28676
-0.292474
-0.294082
-0.310998
-0.318468
-0.373325
-0.37757
-0.511213
-0.698877
-0.284964
-0.279797
-0.285423
-0.285618
-0.301613
-0.306896
-0.356505
-0.355378
-0.502294
-0.535625
-0.279014
-0.272486
-0.277675
-0.276047
-0.290371
-0.291435
-0.33459
-0.31554
-0.432105
-0.26712
-0.272861
-0.264909
-0.269286
-0.2656
-0.276894
-0.273234
-0.305365
-0.271653
-0.346915
-0.155931
-0.266619
-0.257193
-0.260478
-0.25449
-0.262012
-0.252347
-0.271188
-0.220379
-0.260291
-0.0253058
-0.260389
-0.249416
-0.251362
-0.242778
-0.245832
-0.229793
-0.233393
-0.168373
-0.176813
0.0603242
-0.254157
-0.241518
-0.241923
-0.230242
-0.228313
-0.205272
-0.195604
-0.115132
-0.0978473
0.143768
-0.247602
-0.233203
-0.23186
-0.216602
-0.20897
-0.177834
-0.15609
-0.0636829
-0.0260494
0.20867
-0.240232
-0.224183
-0.22091
-0.20213
-0.188057
-0.148502
-0.111829
-0.01078
0.038927
0.26412
-0.232236
-0.215025
-0.210129
-0.189412
-0.170922
-0.127256
-0.0769205
0.0330916
0.115526
0.337717
-0.32977
-0.33511
-0.347979
-0.365902
-0.404266
-0.453755
-0.579075
-0.667247
-0.804592
-0.638314
-0.32734
-0.331463
-0.34348
-0.360215
-0.395888
-0.440314
-0.555071
-0.630394
-0.770314
-0.680278
-0.324636
-0.327632
-0.338844
-0.354469
-0.388323
-0.432083
-0.540929
-0.620991
-0.74104
-0.696724
-0.321607
-0.323496
-0.333823
-0.347769
-0.378824
-0.417943
-0.517109
-0.59918
-0.711367
-0.700919
-0.318245
-0.319065
-0.328507
-0.340646
-0.369451
-0.404656
-0.496774
-0.576654
-0.687624
-0.68815
-0.31453
-0.31433
-0.322836
-0.332819
-0.358985
-0.388321
-0.474225
-0.544244
-0.676809
-0.668766
-0.310473
-0.309336
-0.316857
-0.324541
-0.348361
-0.372136
-0.452055
-0.505144
-0.674749
-0.620782
-0.306078
-0.304134
-0.31058
-0.315738
-0.336654
-0.35317
-0.423735
-0.465242
-0.6636
-0.639589
-0.30132
-0.29876
-0.304286
-0.307317
-0.324927
-0.334184
-0.394106
-0.429515
-0.593275
-0.55738
-0.296172
-0.293093
-0.298327
-0.300423
-0.316314
-0.323479
-0.37801
-0.397084
-0.493127
-1.17663
-0.185653
-0.164659
-0.154023
-0.133698
-0.112694
-0.0813631
-0.0380643
0.0239512
0.100948
0.194299
-0.140511
-0.123142
-0.111537
-0.0918653
-0.0711797
-0.0445863
-0.0174334
0.0154131
0.0392802
0.067617
-0.108904
-0.097814
-0.0908902
-0.0800621
-0.0690491
-0.0569908
-0.043409
-0.03091
-0.0185614
-0.0103834
-0.0921669
-0.0840981
-0.0793116
-0.0713636
-0.0643868
-0.0562372
-0.0494006
-0.0425224
-0.0380651
-0.035046
-0.0830073
-0.0791886
-0.0768396
-0.0733239
-0.0699108
-0.0664778
-0.0630329
-0.0602045
-0.0578394
-0.0566156
-0.0769718
-0.0739386
-0.0723439
-0.06961
-0.0674547
-0.0650141
-0.063143
-0.0613958
-0.0603339
-0.0597125
-0.0747384
-0.0737841
-0.0731308
-0.0722004
-0.0712727
-0.0704117
-0.0694666
-0.0688538
-0.0682749
-0.0680319
-0.0724239
-0.0712782
-0.0707005
-0.0697588
-0.0690126
-0.0682332
-0.0675893
-0.067048
-0.0666814
-0.0664804
-0.0722974
-0.0722161
-0.0720623
-0.0718907
-0.0716649
-0.071456
-0.071229
-0.0710444
-0.0708885
-0.0708052
-0.0711386
-0.0706972
-0.0704407
-0.0700571
-0.0697259
-0.0693853
-0.0690887
-0.06883
-0.0686429
-0.0685354
-0.00577038
-0.00577543
-0.00577534
-0.00577593
-0.00577445
-0.00577282
-0.00577059
-0.00576854
-0.00576684
-0.00576593
-0.0180095
-0.0180158
-0.0180095
-0.0180038
-0.0179925
-0.0179805
-0.0179673
-0.0179554
-0.0179461
-0.0179411
-0.0308354
-0.0308559
-0.0308499
-0.0308433
-0.0308257
-0.0308043
-0.0307793
-0.030756
-0.0307374
-0.0307274
-0.0360042
-0.0359438
-0.03582
-0.0356634
-0.0354632
-0.0352416
-0.0350079
-0.0347924
-0.0346223
-0.0345304
-0.0694928
-0.0695159
-0.0694362
-0.0693248
-0.0691361
-0.068895
-0.0686084
-0.0683269
-0.0680924
-0.0679652
-0.0476709
-0.0471903
-0.0462791
-0.0451003
-0.0435564
-0.0417453
-0.0397326
-0.0378001
-0.0362179
-0.0353772
-0.129022
-0.130875
-0.131499
-0.132289
-0.132583
-0.132425
-0.131703
-0.130518
-0.129024
-0.128043
-0.0951542
-0.0943678
-0.0915386
-0.0876878
-0.0818556
-0.0742657
-0.0649645
-0.0556623
-0.0475369
-0.0435496
-0.215176
-0.236029
-0.245699
-0.26348
-0.280916
-0.299435
-0.316216
-0.323856
-0.317076
-0.302724
-0.355002
-0.374077
-0.393762
-0.417886
-0.454473
-0.482211
-0.523577
-0.534759
-0.55303
-0.528369
-0.0711386
-0.0706972
-0.0704407
-0.0700571
-0.0697259
-0.0693854
-0.0690888
-0.06883
-0.068643
-0.0685354
-0.0722975
-0.0722161
-0.0720623
-0.0718907
-0.0716649
-0.071456
-0.071229
-0.0710444
-0.0708885
-0.0708052
-0.072424
-0.0712783
-0.0707006
-0.0697589
-0.0690126
-0.0682332
-0.0675893
-0.067048
-0.0666814
-0.0664804
-0.0747384
-0.0737842
-0.0731309
-0.0722005
-0.0712727
-0.0704117
-0.0694666
-0.0688538
-0.0682749
-0.0680319
-0.0769719
-0.0739387
-0.072344
-0.0696101
-0.0674548
-0.0650142
-0.063143
-0.0613959
-0.0603339
-0.0597125
-0.0830074
-0.0791887
-0.0768397
-0.0733241
-0.0699109
-0.0664779
-0.063033
-0.0602045
-0.0578395
-0.0566156
-0.0921672
-0.0840983
-0.0793118
-0.0713638
-0.064387
-0.0562373
-0.0494008
-0.0425225
-0.0380652
-0.035046
-0.108904
-0.0978144
-0.0908905
-0.0800624
-0.0690494
-0.0569911
-0.0434092
-0.0309102
-0.0185615
-0.0103834
-0.140512
-0.123142
-0.111537
-0.0918658
-0.0711801
-0.0445867
-0.0174337
0.0154129
0.0392801
0.067617
-0.185654
-0.16466
-0.154024
-0.133699
-0.112695
-0.0813637
-0.0380648
0.0239508
0.100947
0.194299
-0.355003
-0.374078
-0.393763
-0.417887
-0.454473
-0.482212
-0.523577
-0.534759
-0.55303
-0.528369
-0.215177
-0.236029
-0.245699
-0.26348
-0.280917
-0.299435
-0.316216
-0.323856
-0.317076
-0.302724
-0.0951543
-0.0943679
-0.0915388
-0.0876879
-0.0818557
-0.0742657
-0.0649646
-0.0556624
-0.047537
-0.0435496
-0.129022
-0.130875
-0.131499
-0.132289
-0.132583
-0.132425
-0.131703
-0.130518
-0.129024
-0.128043
-0.047671
-0.0471904
-0.0462791
-0.0451003
-0.0435564
-0.0417453
-0.0397326
-0.0378001
-0.0362179
-0.0353772
-0.0694929
-0.0695159
-0.0694362
-0.0693249
-0.0691362
-0.068895
-0.0686084
-0.0683269
-0.0680924
-0.0679652
-0.0360043
-0.0359439
-0.0358201
-0.0356634
-0.0354632
-0.0352417
-0.0350079
-0.0347924
-0.0346223
-0.0345304
-0.0308354
-0.0308559
-0.0308499
-0.0308433
-0.0308256
-0.0308043
-0.0307793
-0.030756
-0.0307374
-0.0307274
-0.0180095
-0.0180158
-0.0180095
-0.0180038
-0.0179925
-0.0179805
-0.0179673
-0.0179554
-0.0179461
-0.0179411
-0.00577038
-0.00577543
-0.00577534
-0.00577593
-0.00577444
-0.00577282
-0.00577059
-0.00576854
-0.00576684
-0.00576593
)
;

boundaryField
{
    inlet
    {
        type            zeroGradient;
    }
    outlet
    {
        type            fixedValue;
        value           uniform 0;
    }
    polygon
    {
        type            zeroGradient;
    }
    top
    {
        type            symmetryPlane;
    }
    bottom
    {
        type            symmetryPlane;
    }
    outside
    {
        type            slip;
    }
}


// ************************************************************************* //
