/*--------------------------------*- C++ -*----------------------------------*\
  =========                 |
  \\      /  F ield         | OpenFOAM: The Open Source CFD Toolbox
   \\    /   O peration     | Website:  https://openfoam.org
    \\  /    A nd           | Version:  10
     \\/     M anipulation  |
\*---------------------------------------------------------------------------*/
FoamFile
{
    format      ascii;
    class       surfaceScalarField;
    location    "5";
    object      phi;
}
// * * * * * * * * * * * * * * * * * * * * * * * * * * * * * * * * * * * * * //

dimensions      [0 3 -1 0 0 0 0];

internalField   nonuniform List<scalar> 
1520
(
-0.0012167
0.0184091
-0.0177543
-0.00187969
0.0184669
-0.0178039
-0.00255931
0.0184812
-0.0178016
-0.00327133
0.0185758
-0.0178637
-0.00404156
0.0187021
-0.0179318
-0.00486425
0.0189633
-0.0181406
-0.00585611
0.0192219
-0.01823
-0.00680669
0.0199515
-0.0190009
-0.00701797
0.018931
-0.0187197
0.0131424
-0.0201604
-0.0012213
0.0190631
-0.00188581
0.0191314
-0.00256853
0.0191639
-0.00328498
0.0192922
-0.00405813
0.0194752
-0.0048942
0.0197994
-0.0058615
0.0201892
-0.00639844
0.0204884
-0.0055634
0.0180959
0.00757904
-0.00122489
0.019716
-0.00189053
0.019797
-0.00257713
0.0198505
-0.0033019
0.020017
-0.00408175
0.0202551
-0.00492589
0.0206435
-0.00579577
0.021059
-0.00601791
0.0207106
-0.0043707
0.0164487
0.00320834
-0.00122709
0.0203673
-0.00189317
0.0204631
-0.0025819
0.0205392
-0.0033104
0.0207455
-0.0040936
0.0210383
-0.0049182
0.0214681
-0.00563057
0.0217714
-0.0055051
0.0205851
-0.00323055
0.0141742
-2.22089e-05
-0.00122761
0.021016
-0.00189383
0.0211293
-0.00258496
0.0212304
-0.00331861
0.0214791
-0.0041031
0.0218228
-0.00488702
0.0222521
-0.00541569
0.0223001
-0.00490444
0.0200738
-0.00229975
0.0115695
-0.00232196
-0.00122696
0.021662
-0.00189247
0.0217948
-0.00258278
0.0219207
-0.0033112
0.0222075
-0.00407493
0.0225865
-0.00478504
0.0229622
-0.00513281
0.0226478
-0.00426843
0.0192095
-0.00165206
0.0089531
-0.00397402
-0.00122419
0.0223049
-0.00188858
0.0224592
-0.00257915
0.0226113
-0.00330762
0.022936
-0.00406259
0.0233415
-0.00469686
0.0235964
-0.0048395
0.0227905
-0.0036314
0.0180014
-0.00120238
0.00652407
-0.0051764
-0.0012212
0.0229449
-0.00188384
0.0231218
-0.00257022
0.0232976
-0.00328081
0.0236466
-0.00398581
0.0240465
-0.00449208
0.0241027
-0.00444113
0.0227395
-0.00301331
0.0165736
-0.000852829
0.00436359
-0.00602923
-0.00121443
0.0235807
-0.00187434
0.0237817
-0.00255875
0.0239821
-0.00326451
0.0243524
-0.00395271
0.0247347
-0.00438381
0.0245338
-0.004125
0.0224807
-0.00253117
0.0149797
-0.000592337
0.00242476
-0.00662157
-0.00121146
0.0242153
-0.0018704
0.0244407
-0.00254593
0.0246576
-0.00322121
0.0250276
-0.00380571
0.0253192
-0.00404947
0.0247776
-0.00352306
0.0219543
-0.00196884
0.0134255
-0.000403488
0.000859407
-0.00702505
-2.33133e-05
0.0222557
-0.0227255
0.000411478
0.0220695
-0.0225043
0.000819148
0.0219314
-0.0223391
0.00116716
0.0215865
-0.0219345
0.00142289
0.0212067
-0.0214624
0.0015346
0.0203371
-0.0204488
0.00141416
0.0192207
-0.0191002
0.00106595
0.0169547
-0.0166065
0.000488754
0.0145513
-0.0139741
0.00809938
-0.00761063
-2.85286e-05
0.0217799
0.000412219
0.0216287
0.000826466
0.0215172
0.00117882
0.0212342
0.00143937
0.0209461
0.00155286
0.0202236
0.00145453
0.019319
0.00109051
0.0173188
0.000567458
0.0150744
0.00866684
-3.27164e-05
0.0212989
0.000415011
0.021181
0.00083726
0.021095
0.00120074
0.0208707
0.00147976
0.0206671
0.00161481
0.0200885
0.00154221
0.0193916
0.00116159
0.0176994
0.00057993
0.0156561
0.00924677
-3.57026e-05
0.0208125
0.000419961
0.0207254
0.000852169
0.0206627
0.00122981
0.020493
0.00153178
0.0203651
0.00168875
0.0199316
0.00164997
0.0194304
0.00126154
0.0180878
0.00065004
0.0162675
0.00989681
-3.75488e-05
0.0203202
0.000426271
0.0202615
0.00086957
0.0202194
0.00126274
0.0200999
0.0015879
0.02004
0.00177377
0.0197457
0.00178033
0.0194238
0.00142273
0.0184454
0.000779914
0.0169104
0.0106767
-3.78758e-05
0.0198213
0.000434756
0.0197889
0.000890702
0.0197635
0.0013009
0.0196897
0.00165559
0.0196853
0.00188039
0.0195209
0.0019533
0.0193509
0.00161815
0.0187806
0.00099638
0.0175321
0.0116731
-3.74335e-05
0.0193158
0.000444146
0.0193073
0.000912486
0.0192952
0.0013404
0.0192618
0.00172387
0.0193018
0.00199246
0.0192523
0.00213037
0.019213
0.00189389
0.019017
0.0012577
0.0181683
0.0129308
-3.48692e-05
0.0188027
0.000456751
0.0188157
0.000940409
0.0188115
0.00138804
0.0188141
0.00181105
0.0188788
0.00212976
0.0189336
0.00236778
0.018975
0.00221233
0.0191725
0.00175441
0.0186262
0.0146852
-3.3269e-05
0.0182827
0.000466813
0.0183156
0.000961811
0.0183165
0.0014257
0.0183502
0.00187307
0.0184314
0.00223372
0.0185729
0.00255039
0.0186583
0.00256903
0.0191538
0.00221891
0.0189764
0.0169041
-2.67474e-05
0.000485012
0.000999954
0.00148646
0.00198605
0.00241836
0.00284666
0.00299961
0.00325629
-2.67474e-05
-0.0182827
0.0177543
0.000485012
-0.0183156
0.0178039
0.000999954
-0.0183165
0.0178016
0.00148646
-0.0183502
0.0178637
0.00198605
-0.0184314
0.0179318
0.00241836
-0.0185729
0.0181406
0.00284666
-0.0186583
0.01823
0.00299961
-0.0191538
0.0190009
0.00325629
-0.0189764
0.0187197
-0.0169041
0.0201604
-3.3269e-05
-0.0188027
0.000466813
-0.0188157
0.000961811
-0.0188115
0.0014257
-0.0188141
0.00187307
-0.0188788
0.00223372
-0.0189336
0.00255039
-0.018975
0.00256903
-0.0191725
0.00221891
-0.0186262
-0.0146852
-3.48692e-05
-0.0193158
0.000456751
-0.0193073
0.000940409
-0.0192952
0.00138804
-0.0192618
0.00181105
-0.0193018
0.00212976
-0.0192523
0.00236778
-0.019213
0.00221233
-0.019017
0.00175441
-0.0181683
-0.0129308
-3.74335e-05
-0.0198213
0.000444146
-0.0197889
0.000912486
-0.0197635
0.0013404
-0.0196897
0.00172387
-0.0196853
0.00199246
-0.0195209
0.00213037
-0.0193509
0.00189389
-0.0187806
0.0012577
-0.0175321
-0.0116731
-3.78758e-05
-0.0203202
0.000434756
-0.0202615
0.000890702
-0.0202194
0.0013009
-0.0200999
0.00165559
-0.02004
0.00188039
-0.0197457
0.0019533
-0.0194238
0.00161815
-0.0184454
0.00099638
-0.0169104
-0.0106767
-3.75488e-05
-0.0208125
0.000426271
-0.0207254
0.00086957
-0.0206627
0.00126274
-0.020493
0.0015879
-0.0203651
0.00177377
-0.0199316
0.00178033
-0.0194304
0.00142273
-0.0180878
0.000779914
-0.0162675
-0.00989681
-3.57026e-05
-0.0212989
0.000419961
-0.021181
0.000852169
-0.021095
0.00122981
-0.0208707
0.00153178
-0.0206671
0.00168875
-0.0200885
0.00164997
-0.0193916
0.00126154
-0.0176994
0.00065004
-0.0156561
-0.00924677
-3.27164e-05
-0.0217799
0.000415011
-0.0216287
0.00083726
-0.0215172
0.00120074
-0.0212342
0.00147976
-0.0209461
0.00161481
-0.0202236
0.00154221
-0.019319
0.00116159
-0.0173188
0.00057993
-0.0150744
-0.00866684
-2.85286e-05
-0.0222557
0.000412219
-0.0220695
0.000826466
-0.0219314
0.00117882
-0.0215865
0.00143937
-0.0212067
0.00155286
-0.0203371
0.00145453
-0.0192207
0.00109051
-0.0169547
0.000567458
-0.0145513
-0.00809938
-2.33133e-05
-0.0227255
0.000411478
-0.0225043
0.000819148
-0.0223391
0.00116716
-0.0219345
0.00142289
-0.0214624
0.0015346
-0.0204488
0.00141416
-0.0191002
0.00106595
-0.0166065
0.000488754
-0.0139741
-0.00761063
-0.00121146
-0.0235807
0.0242153
-0.0018704
-0.0237817
0.0244407
-0.00254593
-0.0239821
0.0246576
-0.00322121
-0.0243524
0.0250276
-0.00380571
-0.0247347
0.0253192
-0.00404947
-0.0245338
0.0247776
-0.00352306
-0.0224807
0.0219543
-0.00196884
-0.0149797
0.0134255
-0.000403488
-0.00242476
0.000859407
0.00662157
-0.00702505
-0.00121443
-0.0229449
-0.00187434
-0.0231218
-0.00255875
-0.0232976
-0.00326451
-0.0236466
-0.00395271
-0.0240465
-0.00438381
-0.0241027
-0.004125
-0.0227395
-0.00253117
-0.0165736
-0.000592337
-0.00436359
0.00602923
-0.0012212
-0.0223049
-0.00188384
-0.0224592
-0.00257022
-0.0226113
-0.00328081
-0.022936
-0.00398581
-0.0233415
-0.00449208
-0.0235964
-0.00444113
-0.0227905
-0.00301331
-0.0180014
-0.000852829
-0.00652407
0.0051764
-0.00122419
-0.021662
-0.00188858
-0.0217948
-0.00257915
-0.0219207
-0.00330762
-0.0222075
-0.00406259
-0.0225865
-0.00469686
-0.0229622
-0.0048395
-0.0226478
-0.0036314
-0.0192095
-0.00120238
-0.0089531
0.00397402
-0.00122696
-0.021016
-0.00189247
-0.0211293
-0.00258278
-0.0212304
-0.0033112
-0.0214791
-0.00407493
-0.0218228
-0.00478504
-0.0222521
-0.00513281
-0.0223001
-0.00426843
-0.0200738
-0.00165206
-0.0115695
0.00232196
-0.00122761
-0.0203673
-0.00189383
-0.0204631
-0.00258496
-0.0205392
-0.00331861
-0.0207455
-0.0041031
-0.0210383
-0.00488702
-0.0214681
-0.00541569
-0.0217714
-0.00490444
-0.0205851
-0.00229975
-0.0141742
2.22089e-05
-0.00122709
-0.019716
-0.00189317
-0.019797
-0.0025819
-0.0198505
-0.0033104
-0.020017
-0.0040936
-0.0202551
-0.0049182
-0.0206435
-0.00563057
-0.021059
-0.0055051
-0.0207106
-0.00323055
-0.0164487
-0.00320834
-0.00122489
-0.0190631
-0.00189053
-0.0191314
-0.00257713
-0.0191639
-0.0033019
-0.0192922
-0.00408175
-0.0194752
-0.00492589
-0.0197994
-0.00579577
-0.0201892
-0.00601791
-0.0204884
-0.0043707
-0.0180959
-0.00757904
-0.0012213
-0.0184091
-0.00188581
-0.0184669
-0.00256853
-0.0184812
-0.00328498
-0.0185758
-0.00405813
-0.0187021
-0.0048942
-0.0189633
-0.0058615
-0.0192219
-0.00639844
-0.0199515
-0.0055634
-0.018931
-0.0131424
-0.0012167
-0.00187969
-0.00255931
-0.00327133
-0.00404156
-0.00486425
-0.00585611
-0.00680669
-0.00701797
-0.00592402
-0.0215725
-0.00713458
-0.0212937
-0.00843139
-0.0210423
-0.00968861
-0.0206773
-0.0108996
-0.0202515
-0.0116381
-0.0197102
-0.0117786
-0.0189597
-0.010392
-0.0179931
-0.0075701
-0.0167961
-0.0151807
-2.29824e-12
-0.00310376
-0.0209578
-0.00367186
-0.0207256
-0.00421018
-0.020504
-0.00468402
-0.0202035
-0.00506029
-0.0198752
-0.00527623
-0.0194943
-0.00513468
-0.0191013
-0.0044397
-0.0186881
-0.00290807
-0.0183277
-0.0180888
8.29245e-13
-0.00261706
-0.020497
-0.00298232
-0.0203604
-0.00324324
-0.0202431
-0.00335358
-0.0200931
-0.00329635
-0.0199324
-0.00302973
-0.0197609
-0.0025592
-0.0195718
-0.00186446
-0.0193828
-0.000965674
-0.0192265
-0.0190545
-2.54335e-13
-0.000767957
-0.0202929
-0.00092616
-0.0202022
-0.0010391
-0.0201301
-0.00110588
-0.0200263
-0.00111433
-0.019924
-0.00106768
-0.0198075
-0.000940331
-0.0196992
-0.0007259
-0.0195973
-0.000440291
-0.0195121
-0.0194948
2.58946e-12
-0.000992192
-0.0201551
-0.00108083
-0.0201135
-0.00113904
-0.0200719
-0.00114574
-0.0200196
-0.00110333
-0.0199664
-0.000996302
-0.0199146
-0.000826995
-0.0198685
-0.000591994
-0.0198323
-0.000288873
-0.0198152
-0.0197836
-3.30085e-12
-0.000241013
-0.0200665
-0.000322392
-0.0200321
-0.000383089
-0.0200112
-0.000418265
-0.0199845
-0.000417965
-0.0199667
-0.000381838
-0.0199507
-0.000311787
-0.0199385
-0.000219191
-0.0199248
-0.000125833
-0.0199086
-0.0199095
3.73794e-12
-0.00018067
-0.0200564
-0.000160855
-0.020052
-0.000126916
-0.0200452
-7.88785e-05
-0.0200325
-3.20377e-05
-0.0200135
5.52462e-06
-0.0199883
2.60688e-05
-0.0199591
3.1309e-05
-0.0199301
2.87125e-05
-0.019906
-0.0198808
-3.64105e-12
-0.000178963
-0.0200037
-0.000239241
-0.0199917
-0.000298482
-0.0199859
-0.000350652
-0.0199803
-0.000383198
-0.019981
-0.000384658
-0.0199868
-0.000347012
-0.0199967
-0.0002679
-0.0200092
-0.00015307
-0.0200208
-0.0200338
2.25401e-12
6.62719e-05
-0.0200214
0.00010031
-0.0200257
0.000141241
-0.0200269
0.000186677
-0.0200258
0.000224788
-0.0200191
0.000244379
-0.0200064
0.000236145
-0.0199885
0.000192878
-0.0199659
0.000114165
-0.0199421
-0.0199197
-1.62883e-12
-7.99888e-05
-0.00010571
-0.000132566
-0.000158329
-0.000177426
-0.000183816
-0.000172291
-0.000138226
-8.03364e-05
8.22356e-13
0.000113407
-0.0191414
0.000114134
-0.0191373
0.000112218
-0.0191316
0.000107258
-0.0191251
9.90752e-05
-0.0191184
8.73618e-05
-0.0191114
7.1604e-05
-0.0191038
5.13452e-05
-0.0190959
2.69244e-05
-0.0190889
-0.0190847
1.44561e-12
0.000340726
-0.0191477
0.000342678
-0.0191393
0.00033791
-0.0191268
0.000325229
-0.0191124
0.000303816
-0.019097
0.000272014
-0.0190796
0.000226847
-0.0190587
0.000165234
-0.0190343
8.75253e-05
-0.0190112
-0.0189972
2.39135e-12
0.000749804
-0.0191598
0.000752889
-0.0191424
0.000745145
-0.0191191
0.000724112
-0.0190914
0.000687158
-0.01906
0.000628549
-0.019021
0.000536951
-0.0189671
0.000399474
-0.0188968
0.00021437
-0.0188261
-0.0187828
5.85808e-12
0.00156212
-0.0191709
0.00156479
-0.019145
0.00155311
-0.0191074
0.00152284
-0.0190611
0.00146734
-0.0190045
0.0013713
-0.0189249
0.00120048
-0.0187963
0.000912194
-0.0186086
0.000495529
-0.0184094
-0.0182873
8.57806e-12
0.00299056
-0.0192189
0.0030204
-0.0191749
0.00303297
-0.01912
0.00302151
-0.0190496
0.00297068
-0.0189537
0.00284612
-0.0188004
0.0025597
-0.0185098
0.0019893
-0.0180382
0.0010939
-0.017514
-0.0171934
9.35367e-12
0.00470135
-0.0192612
0.00473779
-0.0192113
0.00477396
-0.0191561
0.00480512
-0.0190808
0.00480433
-0.0189529
0.00471571
-0.0187117
0.00436514
-0.0181593
0.00347755
-0.0171506
0.00193606
-0.0159725
-0.0152573
1.30998e-11
0.00679426
-0.0197301
0.00724207
-0.0196591
0.00769003
-0.0196041
0.00812218
-0.019513
0.00847012
-0.0193008
0.00862015
-0.0188618
0.00821777
-0.0177569
0.00668552
-0.0156183
0.0037451
-0.0130321
-0.0115122
1.64348e-11
0.00528323
-0.0202995
0.0059512
-0.0203271
0.006705
-0.0203579
0.00755927
-0.0203672
0.00841301
-0.0201546
0.00911136
-0.0195601
0.0091324
-0.0177779
0.00763891
-0.0141248
0.00424168
-0.00963487
-0.00727054
2.00735e-11
0.00611007
-0.0228255
0.00893887
-0.0231559
0.0119748
-0.0233938
0.0152586
-0.0236511
0.0186428
-0.0235388
0.0215461
-0.0224633
0.0227338
-0.0189657
0.02012
-0.0115109
0.0114013
-0.000916196
0.00413075
5.32889e-11
-0.00997183
-0.00868704
-0.00742327
-0.00604671
-0.00426631
-0.00195206
0.00103652
0.00295109
0.0028943
3.2808e-11
-7.99888e-05
0.0200214
-0.00010571
0.0200257
-0.000132566
0.0200269
-0.000158329
0.0200258
-0.000177426
0.0200191
-0.000183816
0.0200064
-0.000172291
0.0199885
-0.000138226
0.0199659
-8.03364e-05
0.0199421
0.0199197
6.62719e-05
0.0200037
0.00010031
0.0199917
0.000141241
0.0199859
0.000186677
0.0199803
0.000224788
0.019981
0.000244379
0.0199868
0.000236145
0.0199967
0.000192878
0.0200092
0.000114165
0.0200208
0.0200338
-0.000178963
0.0200564
-0.000239241
0.020052
-0.000298482
0.0200452
-0.000350652
0.0200325
-0.000383198
0.0200135
-0.000384658
0.0199883
-0.000347012
0.0199591
-0.0002679
0.0199301
-0.00015307
0.019906
0.0198808
-0.00018067
0.0200665
-0.000160855
0.0200321
-0.000126916
0.0200112
-7.88785e-05
0.0199845
-3.20377e-05
0.0199667
5.52463e-06
0.0199507
2.60688e-05
0.0199385
3.1309e-05
0.0199248
2.87125e-05
0.0199086
0.0199095
-0.000241013
0.0201551
-0.000322392
0.0201135
-0.000383089
0.0200719
-0.000418265
0.0200196
-0.000417965
0.0199664
-0.000381838
0.0199146
-0.000311787
0.0198685
-0.000219191
0.0198323
-0.000125833
0.0198152
0.0197836
-0.000992192
0.0202929
-0.00108083
0.0202022
-0.00113904
0.0201301
-0.00114574
0.0200263
-0.00110333
0.019924
-0.000996302
0.0198075
-0.000826995
0.0196992
-0.000591994
0.0195973
-0.000288873
0.0195121
0.0194948
-0.000767957
0.020497
-0.00092616
0.0203604
-0.0010391
0.0202431
-0.00110588
0.0200931
-0.00111433
0.0199324
-0.00106768
0.0197609
-0.000940331
0.0195718
-0.0007259
0.0193828
-0.000440291
0.0192265
0.0190545
-0.00261706
0.0209578
-0.00298232
0.0207256
-0.00324324
0.020504
-0.00335358
0.0202035
-0.00329635
0.0198752
-0.00302973
0.0194943
-0.0025592
0.0191013
-0.00186446
0.0186881
-0.000965674
0.0183277
0.0180888
-0.00310376
0.0215725
-0.00367186
0.0212937
-0.00421018
0.0210423
-0.00468402
0.0206773
-0.00506029
0.0202515
-0.00527623
0.0197102
-0.00513468
0.0189597
-0.0044397
0.0179931
-0.00290807
0.0167961
0.0151807
-0.00592402
-0.00713458
-0.00843139
-0.00968861
-0.0108996
-0.0116381
-0.0117786
-0.010392
-0.0075701
-0.00997183
0.0228255
-0.00868704
0.0231559
-0.00742327
0.0233938
-0.00604671
0.0236511
-0.00426631
0.0235388
-0.00195206
0.0224633
0.00103652
0.0189657
0.00295109
0.0115109
0.0028943
0.000916196
-0.00413075
0.00611007
0.0202995
0.00893887
0.0203271
0.0119748
0.0203579
0.0152586
0.0203672
0.0186428
0.0201546
0.0215461
0.0195601
0.0227338
0.0177779
0.02012
0.0141248
0.0114013
0.00963487
0.00727054
0.00528323
0.0197301
0.0059512
0.0196591
0.006705
0.0196041
0.00755927
0.019513
0.00841301
0.0193008
0.00911136
0.0188618
0.0091324
0.0177569
0.00763891
0.0156183
0.00424168
0.0130321
0.0115122
0.00679426
0.0192612
0.00724207
0.0192113
0.00769003
0.0191561
0.00812218
0.0190808
0.00847012
0.0189529
0.00862015
0.0187117
0.00821777
0.0181593
0.00668552
0.0171506
0.0037451
0.0159725
0.0152573
0.00470135
0.0192189
0.00473779
0.0191749
0.00477396
0.01912
0.00480512
0.0190496
0.00480433
0.0189537
0.00471571
0.0188004
0.00436514
0.0185098
0.00347755
0.0180382
0.00193606
0.017514
0.0171934
0.00299056
0.0191709
0.0030204
0.019145
0.00303297
0.0191074
0.00302151
0.0190611
0.00297068
0.0190045
0.00284612
0.0189249
0.0025597
0.0187963
0.0019893
0.0186086
0.0010939
0.0184094
0.0182873
0.00156212
0.0191598
0.00156479
0.0191424
0.00155311
0.0191191
0.00152284
0.0190914
0.00146734
0.01906
0.0013713
0.019021
0.00120048
0.0189671
0.000912194
0.0188968
0.000495529
0.0188261
0.0187828
0.000749804
0.0191477
0.000752889
0.0191393
0.000745145
0.0191268
0.000724112
0.0191124
0.000687158
0.019097
0.000628549
0.0190796
0.000536951
0.0190587
0.000399474
0.0190343
0.00021437
0.0190112
0.0189972
0.000340726
0.0191414
0.000342678
0.0191373
0.00033791
0.0191316
0.000325229
0.0191251
0.000303816
0.0191184
0.000272014
0.0191114
0.000226847
0.0191038
0.000165234
0.0190959
8.75253e-05
0.0190889
0.0190847
0.000113407
0.000114134
0.000112218
0.000107258
9.90752e-05
8.73618e-05
7.1604e-05
5.13452e-05
2.69244e-05
)
;

boundaryField
{
    inlet
    {
        type            calculated;
        value           uniform -0.02;
    }
    outlet
    {
        type            calculated;
        value           nonuniform List<scalar> 
20
(
0.019139
0.0191366
0.0191335
0.01913
0.0191266
0.0191231
0.0191196
0.0191162
0.0191133
0.0191116
0.019139
0.0191366
0.0191335
0.01913
0.0191266
0.0191231
0.0191196
0.0191162
0.0191133
0.0191116
)
;
    }
    polygon
    {
        type            calculated;
        value           uniform 0;
    }
    top
    {
        type            symmetryPlane;
        value           uniform 0;
    }
    bottom
    {
        type            symmetryPlane;
        value           uniform 0;
    }
    outside
    {
        type            calculated;
        value           nonuniform List<scalar> 
80
(
0.000561814
0.000567352
0.000571976
0.000575825
0.000578843
0.000580988
0.000581305
0.000581236
0.00057856
0.000576883
0.000493099
0.000504378
0.000513656
0.000522142
0.000529892
0.00053669
0.00054303
0.000547906
0.00055333
0.000555149
0.000555149
0.00055333
0.000547906
0.00054303
0.00053669
0.000529892
0.000522142
0.000513656
0.000504378
0.000493099
0.000576883
0.00057856
0.000581236
0.000581305
0.000580988
0.000578843
0.000575825
0.000571976
0.000567352
0.000561814
0.00477102
0.00248902
0.00215624
0.000563914
0.000854349
0.000152474
0.000170532
0.000126226
-4.85668e-05
5.86232e-05
-0.000110976
-0.000334456
-0.00073766
-0.00155107
-0.00294248
-0.00465913
-0.00632528
-0.00471383
-0.00358409
0.0113616
5.86232e-05
-4.85668e-05
0.000126226
0.000170532
0.000152474
0.000854349
0.000563914
0.00215624
0.00248902
0.00477102
0.0113616
-0.00358409
-0.00471383
-0.00632528
-0.00465913
-0.00294248
-0.00155107
-0.00073766
-0.000334456
-0.000110976
)
;
    }
}


// ************************************************************************* //
