/*--------------------------------*- C++ -*----------------------------------*\
  =========                 |
  \\      /  F ield         | OpenFOAM: The Open Source CFD Toolbox
   \\    /   O peration     | Website:  https://openfoam.org
    \\  /    A nd           | Version:  10
     \\/     M anipulation  |
\*---------------------------------------------------------------------------*/
FoamFile
{
    format      ascii;
    class       volVectorField;
    location    "5";
    object      U;
}
// * * * * * * * * * * * * * * * * * * * * * * * * * * * * * * * * * * * * * //

dimensions      [0 1 -1 0 0 0 0];

internalField   nonuniform List<vector> 
800
(
(1.18576 0.112875 -5.27395e-17)
(1.18933 0.135269 1.10775e-17)
(1.18976 0.144822 5.17489e-19)
(1.1946 0.164552 -2.44214e-17)
(1.20096 0.193682 4.1458e-17)
(1.21445 0.209348 9.56511e-18)
(1.22578 0.288833 2.83096e-17)
(1.27557 0.295179 -3.0187e-17)
(1.21371 0.386352 8.003e-18)
(1.22116 0.284967 7.06936e-17)
(1.18973 0.11391 -7.57793e-17)
(1.19357 0.135358 5.48721e-18)
(1.19463 0.145209 -5.0882e-17)
(1.20027 0.165301 -1.94714e-17)
(1.20892 0.193907 3.44605e-17)
(1.2228 0.212815 -3.96599e-18)
(1.24293 0.286049 -4.49653e-17)
(1.27571 0.290021 -7.42908e-18)
(1.17236 0.36635 7.93384e-17)
(0.555259 0.239543 -5.08264e-17)
(1.19334 0.114747 -6.53485e-17)
(1.19761 0.135231 5.24457e-18)
(1.19982 0.145238 -7.72044e-18)
(1.20752 0.165421 2.95957e-18)
(1.21996 0.193377 2.67716e-17)
(1.23869 0.213427 -3.44157e-18)
(1.26421 0.278214 1.19165e-17)
(1.25881 0.267728 3.18216e-18)
(1.07305 0.321704 5.59904e-17)
(0.335871 0.164954 -5.00809e-17)
(1.19661 0.115386 -4.83805e-17)
(1.2015 0.134838 4.39123e-18)
(1.20491 0.144685 -2.13736e-18)
(1.21461 0.164368 4.75699e-17)
(1.22931 0.190614 1.99696e-17)
(1.25018 0.209534 7.22686e-19)
(1.27259 0.265453 6.66022e-18)
(1.22419 0.244134 1.17046e-17)
(0.914205 0.28603 3.99471e-17)
(0.0688876 0.101739 -2.58243e-17)
(1.19959 0.115782 -5.26662e-17)
(1.20524 0.134117 3.36146e-18)
(1.20987 0.143683 -9.29937e-19)
(1.22186 0.162906 2.40433e-17)
(1.23959 0.187687 1.27743e-17)
(1.26227 0.204285 -1.01213e-17)
(1.27291 0.248546 1.6608e-17)
(1.17269 0.217889 1.403e-17)
(0.738537 0.244 2.64838e-17)
(-0.0727659 0.0770881 -9.67994e-18)
(1.20224 0.116005 -8.51148e-18)
(1.20872 0.133192 3.89298e-18)
(1.21447 0.142183 6.33199e-18)
(1.22802 0.160134 5.79962e-17)
(1.24643 0.181607 9.3053e-18)
(1.26481 0.19325 1.34977e-17)
(1.25575 0.226178 9.92542e-19)
(1.09863 0.191108 1.72646e-17)
(0.569244 0.206938 1.57016e-17)
(-0.185961 0.112102 -4.90777e-18)
(1.20461 0.115923 -9.34584e-18)
(1.21202 0.131804 5.23632e-18)
(1.21895 0.140215 3.07455e-19)
(1.23444 0.157172 4.12742e-17)
(1.25527 0.176552 1.98747e-18)
(1.27144 0.183771 -3.30281e-17)
(1.24184 0.2048 2.6282e-17)
(1.01545 0.160571 9.58345e-18)
(0.414156 0.173016 6.90875e-18)
(-0.25308 0.161184 -4.18666e-18)
(1.20662 0.115792 -7.10961e-19)
(1.21496 0.130487 -1.13712e-19)
(1.22295 0.138001 1.91326e-17)
(1.23925 0.152717 4.67394e-17)
(1.25826 0.166521 2.55043e-19)
(1.26069 0.164148 -1.27829e-17)
(1.19898 0.173754 -1.51857e-17)
(0.906882 0.126533 1.81691e-17)
(0.284496 0.14996 -1.64028e-17)
(-0.301769 0.198977 -1.06585e-17)
(1.20849 0.11516 -1.92897e-17)
(1.21787 0.128203 1.17531e-17)
(1.22691 0.134934 -1.62625e-17)
(1.24437 0.148101 6.50424e-18)
(1.2645 0.159919 -5.80851e-18)
(1.2613 0.152954 -4.33805e-17)
(1.17854 0.154232 7.40551e-17)
(0.822882 0.0925027 -2.35566e-18)
(0.178314 0.145854 -1.8193e-16)
(-0.332969 0.219909 -7.89719e-18)
(1.20985 0.114862 -4.43531e-17)
(1.22022 0.127001 -2.04949e-17)
(1.23028 0.132596 -1.08914e-17)
(1.24764 0.142479 5.8942e-18)
(1.26225 0.145558 -6.48299e-18)
(1.23474 0.122535 -3.20263e-17)
(1.10103 0.10706 2.21183e-18)
(0.684654 0.042722 -2.10907e-17)
(0.0646076 0.166568 -2.63153e-16)
(-0.331551 0.223596 -1.22463e-17)
(1.13673 0.100164 -6.59693e-17)
(1.12644 0.134764 -1.07052e-20)
(1.11785 0.149152 -6.12235e-18)
(1.09831 0.182569 -5.46842e-17)
(1.07498 0.214763 8.9855e-18)
(1.02629 0.257477 -2.46332e-17)
(0.959802 0.313677 3.10664e-18)
(0.835549 0.364075 2.92881e-18)
(0.699603 0.442212 8.88159e-18)
(0.371498 0.313329 1.63986e-19)
(1.14303 0.102098 -5.31194e-17)
(1.1341 0.136269 -3.23567e-18)
(1.12687 0.150818 -1.62438e-18)
(1.10963 0.184607 -4.18627e-17)
(1.09031 0.218775 6.44052e-18)
(1.04689 0.263568 1.00498e-18)
(0.991187 0.3275 -4.65037e-18)
(0.880649 0.38203 1.55451e-18)
(0.760726 0.483113 6.6977e-18)
(0.436122 0.348338 9.21875e-19)
(1.14868 0.103904 -5.21561e-17)
(1.14147 0.137404 4.41266e-18)
(1.1358 0.151898 -1.18057e-17)
(1.12208 0.185483 -4.53946e-17)
(1.1081 0.22094 3.18981e-18)
(1.07346 0.266451 -1.03991e-17)
(1.02851 0.337451 1.28631e-17)
(0.931249 0.396918 2.13388e-18)
(0.809465 0.519616 5.53756e-18)
(0.468151 0.379349 -3.48344e-20)
(1.1537 0.105539 -2.90753e-17)
(1.14824 0.13813 -1.27928e-17)
(1.144 0.152324 1.51654e-17)
(1.1338 0.18512 -1.29394e-17)
(1.12451 0.221217 2.86567e-18)
(1.09847 0.266151 1.5847e-17)
(1.0615 0.343637 -2.79591e-17)
(0.981989 0.405326 -8.07789e-19)
(0.863646 0.554776 3.54238e-18)
(0.519918 0.408802 6.31917e-19)
(1.15849 0.107021 2.69497e-18)
(1.15469 0.138508 2.76841e-17)
(1.15175 0.152228 1.38176e-17)
(1.14465 0.183854 -1.19816e-17)
(1.13963 0.220017 1.06434e-18)
(1.12109 0.263734 1.17011e-17)
(1.09464 0.345785 1.82346e-17)
(1.03398 0.409238 -1.31399e-18)
(0.925874 0.576943 3.72387e-17)
(0.566106 0.428925 2.34873e-18)
(1.16328 0.10831 4.43911e-18)
(1.16102 0.138473 -4.89093e-18)
(1.15922 0.151531 1.30513e-17)
(1.15491 0.181377 -8.63753e-18)
(1.15348 0.217134 -4.58218e-20)
(1.14299 0.257102 8.45951e-18)
(1.12677 0.342818 -1.48797e-17)
(1.08777 0.401402 4.89169e-19)
(0.992319 0.603071 2.45183e-18)
(0.661024 0.456063 4.38401e-18)
(1.16807 0.109501 -4.12514e-19)
(1.16727 0.138232 -5.35924e-18)
(1.16644 0.15061 5.88852e-18)
(1.16463 0.178646 -7.3708e-18)
(1.16662 0.213451 -7.1903e-19)
(1.16302 0.249866 8.98544e-18)
(1.15765 0.336768 -1.28412e-17)
(1.13942 0.393199 -1.03509e-17)
(1.06456 0.599033 -5.25205e-18)
(0.699696 0.450909 -7.06342e-18)
(1.17271 0.110389 8.62429e-18)
(1.17334 0.137438 -2.29863e-18)
(1.17321 0.148845 1.67859e-17)
(1.17385 0.174054 -7.33532e-18)
(1.1779 0.207584 -1.71734e-18)
(1.18222 0.236013 4.5983e-18)
(1.18178 0.323615 -8.06925e-18)
(1.19016 0.362382 6.48514e-18)
(1.14732 0.613067 1.15185e-17)
(0.903016 0.484895 2.61037e-17)
(1.17727 0.111377 -1.53257e-17)
(1.17914 0.136891 -8.92346e-18)
(1.17953 0.147677 -1.74135e-17)
(1.18213 0.171185 -1.20868e-18)
(1.18818 0.20321 -7.88443e-19)
(1.19705 0.228513 6.90654e-18)
(1.20419 0.313608 -9.54818e-18)
(1.23248 0.344898 -3.40244e-17)
(1.20077 0.560836 -1.77979e-17)
(0.930195 0.423187 -5.42957e-17)
(1.18144 0.111636 -3.87559e-17)
(1.18457 0.135084 7.45841e-18)
(1.18502 0.144344 -2.3199e-17)
(1.18964 0.163424 -1.62995e-17)
(1.19533 0.193592 2.29713e-19)
(1.21208 0.204747 2.87923e-18)
(1.2159 0.288615 4.88334e-18)
(1.2698 0.287514 -2.71162e-17)
(1.28929 0.544568 2.23067e-17)
(1.32856 0.453331 -3.8334e-17)
(1.18144 -0.111636 -3.11407e-17)
(1.18457 -0.135084 -2.91628e-17)
(1.18502 -0.144344 5.68414e-18)
(1.18964 -0.163424 -1.70613e-17)
(1.19533 -0.193592 -9.92869e-18)
(1.21208 -0.204747 8.66612e-18)
(1.2159 -0.288615 -2.09326e-17)
(1.2698 -0.287514 2.61514e-19)
(1.28929 -0.544568 2.37421e-17)
(1.32856 -0.453331 5.733e-18)
(1.17727 -0.111377 -7.00609e-18)
(1.17914 -0.136891 -1.56855e-17)
(1.17953 -0.147677 -3.35357e-18)
(1.18213 -0.171185 -2.88692e-17)
(1.18818 -0.20321 -4.21973e-18)
(1.19705 -0.228513 3.00523e-21)
(1.20419 -0.313608 -1.57467e-17)
(1.23248 -0.344898 -1.33892e-17)
(1.20077 -0.560836 2.60265e-17)
(0.930195 -0.423187 8.06515e-18)
(1.17271 -0.110389 -2.0734e-17)
(1.17334 -0.137438 -2.66222e-17)
(1.17321 -0.148845 3.67671e-19)
(1.17385 -0.174054 -3.26916e-17)
(1.1779 -0.207584 3.80935e-17)
(1.18222 -0.236013 2.5457e-18)
(1.18178 -0.323615 -2.1645e-17)
(1.19016 -0.362382 -8.43791e-18)
(1.14732 -0.613067 3.7652e-17)
(0.903016 -0.484895 1.07119e-17)
(1.16807 -0.109501 1.87433e-17)
(1.16727 -0.138232 -2.9345e-17)
(1.16644 -0.15061 -9.59191e-19)
(1.16463 -0.178646 -4.15929e-18)
(1.16662 -0.213451 3.18549e-17)
(1.16302 -0.249866 -1.46631e-18)
(1.15765 -0.336768 2.05257e-17)
(1.13942 -0.393199 -1.41529e-17)
(1.06456 -0.599033 -1.84476e-17)
(0.699696 -0.450909 1.75001e-17)
(1.16328 -0.10831 5.577e-18)
(1.16102 -0.138473 -3.71446e-17)
(1.15922 -0.151531 1.51599e-18)
(1.15491 -0.181377 1.506e-17)
(1.15348 -0.217134 4.63906e-17)
(1.14299 -0.257102 -9.8273e-19)
(1.12677 -0.342818 3.26809e-18)
(1.08777 -0.401402 1.73212e-17)
(0.992319 -0.603071 9.72434e-18)
(0.661024 -0.456063 -4.13175e-18)
(1.15849 -0.107021 1.27755e-17)
(1.15469 -0.138508 -4.17232e-17)
(1.15175 -0.152228 2.02819e-18)
(1.14465 -0.183854 1.01706e-17)
(1.13963 -0.220017 1.52201e-17)
(1.12109 -0.263734 2.95189e-17)
(1.09464 -0.345785 1.5485e-17)
(1.03398 -0.409238 6.5897e-18)
(0.925874 -0.576943 -4.93893e-18)
(0.566106 -0.428925 -4.30174e-18)
(1.1537 -0.105539 1.19948e-17)
(1.14824 -0.13813 -2.10541e-17)
(1.144 -0.152324 3.31947e-18)
(1.1338 -0.18512 1.62853e-17)
(1.12451 -0.221217 4.77937e-18)
(1.09847 -0.266151 -8.74834e-18)
(1.0615 -0.343637 -2.13345e-17)
(0.981989 -0.405326 1.10098e-17)
(0.863646 -0.554776 2.1445e-18)
(0.519918 -0.408802 6.52182e-18)
(1.14868 -0.103904 1.55751e-17)
(1.14147 -0.137404 -3.66342e-17)
(1.1358 -0.151898 3.77791e-18)
(1.12208 -0.185483 1.75395e-17)
(1.1081 -0.22094 1.08393e-17)
(1.07346 -0.266451 6.68619e-18)
(1.02851 -0.337451 1.90593e-17)
(0.931249 -0.396918 -2.43562e-18)
(0.809465 -0.519616 -7.37732e-19)
(0.468151 -0.379349 -2.52855e-17)
(1.14303 -0.102098 1.87296e-17)
(1.1341 -0.136269 -3.94119e-17)
(1.12687 -0.150818 6.92731e-18)
(1.10963 -0.184607 1.99778e-17)
(1.09031 -0.218775 1.10928e-17)
(1.04689 -0.263568 1.44475e-18)
(0.991187 -0.3275 3.67055e-18)
(0.880649 -0.38203 1.40152e-18)
(0.760726 -0.483113 1.10179e-18)
(0.436122 -0.348338 -3.87033e-17)
(1.13673 -0.100164 -4.3787e-18)
(1.12644 -0.134764 -7.57518e-17)
(1.11785 -0.149152 3.59282e-17)
(1.09831 -0.182569 -1.25493e-18)
(1.07498 -0.214763 1.2772e-17)
(1.02629 -0.257477 3.83516e-18)
(0.959802 -0.313677 1.19633e-17)
(0.835549 -0.364075 1.66757e-18)
(0.699603 -0.442212 -5.48112e-18)
(0.371498 -0.313329 -3.78838e-18)
(1.20985 -0.114862 -1.03211e-17)
(1.22022 -0.127001 3.26938e-17)
(1.23028 -0.132596 5.02204e-18)
(1.24764 -0.142479 -2.01198e-17)
(1.26225 -0.145558 -1.28869e-17)
(1.23474 -0.122535 -2.85975e-18)
(1.10103 -0.10706 -1.26403e-17)
(0.684654 -0.042722 -4.23081e-17)
(0.0646076 -0.166568 3.35477e-18)
(-0.331551 -0.223596 -2.30523e-16)
(1.20849 -0.11516 -1.37888e-17)
(1.21787 -0.128203 7.49267e-18)
(1.22691 -0.134934 5.09834e-18)
(1.24437 -0.148101 -1.8947e-17)
(1.2645 -0.159919 2.18574e-17)
(1.2613 -0.152954 -8.65546e-18)
(1.17854 -0.154232 5.1338e-17)
(0.822882 -0.0925027 -5.13631e-17)
(0.178314 -0.145854 4.22991e-17)
(-0.332969 -0.219909 -1.71168e-17)
(1.20662 -0.115792 -1.69611e-17)
(1.21496 -0.130487 2.09617e-17)
(1.22295 -0.138001 8.37878e-18)
(1.23925 -0.152717 -2.65157e-17)
(1.25826 -0.166521 8.38601e-18)
(1.26069 -0.164148 -1.33137e-17)
(1.19898 -0.173754 -2.95029e-17)
(0.906882 -0.126533 3.90682e-17)
(0.284496 -0.14996 6.97551e-17)
(-0.301769 -0.198977 -5.02457e-18)
(1.20461 -0.115923 -2.04025e-17)
(1.21202 -0.131804 2.05586e-17)
(1.21895 -0.140215 1.20412e-17)
(1.23444 -0.157172 -2.91143e-17)
(1.25527 -0.176552 1.51393e-17)
(1.27144 -0.183771 -9.24978e-18)
(1.24184 -0.2048 6.25049e-19)
(1.01545 -0.160571 3.84608e-18)
(0.414156 -0.173016 1.06097e-16)
(-0.25308 -0.161184 -1.20763e-16)
(1.20224 -0.116005 1.26956e-17)
(1.20872 -0.133192 6.60306e-17)
(1.21447 -0.142183 -2.28507e-17)
(1.22802 -0.160134 4.42365e-18)
(1.24643 -0.181607 1.34371e-17)
(1.26481 -0.19325 -1.0791e-17)
(1.25575 -0.226178 -1.66744e-17)
(1.09863 -0.191108 -7.72165e-17)
(0.569244 -0.206938 -6.08707e-18)
(-0.185961 -0.112102 -3.80083e-17)
(1.19959 -0.115782 -4.92507e-18)
(1.20524 -0.134117 2.52199e-17)
(1.20987 -0.143683 -9.54505e-18)
(1.22186 -0.162906 -1.40329e-17)
(1.23959 -0.187687 1.96961e-17)
(1.26227 -0.204285 -8.72718e-18)
(1.27291 -0.248546 -3.97681e-18)
(1.17269 -0.217889 -5.14005e-17)
(0.738537 -0.244 -7.94019e-19)
(-0.0727659 -0.0770881 1.18738e-16)
(1.19661 -0.115386 9.46826e-19)
(1.2015 -0.134838 5.47366e-17)
(1.20491 -0.144685 -1.58672e-17)
(1.21461 -0.164368 -1.32931e-17)
(1.22931 -0.190614 2.20622e-17)
(1.25018 -0.209534 -8.768e-18)
(1.27259 -0.265453 -1.41006e-18)
(1.22419 -0.244134 -6.57843e-18)
(0.914205 -0.28603 -2.83281e-17)
(0.0688876 -0.101739 4.4575e-17)
(1.19334 -0.114747 -6.027e-18)
(1.19761 -0.135231 1.84323e-17)
(1.19982 -0.145238 -1.37052e-17)
(1.20752 -0.165421 -2.25526e-17)
(1.21996 -0.193377 2.73726e-17)
(1.23869 -0.213427 -8.92734e-18)
(1.26421 -0.278214 -3.94527e-18)
(1.25881 -0.267728 -2.29667e-17)
(1.07305 -0.321704 -3.68098e-17)
(0.335871 -0.164954 1.8739e-17)
(1.18973 -0.11391 -5.46325e-18)
(1.19357 -0.135358 2.0557e-18)
(1.19463 -0.145209 -1.54774e-17)
(1.20027 -0.165301 -2.70302e-17)
(1.20892 -0.193907 -1.60412e-17)
(1.2228 -0.212815 -8.53853e-18)
(1.24293 -0.286049 1.00291e-18)
(1.27571 -0.290021 -9.04202e-18)
(1.17236 -0.36635 4.51209e-17)
(0.555259 -0.239543 -3.48345e-18)
(1.18576 -0.112875 -7.51371e-18)
(1.18933 -0.135269 1.38718e-17)
(1.18976 -0.144822 -1.68725e-17)
(1.1946 -0.164552 -2.99015e-17)
(1.20096 -0.193682 5.74959e-19)
(1.21445 -0.209348 -1.30363e-17)
(1.22578 -0.288833 4.82721e-19)
(1.27557 -0.295179 -3.09985e-17)
(1.21371 -0.386352 1.01049e-17)
(1.22116 -0.284967 1.05373e-17)
(1.09905 -0.0882309 6.25258e-17)
(1.08367 -0.124342 5.12936e-17)
(1.0704 -0.137574 3.25538e-17)
(1.0488 -0.167249 4.77615e-17)
(1.02264 -0.187026 2.37586e-17)
(0.982751 -0.210136 5.10653e-20)
(0.929019 -0.214835 9.07741e-18)
(0.845439 -0.212203 1.03214e-18)
(0.759846 -0.166366 -6.22471e-18)
(0.586178 -0.10287 -5.26992e-17)
(1.06263 -0.0462256 -5.22889e-17)
(1.05077 -0.0648847 2.67179e-17)
(1.03919 -0.0700929 -4.06596e-17)
(1.02357 -0.0819153 -2.03845e-17)
(1.00672 -0.0893554 -3.14208e-17)
(0.987794 -0.0936303 3.17333e-18)
(0.968126 -0.0992551 -5.85993e-18)
(0.948376 -0.0856965 -3.61576e-19)
(0.924492 -0.0773198 1.12467e-18)
(0.924734 -0.0263952 5.33909e-18)
(1.0326 -0.0399247 1.21328e-17)
(1.02305 -0.0539365 2.46491e-17)
(1.01379 -0.0555074 6.31076e-18)
(1.00087 -0.0617419 -2.71776e-17)
(0.98608 -0.0605162 -1.79784e-17)
(0.968201 -0.0595682 1.90278e-17)
(0.948759 -0.0500543 -1.55241e-17)
(0.927454 -0.043295 -3.99833e-18)
(0.912864 -0.0239505 -1.19915e-18)
(0.885511 -0.0107612 -8.61344e-18)
(1.01891 -0.0105702 -8.22718e-18)
(1.01375 -0.0167385 1.79452e-19)
(1.01025 -0.0174451 -2.38646e-18)
(1.00655 -0.0199163 -1.74572e-17)
(1.00455 -0.0206072 -1.60684e-17)
(1.00405 -0.0195777 1.17217e-17)
(1.00429 -0.019486 -7.80835e-18)
(1.00567 -0.0143996 -1.34563e-17)
(1.0048 -0.0121648 -7.46727e-19)
(1.01417 -0.00367568 -6.10647e-18)
(1.01176 -0.015799 -2.29595e-17)
(1.0086 -0.0198094 2.25493e-17)
(1.00517 -0.019834 1.48677e-18)
(0.999132 -0.0213497 3.44106e-18)
(0.991095 -0.0203724 1.74927e-18)
(0.980408 -0.0197545 -5.31756e-18)
(0.969182 -0.0163234 2.41807e-17)
(0.957742 -0.0138115 3.02354e-18)
(0.949581 -0.00759093 1.61653e-18)
(0.938238 -0.0028855 2.29771e-17)
(1.00335 -0.00287396 4.44529e-18)
(1.00124 -0.00567196 -4.7771e-18)
(1.00018 -0.00624097 -1.51691e-18)
(1.00032 -0.00752233 -5.96228e-18)
(1.00274 -0.00780898 -7.01818e-18)
(1.00776 -0.00726856 -2.02864e-17)
(1.01425 -0.00669833 9.39441e-18)
(1.02177 -0.00455468 -5.46263e-18)
(1.02823 -0.00346189 -4.31856e-19)
(1.03632 -0.0010835 1.0143e-17)
(1.00455 -0.00315984 -2.96763e-19)
(1.00381 -0.00331198 9.3773e-19)
(1.00296 -0.00259879 -8.37513e-19)
(1.00055 -0.00197922 -2.22315e-17)
(0.996489 -0.000876074 -2.15747e-17)
(0.990127 -0.000301232 -1.83542e-18)
(0.982435 0.000513192 -2.09902e-17)
(0.973669 0.000416143 -2.18049e-17)
(0.965528 0.000742963 -2.04303e-18)
(0.957533 0.000290764 -1.84146e-17)
(1.00023 -0.00235145 2.53016e-19)
(0.999829 -0.00404101 3.22473e-19)
(0.999784 -0.00475533 5.10311e-19)
(1.00053 -0.00601646 5.07277e-18)
(1.00249 -0.00678898 3.52683e-18)
(1.00607 -0.00709742 -1.83084e-17)
(1.01074 -0.00691003 2.38619e-17)
(1.01645 -0.00567927 1.08986e-18)
(1.02215 -0.00406961 1.77485e-18)
(1.02758 -0.00148269 2.47181e-17)
(1.00123 0.000874029 2.3355e-19)
(1.0009 0.00154038 -2.09201e-19)
(1.00052 0.00212098 -1.62166e-19)
(0.999505 0.00300265 -1.13918e-18)
(0.99775 0.00380666 -9.06344e-19)
(0.994926 0.00435256 3.26772e-18)
(0.991337 0.00455541 -6.15551e-18)
(0.986965 0.00402352 -2.23402e-17)
(0.982467 0.00300643 -1.9395e-18)
(0.978369 0.00115077 -3.95956e-18)
(1.0002 -0.00108932 1.85627e-19)
(1.00062 -0.00177386 -5.58888e-20)
(1.00099 -0.00210591 6.52987e-20)
(1.00168 -0.00268538 4.8283e-19)
(1.00264 -0.00308906 -2.44809e-19)
(1.00406 -0.00334646 -5.19388e-19)
(1.00577 -0.00334132 1.42033e-18)
(1.00781 -0.00291176 4.15681e-18)
(1.00988 -0.00211083 4.35537e-19)
(1.01171 -0.000802503 4.49638e-19)
(0.956948 0.000966997 -4.24867e-20)
(0.95683 0.00100133 -4.14919e-20)
(0.956675 0.000986379 5.92596e-20)
(0.956501 0.000963525 1.64922e-18)
(0.956328 0.000903107 -9.78738e-21)
(0.956154 0.000819452 -1.67366e-18)
(0.95598 0.000700466 -1.27735e-19)
(0.955809 0.000544894 -6.52594e-20)
(0.955665 0.000348359 -1.6644e-18)
(0.955581 0.000119982 -1.65429e-19)
(0.957294 0.0029126 -4.79394e-20)
(0.95699 0.00300317 -2.08154e-19)
(0.95657 0.00296414 2.43864e-20)
(0.95609 0.00290781 6.73964e-19)
(0.955594 0.00275199 -3.9864e-20)
(0.955066 0.00253075 -6.51712e-19)
(0.954487 0.00220185 1.82557e-21)
(0.953867 0.00174401 1.22921e-19)
(0.953306 0.00113081 -6.1768e-19)
(0.952972 0.000391836 -4.63833e-19)
(0.958442 0.00642566 -4.10694e-20)
(0.957869 0.00659117 -1.233e-18)
(0.957058 0.00651833 3.09317e-19)
(0.956111 0.00643176 9.00242e-18)
(0.955085 0.00616809 -7.37581e-20)
(0.953894 0.00578108 -7.98967e-18)
(0.952403 0.00515446 -5.49442e-19)
(0.950607 0.00418591 7.16456e-19)
(0.948867 0.00276438 -7.65103e-18)
(0.947809 0.000964809 -3.36562e-19)
(0.954493 0.0134648 -6.0006e-19)
(0.95341 0.0136863 -1.11367e-17)
(0.95188 0.0135506 -2.59507e-18)
(0.950037 0.0134479 -1.46014e-18)
(0.947912 0.0130533 -1.50944e-18)
(0.945181 0.012471 1.14713e-17)
(0.941267 0.0113966 -3.67699e-19)
(0.936029 0.00949762 1.17064e-17)
(0.930684 0.00638407 1.23142e-17)
(0.927411 0.00224165 -4.32354e-20)
(0.967709 0.0256128 -3.2207e-19)
(0.966111 0.0263221 -7.60565e-19)
(0.96391 0.026258 -2.03442e-17)
(0.961162 0.0264522 -2.18247e-18)
(0.957678 0.0261196 -1.87472e-17)
(0.952499 0.0255476 -3.01789e-18)
(0.943594 0.0239835 -1.8921e-17)
(0.930097 0.0205612 -9.75962e-19)
(0.91555 0.0140694 -2.19945e-18)
(0.906619 0.00496758 -1.77842e-17)
(0.946802 0.0403759 -8.21687e-19)
(0.944059 0.0413908 -1.49683e-17)
(0.940697 0.0411009 -2.82193e-18)
(0.936321 0.0418576 2.34882e-19)
(0.930117 0.0417769 1.20298e-17)
(0.919876 0.0418277 1.15835e-18)
(0.899671 0.040315 1.21187e-17)
(0.865993 0.0357253 1.36076e-17)
(0.828164 0.0248964 1.92312e-18)
(0.805066 0.0088236 1.11637e-17)
(0.98815 0.055336 -1.49963e-19)
(0.985904 0.0622053 -5.15253e-19)
(0.983891 0.0641483 -3.58807e-17)
(0.980918 0.0693246 -2.14895e-18)
(0.97453 0.0719584 -3.8326e-17)
(0.960844 0.0752802 -5.99271e-18)
(0.925919 0.0747141 -3.89825e-17)
(0.858684 0.0683215 -4.51738e-18)
(0.778545 0.0482379 -2.73679e-18)
(0.729987 0.0170581 -3.48255e-17)
(0.974848 0.0407996 -3.15645e-19)
(0.969615 0.0507463 -4.90145e-18)
(0.96575 0.0530648 2.57485e-18)
(0.959051 0.063227 2.66993e-17)
(0.943657 0.0683172 4.38714e-18)
(0.912889 0.0780897 -1.42466e-17)
(0.837019 0.0808719 7.38649e-19)
(0.690689 0.0783784 5.76772e-18)
(0.513047 0.0551154 -9.54189e-18)
(0.410325 0.018663 1.28022e-18)
(1.06207 0.0320561 -1.58373e-18)
(1.07115 0.0721887 -5.22415e-17)
(1.07854 0.0851304 -1.56099e-17)
(1.0871 0.121749 5.51985e-18)
(1.08186 0.144145 -1.51135e-17)
(1.054 0.179181 6.50806e-17)
(0.951791 0.19384 -7.79577e-18)
(0.732247 0.20009 8.08614e-17)
(0.458992 0.151375 9.95449e-17)
(0.324139 0.0491517 1.3973e-17)
(1.22954 -0.0973228 4.75382e-18)
(1.2535 -0.0779928 9.58351e-17)
(1.27044 -0.0723439 -8.52548e-17)
(1.28772 -0.0556911 8.43496e-17)
(1.28196 -0.0510769 -1.17361e-16)
(1.20089 -0.0217252 -1.34103e-16)
(0.948167 -0.0135602 -1.36265e-16)
(0.41416 0.0325001 -2.40924e-17)
(-0.369722 0.0170515 -1.55291e-16)
(-0.738644 0.0353271 -1.42171e-16)
(1.0002 0.00108932 1.48715e-17)
(1.00062 0.00177386 4.05866e-19)
(1.00099 0.00210591 -3.6013e-18)
(1.00168 0.00268538 1.05702e-19)
(1.00264 0.00308906 -2.92561e-18)
(1.00406 0.00334646 1.33076e-17)
(1.00577 0.00334132 9.23248e-19)
(1.00781 0.00291176 -3.66903e-18)
(1.00988 0.00211083 -6.93765e-19)
(1.01171 0.000802503 -3.7628e-18)
(1.00123 -0.000874029 2.68935e-17)
(1.0009 -0.00154038 -2.30778e-18)
(1.00052 -0.00212098 2.03007e-17)
(0.999505 -0.00300265 -1.5964e-18)
(0.99775 -0.00380666 2.21257e-17)
(0.994926 -0.00435256 2.54972e-17)
(0.991337 -0.00455541 -1.9015e-18)
(0.986965 -0.00402352 2.02503e-17)
(0.982467 -0.00300643 2.89486e-18)
(0.978369 -0.00115077 2.08017e-17)
(1.00023 0.00235145 7.85542e-18)
(0.999829 0.00404101 2.28187e-17)
(0.999784 0.00475533 6.46174e-18)
(1.00053 0.00601646 2.20439e-17)
(1.00249 0.00678898 6.72565e-18)
(1.00607 0.00709742 7.69905e-18)
(1.01074 0.00691003 2.10887e-17)
(1.01645 0.00567927 5.22714e-18)
(1.02215 0.00406961 -3.33316e-18)
(1.02758 0.00148269 5.81322e-18)
(1.00455 0.00315984 1.56569e-18)
(1.00381 0.00331198 2.24245e-18)
(1.00296 0.00259879 2.02823e-18)
(1.00055 0.00197922 2.18513e-18)
(0.996489 0.000876074 1.35432e-18)
(0.990127 0.000301232 1.41357e-18)
(0.982435 -0.000513192 2.10035e-18)
(0.973669 -0.000416143 2.45985e-18)
(0.965528 -0.000742963 2.10658e-17)
(0.957533 -0.000290764 8.55471e-19)
(1.00335 0.00287396 -5.64341e-20)
(1.00124 0.00567196 1.76489e-17)
(1.00018 0.00624097 1.42161e-18)
(1.00032 0.00752233 1.63476e-17)
(1.00274 0.00780899 6.32228e-19)
(1.00776 0.00726856 2.34901e-19)
(1.01425 0.00669833 1.59472e-17)
(1.02177 0.00455468 3.30958e-20)
(1.02823 0.00346189 4.9991e-19)
(1.03632 0.0010835 -1.25727e-19)
(1.01176 0.015799 7.45313e-18)
(1.0086 0.0198094 2.92578e-17)
(1.00517 0.019834 8.53163e-18)
(0.999132 0.0213497 2.71133e-17)
(0.991095 0.0203724 2.53156e-18)
(0.980408 0.0197545 4.72575e-18)
(0.969182 0.0163234 2.35385e-17)
(0.957742 0.0138115 5.41722e-18)
(0.949581 0.00759093 1.90417e-17)
(0.938238 0.0028855 4.71245e-18)
(1.01891 0.0105702 -2.2065e-17)
(1.01375 0.0167385 3.75192e-18)
(1.01025 0.0174451 -2.30248e-17)
(1.00655 0.0199163 3.77291e-18)
(1.00455 0.0206072 -4.20027e-18)
(1.00405 0.0195777 -1.37788e-17)
(1.00429 0.019486 3.81459e-18)
(1.00567 0.0143996 -1.23098e-17)
(1.0048 0.0121648 2.83615e-18)
(1.01417 0.00367568 -1.04772e-17)
(1.0326 0.0399247 -2.71312e-17)
(1.02305 0.0539365 1.18973e-18)
(1.01379 0.0555074 2.22935e-18)
(1.00087 0.0617419 3.91243e-18)
(0.98608 0.0605162 2.06417e-17)
(0.968201 0.0595682 -1.72103e-17)
(0.948759 0.0500543 1.17527e-19)
(0.927454 0.043295 -2.82565e-18)
(0.912864 0.0239505 -5.56361e-19)
(0.885511 0.0107612 -5.31274e-18)
(1.06263 0.0462256 -5.37089e-17)
(1.05077 0.0648847 -4.09018e-18)
(1.03919 0.0700929 -3.37643e-17)
(1.02357 0.0819153 -6.17714e-18)
(1.00672 0.0893554 -5.24278e-18)
(0.987794 0.0936303 -2.02757e-17)
(0.968126 0.0992551 1.1023e-19)
(0.948376 0.0856965 7.14124e-19)
(0.924492 0.0773198 5.49285e-18)
(0.924734 0.0263952 1.51532e-17)
(1.09905 0.0882309 1.92022e-17)
(1.08367 0.124342 -2.64036e-18)
(1.0704 0.137574 -1.5563e-18)
(1.0488 0.167249 3.17431e-17)
(1.02264 0.187026 3.53465e-17)
(0.982751 0.210136 3.08732e-18)
(0.929019 0.214835 -1.11732e-18)
(0.845439 0.212203 2.66502e-18)
(0.759846 0.166366 2.53141e-17)
(0.586178 0.10287 -1.07789e-18)
(1.22954 0.0973228 -9.30395e-18)
(1.2535 0.0779928 -6.0049e-18)
(1.27044 0.0723439 -4.46783e-18)
(1.28772 0.0556911 8.46323e-19)
(1.28196 0.0510769 5.29126e-18)
(1.20089 0.0217252 -6.08512e-18)
(0.948167 0.0135602 1.79023e-19)
(0.41416 -0.0325001 -3.81106e-18)
(-0.369722 -0.0170515 -2.11079e-18)
(-0.738644 -0.0353271 -4.66577e-18)
(1.06207 -0.0320561 -1.27387e-19)
(1.07115 -0.0721887 -1.64281e-18)
(1.07854 -0.0851304 -2.18421e-18)
(1.0871 -0.121749 1.47492e-18)
(1.08186 -0.144145 -7.62823e-17)
(1.054 -0.179181 -1.11611e-17)
(0.951791 -0.19384 -2.48099e-18)
(0.732247 -0.20009 -4.83353e-18)
(0.458992 -0.151375 8.58169e-17)
(0.324139 -0.0491517 1.28575e-17)
(0.974848 -0.0407996 -3.47376e-18)
(0.969615 -0.0507463 3.00547e-18)
(0.96575 -0.0530648 -3.3606e-18)
(0.959051 -0.063227 3.11029e-18)
(0.943657 -0.0683172 1.63485e-17)
(0.912889 -0.0780897 -2.66136e-18)
(0.837019 -0.0808719 2.10703e-18)
(0.690689 -0.0783784 -2.71938e-18)
(0.513047 -0.0551154 1.91663e-17)
(0.410325 -0.018663 9.82229e-20)
(0.98815 -0.055336 3.82207e-17)
(0.985904 -0.0622053 -3.24065e-17)
(0.983891 -0.0641483 3.23889e-17)
(0.980918 -0.0693246 -3.41177e-17)
(0.97453 -0.0719584 3.82439e-19)
(0.960844 -0.0752802 3.69246e-17)
(0.925919 -0.0747141 -3.2299e-17)
(0.858684 -0.0683215 3.28762e-17)
(0.778545 -0.0482379 4.1576e-18)
(0.729987 -0.0170581 3.4726e-17)
(0.946802 -0.0403759 1.86314e-18)
(0.944059 -0.0413908 -1.31261e-18)
(0.940697 -0.0411009 1.31256e-18)
(0.936321 -0.0418576 -2.17671e-18)
(0.930117 -0.0417769 -1.61511e-17)
(0.919876 -0.0418277 3.75918e-19)
(0.899671 -0.040315 -1.26735e-18)
(0.865993 -0.0357253 2.19604e-18)
(0.828164 -0.0248964 1.42426e-17)
(0.805066 -0.0088236 3.31709e-18)
(0.967709 -0.0256128 1.93533e-17)
(0.966111 -0.0263221 -1.65545e-17)
(0.96391 -0.026258 1.675e-17)
(0.961162 -0.0264522 -1.71464e-17)
(0.957678 -0.0261196 1.80268e-17)
(0.952499 -0.0255476 1.90328e-17)
(0.943594 -0.0239835 -1.7235e-17)
(0.930097 -0.0205612 1.66691e-17)
(0.91555 -0.0140694 -1.58333e-17)
(0.906619 -0.00496758 1.70196e-17)
(0.954493 -0.0134648 1.35349e-17)
(0.95341 -0.0136863 -1.14009e-17)
(0.95188 -0.0135506 1.11251e-17)
(0.950037 -0.0134479 -1.21894e-17)
(0.947912 -0.0130533 6.82045e-19)
(0.945181 -0.012471 1.21099e-17)
(0.941267 -0.0113966 -1.10788e-17)
(0.936029 -0.00949762 1.17956e-17)
(0.930684 -0.00638407 -1.21538e-18)
(0.927411 -0.00224165 1.23036e-17)
(0.958442 -0.00642566 2.26997e-18)
(0.957869 -0.00659117 -6.21257e-19)
(0.957058 -0.00651833 1.68436e-18)
(0.956111 -0.00643176 -5.83174e-19)
(0.955085 -0.00616809 9.9114e-18)
(0.953894 -0.00578108 2.43905e-18)
(0.952403 -0.00515446 -6.53222e-19)
(0.950607 -0.00418591 2.25559e-18)
(0.948867 -0.00276438 9.28221e-18)
(0.947809 -0.000964809 2.27179e-18)
(0.957294 -0.0029126 -5.67138e-18)
(0.95699 -0.00300317 -6.52951e-19)
(0.95657 -0.00296414 -5.24372e-18)
(0.95609 -0.00290781 -6.36217e-19)
(0.955594 -0.00275199 -4.94102e-18)
(0.955066 -0.00253075 -5.44792e-18)
(0.954487 -0.00220185 -6.59039e-19)
(0.953867 -0.00174401 -5.24583e-18)
(0.953306 -0.00113081 1.37246e-19)
(0.952972 -0.000391836 -5.24134e-18)
(0.956948 -0.000966997 -5.97343e-19)
(0.95683 -0.00100133 -1.04004e-19)
(0.956675 -0.000986379 -5.1451e-19)
(0.956501 -0.000963525 -1.7959e-20)
(0.956328 -0.000903107 1.1061e-18)
(0.956154 -0.000819452 -4.35401e-19)
(0.95598 -0.000700466 -1.08734e-19)
(0.955809 -0.000544894 -3.88384e-19)
(0.955665 -0.000348359 1.55123e-18)
(0.955581 -0.000119982 -3.87097e-19)
)
;

boundaryField
{
    inlet
    {
        type            uniformFixedValue;
        uniformValue    
        {
            type            constant;
            value           (1 0 0);
        }
        value           uniform (1 0 0);
    }
    outlet
    {
        type            pressureInletOutletVelocity;
        value           nonuniform List<vector> 
20
(
(0.956948 0.000966997 -4.24867e-20)
(0.95683 0.00100133 -4.14919e-20)
(0.956675 0.000986379 5.92596e-20)
(0.956501 0.000963525 1.64922e-18)
(0.956328 0.000903107 -9.78738e-21)
(0.956154 0.000819452 -1.67366e-18)
(0.95598 0.000700466 -1.27735e-19)
(0.955809 0.000544894 -6.52594e-20)
(0.955665 0.000348359 -1.6644e-18)
(0.955581 0.000119982 -1.65429e-19)
(0.956948 -0.000966997 -5.97343e-19)
(0.95683 -0.00100133 -1.04004e-19)
(0.956675 -0.000986379 -5.1451e-19)
(0.956501 -0.000963525 -1.7959e-20)
(0.956328 -0.000903107 1.1061e-18)
(0.956154 -0.000819452 -4.35401e-19)
(0.95598 -0.000700466 -1.08734e-19)
(0.955809 -0.000544894 -3.88384e-19)
(0.955665 -0.000348359 1.55123e-18)
(0.955581 -0.000119982 -3.87097e-19)
)
;
    }
    polygon
    {
        type            fixedValue;
        value           uniform (0 0 0);
    }
    top
    {
        type            symmetryPlane;
    }
    bottom
    {
        type            symmetryPlane;
    }
    outside
    {
        type            zeroGradient;
    }
}


// ************************************************************************* //
