/*--------------------------------*- C++ -*----------------------------------*\
  =========                 |
  \\      /  F ield         | OpenFOAM: The Open Source CFD Toolbox
   \\    /   O peration     | Website:  https://openfoam.org
    \\  /    A nd           | Version:  7
     \\/     M anipulation  |
\*---------------------------------------------------------------------------*/
FoamFile
{
    version     2.0;
    format      ascii;
    class       volVectorField;
    location    "20";
    object      U;
}
// * * * * * * * * * * * * * * * * * * * * * * * * * * * * * * * * * * * * * //

dimensions      [0 1 -1 0 0 0 0];

internalField   nonuniform List<vector> 
4000
(
(1.2573 0.223305 4.61551e-17)
(1.25281 0.2415 1.82043e-17)
(1.24534 0.249201 2.41222e-18)
(1.23951 0.263285 -2.01215e-17)
(1.23287 0.274689 6.97286e-18)
(1.22734 0.288743 1.02953e-17)
(1.22138 0.302527 6.24568e-17)
(1.21598 0.318202 1.69614e-17)
(1.21035 0.335237 3.80087e-17)
(1.2053 0.353552 7.56449e-17)
(1.19957 0.375578 4.15652e-17)
(1.19517 0.398276 5.76133e-17)
(1.18875 0.429587 -6.68458e-18)
(1.18744 0.460175 3.47611e-17)
(1.18096 0.505592 2.61988e-17)
(1.18667 0.536488 3.02606e-17)
(1.14718 0.55093 1.57875e-17)
(1.06452 0.472418 3.99537e-17)
(0.716571 0.246336 -2.42998e-17)
(0.397113 0.00311413 4.11571e-18)
(1.2646 0.228409 3.59209e-17)
(1.25989 0.246403 1.67546e-17)
(1.25272 0.25443 1.22459e-17)
(1.24713 0.268643 4.26958e-17)
(1.24086 0.280349 6.2394e-18)
(1.23564 0.294739 1.90223e-17)
(1.23007 0.309036 5.64051e-17)
(1.22518 0.325344 1.59665e-17)
(1.22035 0.343138 4.79729e-17)
(1.21627 0.362781 6.57507e-17)
(1.21225 0.386145 7.01319e-17)
(1.2101 0.411485 3.73445e-17)
(1.20858 0.444544 -2.9897e-18)
(1.21161 0.477525 4.09129e-17)
(1.20333 0.513435 5.1282e-17)
(1.16729 0.516477 1.72907e-17)
(1.03197 0.475719 5.79488e-18)
(0.754754 0.340372 2.58005e-17)
(0.335463 0.226627 2.68734e-17)
(-0.0931012 0.0980518 -1.42838e-18)
(1.27137 0.233274 3.17826e-17)
(1.26638 0.251146 1.0218e-17)
(1.25948 0.259375 1.18721e-18)
(1.25405 0.273719 3.0527e-17)
(1.2482 0.285727 6.21044e-18)
(1.24345 0.300502 1.8524e-17)
(1.23872 0.315337 2.53882e-17)
(1.23492 0.33225 1.71479e-17)
(1.23147 0.350653 4.47744e-17)
(1.22898 0.371187 6.00701e-17)
(1.2272 0.395197 9.66279e-17)
(1.22797 0.421528 9.95399e-19)
(1.22881 0.452352 1.75365e-17)
(1.22416 0.47569 5.59296e-17)
(1.18318 0.481105 7.17647e-17)
(1.06764 0.431376 2.77979e-19)
(0.818164 0.322172 3.13413e-17)
(0.460106 0.158671 5.53634e-17)
(0.0619582 0.013347 2.07028e-17)
(-0.00560564 -0.0273189 6.47026e-18)
(1.27781 0.237915 1.9047e-17)
(1.27268 0.2557 1.74716e-17)
(1.26608 0.264035 3.4212e-17)
(1.26084 0.278455 2.98303e-17)
(1.2554 0.290614 7.02688e-18)
(1.25104 0.305526 1.71224e-17)
(1.24681 0.320504 7.42619e-17)
(1.24346 0.337632 1.69235e-17)
(1.24063 0.356407 6.21954e-17)
(1.23952 0.37768 7.7024e-17)
(1.24033 0.402073 6.8212e-17)
(1.2429 0.427357 2.1373e-17)
(1.23845 0.450406 4.02833e-17)
(1.20761 0.45464 3.98805e-17)
(1.10712 0.424712 4.131e-17)
(0.897737 0.335744 -3.42295e-18)
(0.564739 0.212168 3.74409e-17)
(0.191307 0.0794557 2.99528e-17)
(-0.0382961 0.0816104 5.53825e-17)
(-0.0933529 0.0640337 8.94258e-18)
(1.28404 0.242307 3.25673e-17)
(1.2789 0.259996 3.26839e-18)
(1.27262 0.268368 -4.35113e-17)
(1.26768 0.282854 7.62567e-18)
(1.26274 0.295171 1.53007e-18)
(1.25901 0.310359 5.0498e-17)
(1.25577 0.3258 5.54821e-17)
(1.25395 0.343561 1.6401e-17)
(1.25336 0.362765 3.7085e-17)
(1.25472 0.383809 1.51901e-17)
(1.25659 0.406086 4.34194e-17)
(1.2542 0.425573 -2.39409e-17)
(1.23026 0.434353 -9.93972e-18)
(1.15377 0.413543 5.40276e-17)
(0.979089 0.35026 2.93492e-17)
(0.68862 0.237129 5.61225e-18)
(0.327051 0.118473 2.80297e-17)
(0.0459259 0.0551131 1.061e-17)
(-0.0977149 0.0552482 1.08956e-17)
(-0.0315491 0.0230921 3.5746e-17)
(1.29005 0.246464 -1.64548e-17)
(1.28497 0.264044 5.9072e-18)
(1.27903 0.272414 2.21758e-17)
(1.27441 0.286917 5.35091e-17)
(1.26994 0.299236 3.74126e-17)
(1.26668 0.314366 -1.94703e-17)
(1.26385 0.329541 4.43439e-17)
(1.26229 0.346719 2.3695e-18)
(1.26184 0.365024 5.8265e-17)
(1.26277 0.384882 2.41803e-17)
(1.26169 0.404177 2.32015e-17)
(1.24767 0.41556 4.4463e-17)
(1.19316 0.406562 5.08558e-17)
(1.05964 0.360592 2.02281e-17)
(0.812559 0.274291 -8.17725e-18)
(0.475255 0.160323 -5.38679e-17)
(0.153556 0.0890644 -2.41857e-17)
(-0.0505912 0.0709359 5.51395e-18)
(-0.0979915 0.0910614 -9.46752e-18)
(-0.0531162 0.0496389 4.32404e-18)
(1.29584 0.250368 -1.78462e-17)
(1.29086 0.267788 6.72887e-18)
(1.28527 0.276079 1.64718e-17)
(1.28101 0.290559 5.52911e-17)
(1.27706 0.30289 2.95038e-17)
(1.27448 0.318183 2.93671e-17)
(1.2728 0.333705 4.0298e-17)
(1.27315 0.351398 4.74905e-17)
(1.27523 0.369912 -8.95257e-18)
(1.27722 0.388057 -1.33458e-17)
(1.27004 0.400444 6.41858e-17)
(1.2336 0.397305 1.04562e-17)
(1.13354 0.367152 -5.05953e-18)
(0.935701 0.300546 2.43658e-17)
(0.632005 0.204814 2.47758e-17)
(0.295248 0.112224 -3.65392e-17)
(0.0396961 0.0823375 5.12921e-18)
(-0.0813875 0.0892981 4.17945e-17)
(-0.105887 0.0927354 -4.25884e-17)
(-0.0350996 0.0381781 -4.79707e-18)
(1.30139 0.254058 1.23026e-18)
(1.29655 0.271322 1.01334e-17)
(1.29128 0.279555 3.60046e-17)
(1.28741 0.294004 2.25972e-17)
(1.28392 0.306226 2.28502e-17)
(1.28184 0.321243 3.57039e-17)
(1.2806 0.335967 4.12848e-17)
(1.28067 0.351925 9.33868e-18)
(1.28025 0.367127 -8.35572e-18)
(1.2746 0.37966 1.91791e-17)
(1.2502 0.383225 5.06199e-17)
(1.18229 0.367709 2.51365e-17)
(1.03531 0.322047 2.03038e-17)
(0.784565 0.242927 2.2384e-17)
(0.456429 0.151802 5.24524e-18)
(0.15871 0.0932105 -3.18575e-17)
(-0.0257822 0.0948241 1.73182e-18)
(-0.108757 0.102712 1.60326e-17)
(-0.101702 0.101844 -3.51408e-19)
(-0.044105 0.0442563 4.53577e-18)
(1.30668 0.257492 -3.25829e-17)
(1.30205 0.274503 8.68303e-18)
(1.29713 0.282526 -1.95527e-17)
(1.29369 0.296819 7.23632e-17)
(1.29066 0.308887 3.16314e-17)
(1.28922 0.323805 1.35057e-17)
(1.28887 0.338583 6.32488e-18)
(1.29007 0.354817 5.12052e-17)
(1.2902 0.369975 3.91674e-18)
(1.28103 0.380005 -1.56252e-17)
(1.24202 0.37454 4.12262e-17)
(1.14055 0.341269 -3.25723e-17)
(0.94243 0.275228 -3.54863e-17)
(0.64589 0.188332 -1.98544e-17)
(0.318059 0.115553 -7.78501e-18)
(0.0696732 0.0880564 -6.71509e-17)
(-0.0687162 0.0960674 -3.65697e-17)
(-0.116803 0.100181 4.55056e-17)
(-0.103777 0.0949671 1.48673e-17)
(-0.0411071 0.0395876 1.37402e-18)
(1.31176 0.260734 -3.7046e-17)
(1.30733 0.277561 -1.36543e-18)
(1.30266 0.285555 2.71672e-17)
(1.29966 0.299842 4.18676e-17)
(1.29702 0.311747 -1.24035e-17)
(1.29612 0.326227 3.7839e-17)
(1.29586 0.339744 -2.55732e-18)
(1.29532 0.352899 2.56231e-17)
(1.28807 0.361233 -4.73985e-17)
(1.25967 0.358591 -3.47991e-18)
(1.18392 0.335119 1.31655e-17)
(1.03079 0.285561 -3.4166e-17)
(0.783276 0.21525 1.34463e-17)
(0.471365 0.142756 -1.75578e-17)
(0.181451 0.0964037 -1.97994e-18)
(-0.00736049 0.0836485 -7.59973e-18)
(-0.0990049 0.0876573 4.63008e-18)
(-0.121537 0.0867732 1.08472e-17)
(-0.0953041 0.0827822 2.80168e-17)
(-0.0374214 0.0363433 6.45355e-18)
(1.18052 0.169899 1.0342e-16)
(1.17039 0.194028 3.1064e-17)
(1.15967 0.202606 -2.86415e-17)
(1.14581 0.221095 -7.91681e-17)
(1.13306 0.234452 -4.62808e-17)
(1.11689 0.251354 1.50306e-16)
(1.10074 0.267284 3.8442e-17)
(1.08103 0.284831 1.32674e-16)
(1.05923 0.302658 2.74679e-19)
(1.03287 0.32128 1.16231e-17)
(1.00217 0.340297 6.58723e-17)
(0.964612 0.359152 -7.18704e-17)
(0.920353 0.377816 -1.51058e-16)
(0.865737 0.394719 -1.8663e-17)
(0.805118 0.409508 1.10094e-16)
(0.728618 0.41816 2.52084e-16)
(0.652985 0.426763 3.1921e-16)
(0.5474 0.412882 1.92643e-16)
(0.431028 0.397904 2.31697e-17)
(0.192059 0.195945 3.62443e-17)
(1.18823 0.17544 9.23013e-17)
(1.17867 0.199342 2.60668e-17)
(1.16825 0.207982 -1.16878e-17)
(1.15523 0.226406 -7.34248e-17)
(1.1432 0.23987 -4.24852e-17)
(1.12816 0.257027 5.84196e-17)
(1.11322 0.273211 4.42486e-17)
(1.09515 0.291404 3.55556e-17)
(1.07535 0.310078 6.62352e-17)
(1.05151 0.329992 9.26097e-17)
(1.02394 0.350904 -1.82626e-17)
(0.990005 0.372121 -4.99786e-17)
(0.950217 0.394172 -5.38458e-18)
(0.900954 0.414399 -1.91835e-18)
(0.846459 0.435722 -1.5322e-17)
(0.777953 0.448214 1.95345e-16)
(0.7081 0.469356 2.26617e-16)
(0.6182 0.457656 2.81928e-17)
(0.495101 0.450751 1.59993e-16)
(0.245464 0.219948 3.7614e-17)
(1.19585 0.180977 5.36531e-17)
(1.187 0.20453 1.93047e-17)
(1.17684 0.213167 -4.57447e-17)
(1.16482 0.231413 -3.83299e-17)
(1.15344 0.244906 -2.29617e-17)
(1.13965 0.262172 3.48982e-17)
(1.12589 0.278489 9.30117e-18)
(1.10944 0.297112 4.80336e-17)
(1.09146 0.316441 6.76371e-17)
(1.0698 0.337391 5.42062e-17)
(1.04473 0.359999 -6.27188e-18)
(1.01356 0.383431 -6.33553e-17)
(0.976753 0.409056 -6.60273e-17)
(0.929864 0.433168 -4.05367e-17)
(0.877298 0.460947 -1.6491e-17)
(0.809589 0.479087 1.17324e-16)
(0.738448 0.508347 1.09186e-16)
(0.645027 0.500771 7.66248e-17)
(0.504073 0.484973 1.04253e-16)
(0.229192 0.224208 6.89116e-18)
(1.20342 0.186466 9.85028e-17)
(1.19528 0.209562 1.16176e-17)
(1.18539 0.218146 5.01521e-17)
(1.17429 0.236098 -9.15531e-17)
(1.16353 0.249542 -4.38295e-17)
(1.15091 0.26676 5.19635e-17)
(1.13828 0.283081 7.77536e-17)
(1.12338 0.301901 -1.05592e-17)
(1.10722 0.321644 2.82311e-17)
(1.08786 0.343248 1.10669e-16)
(1.06558 0.367127 4.22882e-18)
(1.0379 0.392046 2.5511e-17)
(1.00523 0.420706 7.14042e-17)
(0.963531 0.447369 6.27672e-17)
(0.915763 0.481867 -2.17768e-18)
(0.856431 0.504004 1.88108e-16)
(0.786794 0.546836 1.83375e-16)
(0.706438 0.542257 -3.64937e-17)
(0.544522 0.520685 5.46512e-17)
(0.245867 0.235156 1.48647e-17)
(1.21106 0.191933 8.36922e-17)
(1.20356 0.214489 3.19464e-17)
(1.19399 0.223003 -4.54181e-17)
(1.18376 0.24058 -7.07033e-17)
(1.17365 0.253917 2.50698e-17)
(1.16218 0.27097 -1.98675e-17)
(1.15071 0.287192 4.79907e-17)
(1.13744 0.306019 -2.78167e-17)
(1.12319 0.32595 8.41244e-17)
(1.1063 0.347868 9.02738e-17)
(1.087 0.37265 1.38438e-17)
(1.06304 0.398562 2.4787e-17)
(1.03447 0.429698 -3.69379e-17)
(0.997916 0.458464 4.40037e-17)
(0.954322 0.49747 9.03662e-18)
(0.900634 0.523066 1.4287e-16)
(0.832781 0.566447 1.25612e-16)
(0.744655 0.565146 2.01212e-18)
(0.575179 0.528487 2.8621e-17)
(0.236293 0.230258 5.62763e-18)
(1.21876 0.197297 5.94097e-17)
(1.2119 0.219193 -3.59413e-17)
(1.20269 0.227564 1.88804e-17)
(1.19332 0.244624 -5.81608e-17)
(1.1839 0.257717 1.62635e-17)
(1.17361 0.274396 -1.17786e-17)
(1.16334 0.290306 5.71428e-17)
(1.15174 0.308806 5.46043e-17)
(1.13944 0.328567 6.79131e-17)
(1.12523 0.350284 7.08459e-17)
(1.10898 0.37539 1.32384e-17)
(1.08931 0.401506 1.48214e-17)
(1.06476 0.434477 2.80548e-18)
(1.03507 0.46456 2.97373e-17)
(0.994897 0.509338 6.07478e-18)
(0.952979 0.54086 1.09748e-16)
(0.88452 0.604331 9.07417e-17)
(0.823892 0.614306 1.53163e-17)
(0.621853 0.588449 2.36583e-17)
(0.279104 0.255263 3.64941e-18)
(1.2265 0.202671 5.48318e-17)
(1.22022 0.223879 -1.52693e-17)
(1.21137 0.232133 1.70721e-17)
(1.20282 0.24867 -3.38283e-17)
(1.19403 0.261523 1.15589e-17)
(1.18487 0.277806 -6.20125e-18)
(1.1757 0.293403 -9.33551e-18)
(1.16571 0.311535 4.19574e-17)
(1.15528 0.331006 5.55039e-17)
(1.14357 0.352411 6.77808e-17)
(1.13023 0.377589 2.80761e-17)
(1.11441 0.403865 2.24949e-17)
(1.09431 0.437838 -5.41293e-17)
(1.0703 0.46912 2.48124e-17)
(1.03649 0.514433 2.1581e-17)
(0.999582 0.545546 8.55328e-17)
(0.940608 0.590917 5.82655e-17)
(0.849275 0.593182 3.24959e-17)
(0.659649 0.532451 1.34467e-17)
(0.237631 0.224885 1.40713e-17)
(1.23421 0.207801 1.51731e-17)
(1.22854 0.228147 -3.65709e-17)
(1.22009 0.236098 1.26093e-18)
(1.21236 0.251851 -5.23551e-17)
(1.20426 0.264189 6.06703e-18)
(1.19624 0.279707 -7.04206e-18)
(1.18819 0.294587 -2.93046e-17)
(1.17984 0.311763 3.98967e-17)
(1.17121 0.330329 4.55343e-17)
(1.16193 0.350551 3.41896e-17)
(1.15136 0.374844 -4.24463e-18)
(1.13986 0.399615 -7.87323e-18)
(1.12425 0.433481 -5.40338e-17)
(1.10769 0.464193 -1.64828e-17)
(1.07895 0.51468 -1.84518e-17)
(1.05409 0.554626 7.56041e-17)
(0.999648 0.640344 6.01418e-17)
(0.965001 0.680131 1.2293e-17)
(0.761089 0.698649 1.01367e-17)
(0.380337 0.314034 -1.31443e-17)
(1.24193 0.213112 7.16824e-17)
(1.23671 0.232762 3.57364e-17)
(1.22856 0.240661 1.87395e-17)
(1.22151 0.255909 2.98299e-17)
(1.21393 0.268013 7.60227e-18)
(1.20686 0.283121 -7.27156e-19)
(1.19968 0.297689 3.03347e-17)
(1.19258 0.314463 1.77441e-17)
(1.18518 0.332714 3.31347e-17)
(1.1776 0.352529 8.43647e-17)
(1.16914 0.376473 6.46951e-17)
(1.16052 0.400941 6.32158e-17)
(1.14875 0.43457 -2.91022e-17)
(1.13783 0.465461 6.36936e-17)
(1.11725 0.512635 6.14583e-17)
(1.09944 0.543313 3.60227e-17)
(1.05204 0.578105 -1.09758e-17)
(0.970039 0.563338 7.6405e-17)
(0.743274 0.464003 3.10742e-17)
(0.252743 0.175294 3.70792e-18)
(1.24951 0.217798 5.79418e-17)
(1.24496 0.236308 2.55214e-17)
(1.23726 0.243537 -2.1188e-17)
(1.23103 0.257485 -4.50328e-19)
(1.22413 0.268562 4.82494e-18)
(1.21816 0.282247 -2.78992e-18)
(1.21196 0.295436 4.49954e-17)
(1.20623 0.310385 6.47123e-17)
(1.20026 0.326777 2.94826e-17)
(1.19509 0.343915 9.58127e-17)
(1.18896 0.365167 6.56792e-17)
(1.18503 0.385408 5.65631e-17)
(1.17685 0.415356 -1.11269e-17)
(1.17354 0.441292 4.04599e-18)
(1.1542 0.49095 4.5522e-17)
(1.14623 0.538666 8.41046e-17)
(1.10958 0.64179 -3.96983e-18)
(1.12189 0.729279 5.69204e-17)
(0.992066 0.81896 -1.30079e-17)
(0.667596 0.394034 1.36375e-18)
(1.24951 -0.217798 7.74749e-17)
(1.24496 -0.236308 5.05518e-17)
(1.23726 -0.243537 1.19124e-17)
(1.23103 -0.257485 3.17142e-17)
(1.22413 -0.268562 1.13855e-17)
(1.21816 -0.282247 -1.94136e-17)
(1.21196 -0.295436 2.14792e-17)
(1.20623 -0.310385 -7.18016e-18)
(1.20026 -0.326777 -3.24694e-17)
(1.19509 -0.343915 -5.33649e-17)
(1.18896 -0.365167 1.06042e-18)
(1.18503 -0.385408 2.30183e-17)
(1.17685 -0.415356 -2.17572e-17)
(1.17354 -0.441292 -5.2105e-18)
(1.1542 -0.49095 -9.74865e-19)
(1.14623 -0.538666 -1.06428e-16)
(1.10958 -0.64179 -8.92391e-17)
(1.12189 -0.729279 -5.63677e-17)
(0.992066 -0.81896 8.66655e-18)
(0.667596 -0.394034 -1.47783e-17)
(1.24193 -0.213112 3.74958e-17)
(1.23671 -0.232762 3.45875e-17)
(1.22856 -0.240661 2.42919e-17)
(1.22151 -0.255909 5.32219e-17)
(1.21393 -0.268013 8.0268e-18)
(1.20686 -0.283121 -1.30263e-17)
(1.19968 -0.297689 1.86877e-17)
(1.19258 -0.314463 6.59908e-18)
(1.18518 -0.332714 -4.70164e-17)
(1.1776 -0.352529 -6.49691e-17)
(1.16914 -0.376473 2.59326e-17)
(1.16052 -0.400941 4.27339e-18)
(1.14875 -0.43457 -8.74931e-17)
(1.13783 -0.465461 -6.54099e-17)
(1.11725 -0.512635 -3.43547e-17)
(1.09944 -0.543313 -1.24299e-16)
(1.05204 -0.578105 -5.43211e-17)
(0.970039 -0.563338 -3.27427e-17)
(0.743274 -0.464003 -2.89481e-17)
(0.252743 -0.175294 -5.37589e-17)
(1.23421 -0.207801 6.82318e-17)
(1.22854 -0.228147 5.40546e-17)
(1.22009 -0.236098 1.91436e-17)
(1.21236 -0.251851 6.22002e-17)
(1.20426 -0.264189 -7.16374e-17)
(1.19624 -0.279707 -2.32462e-17)
(1.18819 -0.294587 3.0097e-17)
(1.17984 -0.311763 5.89791e-18)
(1.17121 -0.330329 -6.38458e-17)
(1.16193 -0.350551 -8.41936e-17)
(1.15136 -0.374844 3.4745e-17)
(1.13986 -0.399615 1.55678e-17)
(1.12425 -0.433481 -9.64969e-17)
(1.10769 -0.464193 -4.34205e-17)
(1.07895 -0.51468 -2.02039e-17)
(1.05409 -0.554626 -6.67891e-17)
(0.999648 -0.640344 1.8974e-17)
(0.965001 -0.680131 -5.00342e-17)
(0.761089 -0.698649 -1.98352e-17)
(0.380337 -0.314034 1.59582e-17)
(1.2265 -0.202671 -1.6652e-18)
(1.22022 -0.223879 6.10544e-17)
(1.21137 -0.232133 1.82348e-17)
(1.20282 -0.24867 1.46835e-17)
(1.19403 -0.261523 -6.98599e-17)
(1.18487 -0.277806 -2.23387e-17)
(1.1757 -0.293403 -3.97367e-17)
(1.16571 -0.311535 1.31394e-17)
(1.15528 -0.331006 2.49348e-18)
(1.14357 -0.352411 -1.11614e-16)
(1.13023 -0.377589 6.37002e-17)
(1.11441 -0.403865 3.99175e-18)
(1.09431 -0.437838 -4.50693e-17)
(1.0703 -0.46912 3.51284e-17)
(1.03649 -0.514433 -2.26333e-17)
(0.999582 -0.545546 -1.24962e-16)
(0.940608 -0.590917 -7.47702e-18)
(0.849275 -0.593182 -5.61234e-17)
(0.659649 -0.532451 -3.12001e-17)
(0.237631 -0.224885 -2.77932e-18)
(1.21876 -0.197297 2.48044e-17)
(1.2119 -0.219193 8.00923e-17)
(1.20269 -0.227564 2.1621e-17)
(1.19332 -0.244624 -2.64054e-17)
(1.1839 -0.257717 -1.00891e-16)
(1.17361 -0.274396 -2.16963e-17)
(1.16334 -0.290306 -1.97658e-17)
(1.15174 -0.308806 -5.71963e-17)
(1.13944 -0.328567 -2.99737e-17)
(1.12523 -0.350284 -6.47992e-17)
(1.10898 -0.37539 1.35291e-17)
(1.08931 -0.401506 5.36881e-18)
(1.06476 -0.434477 -9.70152e-17)
(1.03507 -0.46456 2.10281e-17)
(0.994897 -0.509338 -4.08119e-17)
(0.952979 -0.54086 -1.46579e-16)
(0.88452 -0.604331 2.07102e-17)
(0.823892 -0.614306 -7.19861e-17)
(0.621853 -0.588449 -4.50913e-17)
(0.279104 -0.255263 -7.23783e-19)
(1.21106 -0.191933 1.0258e-17)
(1.20356 -0.214489 9.83363e-17)
(1.19399 -0.223003 2.7477e-17)
(1.18376 -0.24058 -1.02016e-17)
(1.17365 -0.253917 -4.28128e-17)
(1.16218 -0.27097 -1.01532e-16)
(1.15071 -0.287192 -3.38368e-17)
(1.13744 -0.306019 -4.32143e-17)
(1.12319 -0.32595 -1.22403e-17)
(1.1063 -0.347868 -2.81805e-17)
(1.087 -0.37265 -3.7096e-17)
(1.06304 -0.398562 9.87088e-17)
(1.03447 -0.429698 -1.22833e-16)
(0.997916 -0.458464 6.39025e-17)
(0.954322 -0.49747 -5.63681e-17)
(0.900634 -0.523066 -9.22949e-17)
(0.832781 -0.566447 5.27085e-17)
(0.744655 -0.565146 -9.80294e-17)
(0.575179 -0.528487 -6.98565e-17)
(0.236293 -0.230258 3.80518e-18)
(1.20342 -0.186466 8.61871e-18)
(1.19528 -0.209562 5.07811e-17)
(1.18539 -0.218146 3.12068e-17)
(1.17429 -0.236098 -1.75031e-17)
(1.16353 -0.249542 -3.65787e-18)
(1.15091 -0.26676 -1.58862e-17)
(1.13828 -0.283081 5.37809e-17)
(1.12338 -0.301901 -6.05307e-17)
(1.10722 -0.321644 -2.27085e-17)
(1.08786 -0.343248 3.36317e-17)
(1.06558 -0.367127 -2.79098e-17)
(1.0379 -0.392046 1.06034e-16)
(1.00523 -0.420706 -9.14943e-17)
(0.963531 -0.447369 -1.16461e-17)
(0.915763 -0.481867 3.06472e-17)
(0.856431 -0.504004 -2.20512e-17)
(0.786794 -0.546836 7.94529e-17)
(0.706438 -0.542257 2.82131e-17)
(0.544522 -0.520685 -9.7122e-17)
(0.245867 -0.235156 1.79344e-17)
(1.19585 -0.180977 7.80318e-18)
(1.187 -0.20453 9.13017e-17)
(1.17684 -0.213167 3.93182e-17)
(1.16482 -0.231413 -1.97595e-17)
(1.15344 -0.244906 -2.4059e-17)
(1.13965 -0.262172 -6.78978e-17)
(1.12589 -0.278489 -4.81554e-17)
(1.10944 -0.297112 9.4259e-18)
(1.09146 -0.316441 -2.37918e-17)
(1.0698 -0.337391 -7.46195e-17)
(1.04473 -0.359999 -4.89519e-17)
(1.01356 -0.383431 5.78157e-17)
(0.976753 -0.409056 -6.56798e-17)
(0.929864 -0.433168 3.42774e-17)
(0.877298 -0.460947 -1.20642e-16)
(0.809589 -0.479087 -6.1595e-17)
(0.738448 -0.508347 1.02191e-16)
(0.645027 -0.500771 1.458e-17)
(0.504073 -0.484973 3.27082e-17)
(0.229192 -0.224208 8.11435e-17)
(1.18823 -0.17544 2.02783e-18)
(1.17867 -0.199342 1.01252e-16)
(1.16825 -0.207982 4.5722e-17)
(1.15523 -0.226406 -2.50085e-17)
(1.1432 -0.23987 -2.15371e-17)
(1.12816 -0.257027 -6.44846e-17)
(1.11322 -0.273211 -1.2325e-17)
(1.09515 -0.291404 -7.72873e-18)
(1.07535 -0.310078 -3.85208e-17)
(1.05151 -0.329992 -5.45628e-17)
(1.02394 -0.350904 -4.94706e-17)
(0.990005 -0.372121 1.14426e-16)
(0.950217 -0.394172 -1.1873e-16)
(0.900954 -0.414399 4.18496e-17)
(0.846459 -0.435722 -1.11571e-16)
(0.777953 -0.448214 -5.13496e-17)
(0.7081 -0.469356 1.45361e-16)
(0.6182 -0.457656 1.94286e-17)
(0.495101 -0.450751 2.47959e-17)
(0.245464 -0.219948 1.59029e-16)
(1.18052 -0.169899 6.58303e-17)
(1.17039 -0.194028 2.02397e-16)
(1.15967 -0.202606 -1.78222e-17)
(1.14581 -0.221095 4.50361e-17)
(1.13306 -0.234452 -2.73209e-17)
(1.11689 -0.251354 -8.76053e-17)
(1.10074 -0.267284 -2.87825e-17)
(1.08103 -0.284831 -8.14643e-17)
(1.05923 -0.302658 -1.37564e-16)
(1.03287 -0.32128 1.05016e-17)
(1.00217 -0.340297 3.8743e-17)
(0.964612 -0.359152 1.49114e-16)
(0.920353 -0.377816 -5.90129e-17)
(0.865737 -0.394719 -4.38965e-17)
(0.805118 -0.409508 -1.87057e-16)
(0.728618 -0.41816 -5.1797e-17)
(0.652985 -0.426763 2.09006e-16)
(0.5474 -0.412882 2.06563e-17)
(0.431028 -0.397904 4.85819e-18)
(0.192059 -0.195945 2.38625e-17)
(1.31176 -0.260734 6.3379e-18)
(1.30733 -0.277561 -3.95703e-17)
(1.30266 -0.285555 -1.41388e-19)
(1.29966 -0.299842 1.72339e-17)
(1.29702 -0.311747 1.94828e-17)
(1.29612 -0.326227 2.53297e-18)
(1.29586 -0.339744 7.83116e-18)
(1.29532 -0.352899 1.24243e-17)
(1.28807 -0.361233 -1.30228e-17)
(1.25967 -0.358591 2.93313e-17)
(1.18392 -0.335119 -1.48096e-18)
(1.03079 -0.285561 -3.21605e-17)
(0.783276 -0.21525 5.26603e-17)
(0.471365 -0.142756 -5.44089e-17)
(0.181451 -0.0964037 4.81068e-17)
(-0.00736049 -0.0836485 6.6197e-17)
(-0.0990049 -0.0876573 7.7575e-18)
(-0.121537 -0.0867732 7.17169e-17)
(-0.0953041 -0.0827822 2.10556e-17)
(-0.0374214 -0.0363433 1.58309e-18)
(1.30668 -0.257492 1.3458e-17)
(1.30205 -0.274503 -3.17105e-18)
(1.29713 -0.282526 -4.3938e-18)
(1.29369 -0.296819 1.68676e-17)
(1.29066 -0.308887 -2.19985e-17)
(1.28922 -0.323805 3.88245e-18)
(1.28887 -0.338583 -4.18933e-17)
(1.29007 -0.354817 2.0332e-17)
(1.2902 -0.369975 -2.22219e-17)
(1.28103 -0.380005 -1.10127e-17)
(1.24202 -0.37454 1.54243e-17)
(1.14055 -0.341269 -1.5974e-17)
(0.94243 -0.275228 3.51927e-17)
(0.64589 -0.188332 -2.80152e-17)
(0.318059 -0.115553 -2.44904e-17)
(0.0696732 -0.0880564 2.21603e-17)
(-0.0687162 -0.0960674 2.47078e-19)
(-0.116803 -0.100181 3.92449e-17)
(-0.103777 -0.0949671 6.10736e-17)
(-0.0411071 -0.0395876 3.76426e-18)
(1.30139 -0.254058 1.49771e-17)
(1.29655 -0.271322 -2.20609e-17)
(1.29128 -0.279555 -5.50912e-18)
(1.28741 -0.294004 2.72358e-17)
(1.28392 -0.306226 -7.03155e-18)
(1.28184 -0.321243 1.31894e-17)
(1.2806 -0.335967 1.61265e-17)
(1.28067 -0.351925 -2.84721e-17)
(1.28025 -0.367127 -1.65403e-17)
(1.2746 -0.37966 4.28711e-17)
(1.2502 -0.383225 1.40348e-17)
(1.18229 -0.367709 5.94618e-18)
(1.03531 -0.322047 1.57971e-17)
(0.784565 -0.242927 -2.87769e-17)
(0.456429 -0.151802 2.29299e-17)
(0.15871 -0.0932105 2.20506e-18)
(-0.0257822 -0.0948241 -9.38743e-18)
(-0.108757 -0.102712 2.00395e-17)
(-0.101702 -0.101844 2.39841e-17)
(-0.044105 -0.0442563 -1.0476e-17)
(1.29584 -0.250368 2.47834e-17)
(1.29086 -0.267788 -1.71696e-17)
(1.28527 -0.276079 -1.39334e-17)
(1.28101 -0.290559 3.15408e-17)
(1.27706 -0.30289 -1.70557e-17)
(1.27448 -0.318183 7.96002e-18)
(1.2728 -0.333705 2.5667e-18)
(1.27315 -0.351398 -8.05014e-18)
(1.27523 -0.369912 -4.75426e-17)
(1.27722 -0.388057 2.26893e-17)
(1.27004 -0.400444 2.72166e-17)
(1.2336 -0.397305 -4.60767e-18)
(1.13354 -0.367152 4.43679e-17)
(0.935701 -0.300546 -4.45755e-17)
(0.632005 -0.204814 2.0305e-17)
(0.295248 -0.112224 -4.63316e-18)
(0.0396961 -0.0823375 -1.68499e-17)
(-0.0813875 -0.0892981 1.16912e-17)
(-0.105887 -0.0927354 2.63466e-18)
(-0.0350996 -0.0381781 -4.24743e-17)
(1.29005 -0.246464 -2.23641e-17)
(1.28497 -0.264044 -7.99683e-17)
(1.27903 -0.272414 3.20206e-17)
(1.27441 -0.286917 -1.28256e-17)
(1.26994 -0.299236 -1.48565e-17)
(1.26668 -0.314366 1.09728e-17)
(1.26385 -0.329541 1.45027e-17)
(1.26229 -0.346719 4.85254e-17)
(1.26184 -0.365024 -5.00988e-18)
(1.26277 -0.384882 -3.15641e-17)
(1.26169 -0.404177 3.74008e-17)
(1.24767 -0.41556 -1.13943e-17)
(1.19316 -0.406562 1.90767e-17)
(1.05964 -0.360592 -8.45297e-19)
(0.812559 -0.274291 2.21183e-17)
(0.475255 -0.160323 -1.14911e-17)
(0.153556 -0.0890644 -3.21325e-17)
(-0.0505912 -0.0709359 1.1375e-17)
(-0.0979915 -0.0910614 9.03405e-18)
(-0.0531162 -0.0496389 -9.3636e-18)
(1.28404 -0.242307 7.52556e-18)
(1.2789 -0.259996 -2.8008e-17)
(1.27262 -0.268368 1.96868e-17)
(1.26768 -0.282854 1.0604e-17)
(1.26274 -0.295171 -2.35553e-17)
(1.25901 -0.310359 7.11966e-18)
(1.25577 -0.3258 -1.00586e-18)
(1.25395 -0.343561 3.90572e-17)
(1.25336 -0.362765 -6.58773e-18)
(1.25472 -0.383809 -3.21179e-17)
(1.25659 -0.406086 4.79681e-17)
(1.2542 -0.425573 -1.14736e-17)
(1.23026 -0.434353 -1.32307e-17)
(1.15377 -0.413543 -2.5738e-17)
(0.979089 -0.35026 -2.00154e-17)
(0.68862 -0.237129 -5.83006e-18)
(0.327051 -0.118473 5.19176e-17)
(0.0459259 -0.0551131 2.52185e-17)
(-0.0977149 -0.0552482 4.96581e-17)
(-0.0315491 -0.0230921 3.31794e-18)
(1.27781 -0.237915 -1.05405e-18)
(1.27268 -0.2557 -7.03253e-17)
(1.26608 -0.264035 3.08698e-17)
(1.26084 -0.278455 1.18825e-17)
(1.2554 -0.290614 -3.00174e-17)
(1.25104 -0.305526 8.55039e-18)
(1.24681 -0.320504 -3.80772e-18)
(1.24346 -0.337632 -9.01451e-20)
(1.24063 -0.356407 1.15422e-17)
(1.23952 -0.37768 -5.25162e-18)
(1.24033 -0.402073 3.42915e-18)
(1.2429 -0.427357 -5.51566e-17)
(1.23845 -0.450406 8.58681e-18)
(1.20761 -0.45464 -1.91763e-17)
(1.10712 -0.424712 -1.69249e-17)
(0.897737 -0.335744 2.08008e-17)
(0.564739 -0.212168 3.14202e-18)
(0.191307 -0.0794557 2.99627e-17)
(-0.0382961 -0.0816104 1.5027e-17)
(-0.0933529 -0.0640337 1.06665e-18)
(1.27137 -0.233274 1.83095e-17)
(1.26638 -0.251146 -2.07932e-17)
(1.25948 -0.259375 3.26128e-17)
(1.25405 -0.273719 2.65685e-17)
(1.2482 -0.285727 -4.10796e-17)
(1.24345 -0.300502 9.48915e-18)
(1.23872 -0.315337 -8.3346e-19)
(1.23492 -0.33225 1.18964e-17)
(1.23147 -0.350653 1.12826e-17)
(1.22898 -0.371187 -1.85376e-17)
(1.2272 -0.395197 -9.89531e-18)
(1.22797 -0.421528 -6.49201e-17)
(1.22881 -0.452352 -7.99069e-18)
(1.22416 -0.47569 -1.77223e-17)
(1.18318 -0.481105 -4.60516e-17)
(1.06764 -0.431376 3.35445e-18)
(0.818164 -0.322172 1.4612e-17)
(0.460106 -0.158671 4.1065e-17)
(0.0619582 -0.013347 5.39298e-18)
(-0.00560564 0.0273189 -1.68593e-18)
(1.2646 -0.228409 2.01621e-17)
(1.25989 -0.246403 3.76603e-18)
(1.25272 -0.25443 3.97025e-17)
(1.24713 -0.268643 4.26444e-17)
(1.24086 -0.280349 2.01645e-17)
(1.23564 -0.294739 7.44611e-18)
(1.23007 -0.309036 -7.76149e-18)
(1.22518 -0.325344 9.63554e-19)
(1.22035 -0.343138 -4.45157e-17)
(1.21627 -0.362781 -3.90217e-18)
(1.21225 -0.386145 2.03231e-17)
(1.2101 -0.411485 -1.63551e-17)
(1.20858 -0.444544 -2.00078e-17)
(1.21161 -0.477525 2.08267e-18)
(1.20333 -0.513435 -6.59548e-17)
(1.16729 -0.516477 -1.93519e-17)
(1.03197 -0.475719 6.43751e-18)
(0.754754 -0.340372 -1.26715e-17)
(0.335463 -0.226627 1.36956e-17)
(-0.0931012 -0.0980518 1.41803e-18)
(1.2573 -0.223305 2.59684e-17)
(1.25281 -0.2415 -1.64908e-17)
(1.24534 -0.249201 4.51945e-17)
(1.23951 -0.263285 4.94321e-17)
(1.23287 -0.274689 -4.52465e-19)
(1.22734 -0.288743 1.61237e-17)
(1.22138 -0.302527 -7.51431e-18)
(1.21598 -0.318202 2.42301e-17)
(1.21035 -0.335237 -3.24877e-17)
(1.2053 -0.353552 -3.38323e-17)
(1.19957 -0.375578 2.28153e-17)
(1.19517 -0.398276 -3.5999e-17)
(1.18875 -0.429587 -2.91318e-17)
(1.18744 -0.460175 -4.56254e-17)
(1.18096 -0.505592 -7.24633e-17)
(1.18667 -0.536488 -1.26227e-16)
(1.14718 -0.55093 -4.58139e-17)
(1.06452 -0.472418 -9.11212e-18)
(0.716571 -0.246336 2.24228e-17)
(0.397113 -0.00311413 1.21011e-17)
(1.15549 -0.152134 -3.07794e-17)
(1.1443 -0.176512 4.3189e-17)
(1.13249 -0.184805 2.035e-17)
(1.118 -0.203167 1.63704e-18)
(1.10352 -0.215905 -5.27165e-17)
(1.0866 -0.231623 -1.48593e-16)
(1.06879 -0.246201 -7.6917e-18)
(1.04822 -0.260845 -3.45333e-17)
(1.02528 -0.274911 -1.44983e-16)
(0.998692 -0.287884 -2.46649e-17)
(0.968186 -0.299298 -4.5491e-17)
(0.932494 -0.308247 -5.02379e-17)
(0.891142 -0.313094 5.21286e-17)
(0.842173 -0.312761 5.15433e-17)
(0.78617 -0.305518 7.23195e-17)
(0.722391 -0.290318 -1.78317e-17)
(0.653601 -0.264244 -6.57689e-17)
(0.575811 -0.227438 -1.58587e-18)
(0.509545 -0.169894 4.19244e-18)
(0.390913 -0.0841078 3.97192e-17)
(1.12161 -0.117635 3.52327e-18)
(1.11232 -0.136467 -1.0221e-17)
(1.10177 -0.141989 2.01656e-17)
(1.08942 -0.154818 1.28566e-16)
(1.07609 -0.163101 -1.1744e-17)
(1.06162 -0.172913 -3.40565e-17)
(1.04575 -0.181566 -3.96237e-17)
(1.0287 -0.189844 -4.26472e-17)
(1.01019 -0.197491 -4.60388e-17)
(0.990421 -0.204313 -1.82864e-17)
(0.969238 -0.209772 -3.98379e-18)
(0.946739 -0.213368 -1.38091e-19)
(0.922795 -0.214451 -2.14872e-17)
(0.897563 -0.211837 1.73913e-18)
(0.8706 -0.204238 1.98222e-17)
(0.842033 -0.18989 -5.21655e-18)
(0.812433 -0.168559 4.3986e-18)
(0.783213 -0.134245 -6.7785e-18)
(0.758038 -0.0949636 9.74729e-18)
(0.747374 -0.0359729 1.37646e-17)
(1.09182 -0.0961456 -1.37985e-17)
(1.08332 -0.112529 -1.12627e-17)
(1.07378 -0.117225 -3.03009e-17)
(1.06241 -0.127946 -6.4083e-17)
(1.05029 -0.134147 -6.266e-17)
(1.03691 -0.141012 -1.97549e-16)
(1.02239 -0.146197 -9.02797e-17)
(1.00642 -0.15022 -1.18076e-16)
(0.98894 -0.152734 -2.50899e-16)
(0.969707 -0.153506 -8.1422e-17)
(0.948753 -0.152344 -5.361e-17)
(0.926166 -0.148985 -2.03846e-17)
(0.902319 -0.143167 -3.16808e-17)
(0.877759 -0.134721 2.50373e-17)
(0.853454 -0.123337 1.33268e-16)
(0.830319 -0.108965 -4.04554e-17)
(0.809273 -0.090681 -1.96722e-17)
(0.79052 -0.0693483 -4.00287e-17)
(0.775984 -0.0431189 2.49119e-17)
(0.761927 -0.0147277 2.14537e-16)
(1.06946 -0.0691523 -2.15786e-17)
(1.06277 -0.0814426 -1.50307e-17)
(1.0554 -0.0847626 -2.3689e-17)
(1.04658 -0.0925467 -2.23752e-17)
(1.03731 -0.0970261 -2.55968e-17)
(1.02751 -0.102088 -4.69878e-17)
(1.01735 -0.105993 -1.91039e-16)
(1.00699 -0.109111 -1.80527e-16)
(0.996523 -0.111234 -2.04739e-16)
(0.986085 -0.112169 -2.02015e-16)
(0.975713 -0.111685 -1.52066e-16)
(0.965417 -0.109528 -2.42501e-17)
(0.955128 -0.105425 -1.51439e-16)
(0.944792 -0.0990805 -2.90397e-17)
(0.934376 -0.0903242 -1.71856e-16)
(0.924155 -0.0789471 -1.60078e-16)
(0.914616 -0.0652377 -2.7251e-17)
(0.906902 -0.0488685 -1.61434e-16)
(0.901674 -0.0309136 -3.05193e-17)
(0.900578 -0.0107688 -1.61082e-16)
(1.05121 -0.0558724 -6.03465e-17)
(1.04569 -0.0653479 -3.43428e-17)
(1.03949 -0.0676318 -7.92578e-17)
(1.03197 -0.0731757 -9.70017e-17)
(1.02394 -0.0758334 -9.45528e-17)
(1.01515 -0.0785799 -1.6656e-16)
(1.00565 -0.0801163 1.38923e-17)
(0.995405 -0.0807468 8.13065e-17)
(0.984441 -0.0803691 -1.04803e-16)
(0.972819 -0.0789376 2.85785e-17)
(0.960716 -0.0764329 1.14453e-16)
(0.948395 -0.0728397 6.31018e-17)
(0.936232 -0.0681478 1.27003e-16)
(0.924651 -0.0623604 9.8301e-17)
(0.914086 -0.055439 3.18855e-16)
(0.904819 -0.0474216 1.5394e-16)
(0.897021 -0.0382152 6.74734e-17)
(0.890562 -0.028088 1.25359e-16)
(0.885632 -0.0170192 8.7609e-17)
(0.882185 -0.0056388 3.18601e-16)
(1.03801 -0.0385524 -1.60915e-16)
(1.03395 -0.0458825 -4.29181e-17)
(1.0296 -0.0478334 -1.86621e-16)
(1.0244 -0.052348 -2.34628e-16)
(1.01909 -0.0547763 -1.70236e-16)
(1.01362 -0.0573567 -1.06335e-17)
(1.00816 -0.0591134 -1.25938e-16)
(1.00282 -0.0602515 1.80346e-16)
(0.997677 -0.0606529 1.14481e-17)