/*--------------------------------*- C++ -*----------------------------------*\
  =========                 |
  \\      /  F ield         | OpenFOAM: The Open Source CFD Toolbox
   \\    /   O peration     | Website:  https://openfoam.org
    \\  /    A nd           | Version:  7
     \\/     M anipulation  |
\*---------------------------------------------------------------------------*/
FoamFile
{
    version     2.0;
    format      ascii;
    class       volVectorField;
    location    "116";
    object      U;
}
// * * * * * * * * * * * * * * * * * * * * * * * * * * * * * * * * * * * * * //

dimensions      [0 1 -1 0 0 0 0];

internalField   nonuniform List<vector> 
125
(
(1.24166 -0.221795 1.41755e-17)
(1.24091 -0.234607 5.20356e-18)
(1.24096 -0.24822 6.83212e-19)
(1.24202 -0.262741 -1.33238e-17)
(1.24443 -0.278533 -1.70871e-17)
(1.23552 -0.222667 2.16736e-17)
(1.23445 -0.236191 5.09546e-18)
(1.23417 -0.250628 5.65655e-19)
(1.23485 -0.266131 -1.58597e-17)
(1.23688 -0.283086 -1.94358e-17)
(1.22926 -0.222597 1.18811e-17)
(1.22783 -0.236631 -1.21545e-18)
(1.22716 -0.251663 1.62047e-18)
(1.22739 -0.267868 -2.36571e-17)
(1.22886 -0.285644 -2.29593e-17)
(1.22513 -0.209075 7.30604e-18)
(1.22269 -0.222703 1.85401e-17)
(1.22085 -0.237307 7.12541e-18)
(1.2197 -0.253003 -2.91637e-18)
(1.21937 -0.269996 -1.39607e-17)
(1.22018 -0.288699 -2.59147e-17)
(1.21878 -0.208446 1.41334e-17)
(1.21593 -0.222532 2.02478e-17)
(1.21362 -0.237655 5.49326e-18)
(1.21192 -0.253957 -7.60077e-19)
(1.21093 -0.271668 -1.29438e-17)
(1.21096 -0.291208 -3.08828e-17)
(1.21236 -0.207698 1.32381e-17)
(1.20908 -0.222225 2.41605e-17)
(1.20625 -0.237847 6.28605e-18)
(1.20394 -0.254731 7.0109e-18)
(1.20221 -0.273132 -1.4916e-17)
(1.20596 -0.206784 1.51687e-17)
(1.20226 -0.221717 2.88919e-17)
(1.19894 -0.237795 6.31099e-18)
(1.19603 -0.25521 7.13243e-18)
(1.19356 -0.274235 -1.64472e-17)
(1.19942 -0.205739 1.61567e-17)
(1.19533 -0.221052 3.44826e-17)
(1.19155 -0.237553 6.15944e-18)
(1.18811 -0.255457 9.6074e-18)
(1.18499 -0.275051 -9.28543e-18)
(1.19211 -0.204558 -6.24228e-19)
(1.18751 -0.22023 3.17684e-17)
(1.18316 -0.237133 1.44927e-17)
(1.17907 -0.255502 2.27015e-18)
(1.17522 -0.275634 -2.11923e-17)
(1.18346 -0.203153 1.17788e-17)
(1.17798 -0.21915 3.06729e-17)
(1.1726 -0.236424 4.08707e-18)
(1.1673 -0.255228 -3.56008e-18)
(1.16201 -0.275871 -2.07077e-17)
(1.29036 -0.217873 7.9467e-18)
(1.2913 -0.22737 6.79608e-20)
(1.29329 -0.237246 -1.93831e-19)
(1.29667 -0.247353 -3.27614e-18)
(1.30197 -0.257673 -3.34726e-18)
(1.2863 -0.217447 9.78089e-18)
(1.28705 -0.227217 1.98504e-18)
(1.2888 -0.237407 2.27093e-19)
(1.29188 -0.247894 -3.46044e-18)
(1.29684 -0.258718 -4.26494e-18)
(1.28206 -0.217196 9.47875e-18)
(1.28258 -0.227295 2.10537e-18)
(1.28409 -0.237864 -8.81953e-19)
(1.28686 -0.248794 -3.669e-18)
(1.29144 -0.260139 -5.89465e-18)
(1.27769 -0.216715 7.17273e-18)
(1.27799 -0.227108 3.06209e-18)
(1.27923 -0.238018 1.7831e-18)
(1.28167 -0.249356 -3.67048e-18)
(1.28583 -0.261208 -5.8551e-18)
(1.27316 -0.216158 6.79243e-18)
(1.27321 -0.226845 3.5488e-18)
(1.27418 -0.238095 -5.44085e-19)
(1.27627 -0.249836 -3.57467e-18)
(1.27996 -0.262165 -7.58564e-18)
(1.26849 -0.215451 8.24616e-18)
(1.26829 -0.226414 4.73414e-18)
(1.26895 -0.237984 8.87463e-19)
(1.27068 -0.250108 -3.14735e-18)
(1.27388 -0.262899 -8.8676e-18)
(1.27931 -0.276526 -1.51347e-18)
(1.26368 -0.214613 9.34856e-18)
(1.26319 -0.225837 5.85265e-18)
(1.26353 -0.237708 1.49322e-18)
(1.26485 -0.250192 3.73125e-19)
(1.26752 -0.263408 -1.0861e-17)
(1.27219 -0.27757 -2.90845e-18)
(1.25874 -0.21362 1.07646e-17)
(1.25795 -0.225081 1.10637e-17)
(1.25792 -0.237226 1.90436e-18)
(1.25879 -0.25004 9.94588e-19)
(1.26086 -0.263644 -1.27803e-17)
(1.26471 -0.278297 -6.36572e-18)
(1.25257 -0.224137 1.25044e-17)
(1.25218 -0.236522 2.66226e-18)
(1.25261 -0.249623 -3.00054e-19)
(1.2541 -0.263561 -1.10284e-17)
(1.25713 -0.278628 -1.0972e-17)
(1.24714 -0.223019 1.05144e-17)
(1.2465 -0.235617 3.7744e-18)
(1.24665 -0.248971 -2.11591e-18)
(1.24779 -0.263196 -1.28581e-17)
(1.25032 -0.278624 -1.28846e-17)
(1.05805 -0.0742962 1.19342e-17)
(1.07027 -0.139448 -1.65029e-17)
(1.11884 -0.137235 9.52475e-17)
(1.14216 -0.19499 3.97889e-17)
(1.05071 -0.0777507 1.01057e-18)
(1.06044 -0.150504 1.42808e-17)
(1.11073 -0.144847 1.11276e-17)
(1.13137 -0.212033 2.03753e-17)
(1.04269 -0.0807124 -1.64001e-17)
(1.04983 -0.161523 4.98986e-17)
(1.10181 -0.152083 1.3782e-17)
(1.11947 -0.230486 6.63471e-17)
(1.03387 -0.0831692 -5.46682e-17)
(1.03846 -0.172442 -3.15088e-17)
(1.09194 -0.158886 4.711e-17)
(1.1062 -0.250656 4.65397e-18)
(1.02407 -0.0851327 2.18409e-18)
(1.02645 -0.183184 -2.17657e-17)
(1.08077 -0.165165 -7.35613e-18)
(1.09123 -0.272875 -2.58059e-17)
)
;

boundaryField
{
    inlet
    {
        type            uniformFixedValue;
        uniformValue    constant (1 0 0);
        value           nonuniform 0();
    }
    outlet
    {
        type            pressureInletOutletVelocity;
        value           nonuniform 0();
    }
    polygon
    {
        type            fixedValue;
        value           nonuniform 0();
    }
    top
    {
        type            symmetryPlane;
    }
    bottom
    {
        type            symmetryPlane;
    }
    outside
    {
        type            zeroGradient;
    }
    procBoundary9to0
    {
        type            processor;
        value           nonuniform List<vector> 2((1.03396 -0.0851871 1.625e-17) (1.02744 -0.0904844 2.95091e-17));
    }
    procBoundary9to1
    {
        type            processor;
        value           nonuniform List<vector> 
26
(
(1.24313 -0.209742 8.93633e-18)
(1.23728 -0.209992 1.01922e-17)
(1.23132 -0.20947 4.68096e-18)
(1.23132 -0.20947 4.68096e-18)
(1.22817 -0.196102 9.2676e-19)
(1.22218 -0.195077 5.27172e-19)
(1.21613 -0.193953 6.85506e-18)
(1.21009 -0.192694 1.30446e-17)
(1.20389 -0.191328 2.10445e-17)
(1.19701 -0.189847 1.36597e-17)
(1.18909 -0.188176 1.04568e-17)
(1.29026 -0.208496 3.20305e-18)
(1.28639 -0.207841 2.92794e-18)
(1.28235 -0.207303 2.92446e-19)
(1.27819 -0.206569 -3.76835e-21)
(1.27389 -0.205758 -1.03955e-18)
(1.26946 -0.204814 1.51571e-18)
(1.2649 -0.203752 -3.49053e-19)
(1.26023 -0.202554 -1.22808e-18)
(1.25368 -0.212465 7.17392e-18)
(1.25368 -0.212465 7.17392e-18)
(1.24847 -0.211158 8.7276e-18)
(1.06477 -0.0703531 1.79932e-17)
(1.07938 -0.128422 -5.28247e-18)
(1.12626 -0.129259 2.30884e-17)
(1.15204 -0.179171 1.97402e-17)
)
;
    }
    procBoundary9to2
    {
        type            processor;
        value           nonuniform List<vector> 3((1.29894 -0.217076 5.32085e-18) (1.30031 -0.22565 4.31585e-20) (1.30278 -0.234466 -5.5601e-19));
    }
    procBoundary9to8
    {
        type            processor;
        value           nonuniform List<vector> 3((1.02053 -0.0952749 3.26998e-17) (1.0133 -0.0994491 4.94041e-17) (1.00581 -0.102821 1.52846e-17));
    }
    procBoundary9to10
    {
        type            processor;
        value           nonuniform List<vector> 2((1.30666 -0.243367 -2.49136e-18) (1.3124 -0.252292 -2.18829e-18));
    }
    procBoundary9to17
    {
        type            processor;
        value           nonuniform List<vector> 
26
(
(1.24894 -0.295681 -5.25703e-18)
(1.24094 -0.30169 -3.77316e-18)
(1.23224 -0.305237 -8.51859e-18)
(1.22277 -0.309434 -7.82996e-18)
(1.21259 -0.312961 -1.50451e-17)
(1.20132 -0.29348 -3.60421e-17)
(1.20132 -0.29348 -3.60421e-17)
(1.19174 -0.29531 -4.29345e-17)
(1.18237 -0.296779 -4.28793e-17)
(1.17177 -0.297972 -4.63812e-17)
(1.15686 -0.298796 -5.67841e-17)
(1.30948 -0.267875 2.32256e-19)
(1.30429 -0.269745 -5.83622e-19)
(1.29852 -0.271835 -1.04927e-18)
(1.29249 -0.273619 -1.17059e-18)
(1.28603 -0.275189 -2.03181e-18)
(1.28603 -0.275189 -2.03181e-18)
(1.28804 -0.291035 1.22568e-19)
(1.28 -0.292805 -4.60555e-19)
(1.27143 -0.294165 2.06991e-19)
(1.26271 -0.294992 -1.38887e-18)
(1.25515 -0.295378 2.33702e-19)
(1.01311 -0.0866865 -2.26175e-18)
(1.014 -0.193644 -6.02931e-17)
(1.06767 -0.170769 -3.16043e-17)
(1.07428 -0.297564 -5.83576e-17)
)
;
    }
}


// ************************************************************************* //
