/*--------------------------------*- C++ -*----------------------------------*\
  =========                 |
  \\      /  F ield         | OpenFOAM: The Open Source CFD Toolbox
   \\    /   O peration     | Website:  https://openfoam.org
    \\  /    A nd           | Version:  7
     \\/     M anipulation  |
\*---------------------------------------------------------------------------*/
FoamFile
{
    version     2.0;
    format      ascii;
    class       volScalarField;
    location    "102";
    object      p;
}
// * * * * * * * * * * * * * * * * * * * * * * * * * * * * * * * * * * * * * //

dimensions      [0 2 -2 0 0 0 0];

internalField   nonuniform List<scalar> 
175
(
0.0092747
0.00104865
-0.00922022
-0.0217063
-0.0368703
-0.0545771
-0.07481
0.0117782
0.00360735
-0.00666031
-0.019197
-0.0344906
-0.0524239
-0.0732419
0.0143617
0.00626145
-0.00399113
-0.0165877
-0.032085
-0.0504293
-0.0720704
0.0170126
0.00900023
-0.00120753
-0.013815
-0.0294353
-0.0480748
-0.0704322
0.0197286
0.011819
0.00167997
-0.010903
-0.0265948
-0.0454542
-0.0684086
0.022508
0.0147157
0.0046685
-0.00785474
-0.0235654
-0.0425643
-0.0659916
-0.0915935
0.0253582
0.017703
0.00777708
-0.00464237
-0.0203096
-0.0393526
-0.063113
-0.0895512
0.0282963
0.0208076
0.0110451
-0.00120927
-0.0167498
-0.0357158
-0.0596561
-0.0868692
0.0313113
0.0240055
0.0144309
0.00237703
-0.0129843
-0.0317829
-0.0557631
-0.083667
0.0342942
0.0271171
0.0176596
0.00571099
-0.00957342
-0.0282754
-0.0521884
-0.0802731
-0.0636361
-0.0647086
-0.0655574
-0.0661373
-0.0664054
-0.0663374
-0.0659136
-0.0651199
-0.0639909
-0.0631584
-0.0638973
-0.0675819
-0.0547528
-0.0625491
-0.0634659
-0.064128
-0.0644856
-0.0644961
-0.06413
-0.0633405
-0.062047
-0.0602957
-0.0587798
-0.0585684
-0.0580574
-0.0497073
-0.0612543
-0.0619629
-0.0623754
-0.0624349
-0.0620932
-0.0613056
-0.0599906
-0.058033
-0.0555031
-0.0529938
-0.0509589
-0.0476867
-0.04024
-0.0597774
-0.0602228
-0.0603245
-0.0600207
-0.0592573
-0.0579748
-0.0560719
-0.0534341
-0.0501217
-0.0464935
-0.0426384
-0.037434
-0.0290615
-0.0581636
-0.0583146
-0.0580803
-0.0573968
-0.0562045
-0.0544313
-0.0519698
-0.0487135
-0.044676
-0.0399992
-0.0346208
-0.0278583
-0.0182031
-0.0564989
-0.0563577
-0.0557995
-0.0547589
-0.0531694
-0.0509499
-0.0479928
-0.0441946
-0.0395139
-0.0339485
-0.0273782
-0.019328
-0.00847918
-0.0548791
-0.0544696
-0.0536197
-0.0522613
-0.0503219
-0.0477142
-0.0443318
-0.0400684
-0.03484
-0.0285653
-0.0210949
-0.0120256
-0.000257005
-0.0533781
-0.0527338
-0.0516311
-0.0499993
-0.0477609
-0.0448249
-0.0410857
-0.0364321
-0.0307551
)
;

boundaryField
{
    inlet
    {
        type            zeroGradient;
    }
    outlet
    {
        type            fixedValue;
        value           nonuniform 0();
    }
    polygon
    {
        type            zeroGradient;
    }
    top
    {
        type            symmetryPlane;
    }
    bottom
    {
        type            symmetryPlane;
    }
    outside
    {
        type            slip;
    }
    procBoundary10to2
    {
        type            processor;
        value           nonuniform List<scalar> 
24
(
0.01578
0.0182094
0.0207041
0.0232538
0.0258573
0.0285134
0.0312259
0.0340054
0.036849
0.039697
-0.0239363
-0.0158043
-0.00597965
0.00640629
-0.0520429
-0.0512002
-0.0498853
-0.0480252
-0.0455393
-0.0423347
-0.0383061
-0.0333393
-0.0239363
-0.0273145
)
;
    }
    procBoundary10to3
    {
        type            processor;
        value           nonuniform List<scalar> 4(-0.0576937 -0.0562904 -0.0549155 -0.0536319);
    }
    procBoundary10to9
    {
        type            processor;
        value           nonuniform List<scalar> 3(0.0374145 0.0302846 0.0208364);
    }
    procBoundary10to11
    {
        type            processor;
        value           nonuniform List<scalar> 4(-0.0623864 -0.0614281 -0.060307 -0.059052);
    }
    procBoundary10to17
    {
        type            processor;
        value           nonuniform List<scalar> 5(0.00884979 -0.00651799 -0.0252428 -0.0489409 -0.0760236);
    }
    procBoundary10to18
    {
        type            processor;
        value           nonuniform List<scalar> 
24
(
-0.0956531
-0.0949905
-0.0947173
-0.0941254
-0.0930885
-0.0930885
-0.122024
-0.122301
-0.121886
-0.120874
-0.117996
-0.0644859
-0.0656656
-0.066648
-0.0673929
-0.0678551
-0.0680075
-0.0678198
-0.0673242
-0.0665295
-0.0661647
-0.0658713
-0.0751114
-0.054136
)
;
    }
}


// ************************************************************************* //
