/*--------------------------------*- C++ -*----------------------------------*\
  =========                 |
  \\      /  F ield         | OpenFOAM: The Open Source CFD Toolbox
   \\    /   O peration     | Website:  https://openfoam.org
    \\  /    A nd           | Version:  7
     \\/     M anipulation  |
\*---------------------------------------------------------------------------*/
FoamFile
{
    version     2.0;
    format      ascii;
    class       volScalarField;
    location    "100";
    object      p;
}
// * * * * * * * * * * * * * * * * * * * * * * * * * * * * * * * * * * * * * //

dimensions      [0 2 -2 0 0 0 0];

internalField   nonuniform List<scalar> 
175
(
-0.0379197
-0.0389761
-0.0400363
-0.0411004
-0.0421502
-0.043197
-0.0442228
-0.0452384
-0.0291117
-0.0297234
-0.0304101
-0.0311691
-0.0319945
-0.0328809
-0.033821
-0.0348067
-0.0358305
-0.0368838
-0.0379577
-0.039044
-0.0401405
-0.0412327
-0.0423136
-0.0433903
-0.0444402
-0.0454645
-0.0287633
-0.0293971
-0.0301135
-0.0309082
-0.0317752
-0.0327076
-0.0336974
-0.0347363
-0.0358145
-0.0369223
-0.0380498
-0.039187
-0.0403243
-0.0414511
-0.0425598
-0.0436458
-0.0447018
-0.0457251
-0.0284148
-0.0290698
-0.0298143
-0.0306429
-0.0315489
-0.0325246
-0.0335608
-0.0346477
-0.0357745
-0.03693
-0.0381029
-0.0392818
-0.0404559
-0.0416146
-0.042749
-0.0438519
-0.0449169
-0.0459403
-0.0280684
-0.0287425
-0.0295126
-0.0303725
-0.0313148
-0.0323308
-0.0334102
-0.034542
-0.0357141
-0.0369141
-0.0381293
-0.039347
-0.0405549
-0.0417419
-0.0428979
-0.0440147
-0.0450859
-0.0461074
-0.0277243
-0.0284151
-0.0292079
-0.030096
-0.0310713
-0.0321238
-0.0332425
-0.0344151
-0.0356283
-0.0368685
-0.0381215
-0.0393735
-0.0406113
-0.0418225
-0.0429964
-0.0441242
-0.0451991
-0.0462169
-0.0273812
-0.0280857
-0.0288978
-0.0298103
-0.0308141
-0.0318984
-0.0330513
-0.0342592
-0.0355078
-0.0367823
-0.0380674
-0.0393483
-0.0406107
-0.0418416
-0.0430297
-0.0441656
-0.0452424
-0.0462561
-0.0270334
-0.0277482
-0.0285757
-0.0295078
-0.0305349
-0.0316454
-0.0328263
-0.034063
-0.0353404
-0.0366426
-0.0379533
-0.039257
-0.0405387
-0.0417848
-0.0429836
-0.0441254
-0.0452035
-0.0462138
-0.0266696
-0.027391
-0.0282293
-0.029176
-0.0302206
-0.0313509
-0.032553
-0.0338116
-0.0351107
-0.0364336
-0.0377636
-0.0390842
-0.0403803
-0.0416378
-0.0428448
-0.0439918
-0.0450719
-0.0460813
-0.0262705
-0.0269948
-0.0278395
-0.0287956
-0.0298519
-0.0309957
-0.0322124
-0.0334862
-0.0348003
-0.0361378
-0.0374813
-0.0388142
-0.040121
-0.0413877
-0.0426023
-0.0437554
-0.0448403
-0.0458532
-0.0258077
-0.0265319
-0.0273792
-0.0283402
-0.0294034
)
;

boundaryField
{
    inlet
    {
        type            zeroGradient;
    }
    outlet
    {
        type            fixedValue;
        value           nonuniform 0();
    }
    polygon
    {
        type            zeroGradient;
    }
    top
    {
        type            symmetryPlane;
    }
    bottom
    {
        type            symmetryPlane;
    }
    outside
    {
        type            slip;
    }
    procBoundary12to4
    {
        type            processor;
        value           nonuniform List<scalar> 
19
(
-0.0305554
-0.0317813
-0.033065
-0.0343893
-0.0357369
-0.0370903
-0.038433
-0.0397492
-0.0410251
-0.0422489
-0.0434113
-0.0445056
-0.0455283
-0.0252429
-0.0259656
-0.0268135
-0.0277769
-0.0305554
-0.0288442
)
;
    }
    procBoundary12to5
    {
        type            processor;
        value           nonuniform List<scalar> 2(-0.0256733 -0.0252137);
    }
    procBoundary12to11
    {
        type            processor;
        value           nonuniform List<scalar> 10(-0.0462391 -0.0464632 -0.0467141 -0.0469206 -0.0470776 -0.0471763 -0.0472054 -0.0471553 -0.0470193 -0.0467937);
    }
    procBoundary12to13
    {
        type            processor;
        value           nonuniform List<scalar> 8(-0.0285789 -0.0282157 -0.0278533 -0.0274946 -0.0271405 -0.0267897 -0.0264371 -0.0260714);
    }
    procBoundary12to20
    {
        type            processor;
        value           nonuniform List<scalar> 
19
(
-0.0377776
-0.03879
-0.0398123
-0.0408439
-0.0418942
-0.0429297
-0.0439453
-0.0449614
-0.0294346
-0.0300238
-0.0306847
-0.0314112
-0.0322
-0.0330456
-0.0339428
-0.0348855
-0.0358671
-0.0368808
-0.0368808
)
;
    }
}


// ************************************************************************* //
