/*--------------------------------*- C++ -*----------------------------------*\
  =========                 |
  \\      /  F ield         | OpenFOAM: The Open Source CFD Toolbox
   \\    /   O peration     | Website:  https://openfoam.org
    \\  /    A nd           | Version:  7
     \\/     M anipulation  |
\*---------------------------------------------------------------------------*/
FoamFile
{
    version     2.0;
    format      ascii;
    class       surfaceScalarField;
    location    "80";
    object      phi;
}
// * * * * * * * * * * * * * * * * * * * * * * * * * * * * * * * * * * * * * //

dimensions      [0 3 -1 0 0 0 0];

internalField   nonuniform List<scalar> 
7840
(
-0.0014744
0.00976865
-0.00939946
-0.00183922
0.00973249
-0.00936766
-0.00220387
0.009676
-0.00931135
-0.00256805
0.00963178
-0.0092676
-0.00293343
0.00958257
-0.00921719
-0.00329996
0.00954113
-0.0091746
-0.00366956
0.00949738
-0.00912778
-0.00404318
0.00945871
-0.00908509
-0.00442271
0.00941975
-0.00904021
-0.00480932
0.00938724
-0.00900064
-0.00520854
0.00935334
-0.00895412
-0.00562092
0.00933476
-0.00892238
-0.00606285
0.0093088
-0.00886687
-0.00652485
0.00932398
-0.00886197
-0.00700842
0.00927329
-0.00878972
-0.00733762
0.00914938
-0.00882018
-0.0071971
0.00843698
-0.0085775
-0.00579246
0.00698155
-0.00838619
-0.00317785
0.00401694
-0.00663156
0.00109058
-0.00426842
-0.00150061
0.0101388
-0.00186793
0.0100998
-0.00223555
0.0100436
-0.00260334
0.00999957
-0.00297265
0.00995189
-0.00334408
0.00991256
-0.00371931
0.00987262
-0.0041
0.00983939
-0.00448871
0.00980847
-0.00488799
0.00978652
-0.00530432
0.00976967
-0.00574243
0.00977286
-0.00621133
0.00977771
-0.00666781
0.00978045
-0.00698621
0.00959169
-0.00683409
0.00899726
-0.00585935
0.00746224
-0.00382411
0.00494631
-0.00144302
0.00163586
-0.000352441
-0.00152573
0.0105102
-0.00189506
0.0104691
-0.00226535
0.0104139
-0.00263636
0.0103706
-0.00300985
0.0103254
-0.00338657
0.0102893
-0.00376848
0.0102545
-0.00415717
0.0102281
-0.0045555
0.0102068
-0.00496674
0.0101978
-0.005397
0.0101999
-0.00584484
0.0102207
-0.00627985
0.0102127
-0.00657319
0.0100738
-0.00647543
0.00949392
-0.00563151
0.00815335
-0.00390705
0.00573777
-0.00162713
0.00266639
-9.1626e-05
0.000100353
-0.000444067
-0.00154967
0.0108828
-0.00192082
0.0108403
-0.00229331
0.0107864
-0.00266698
0.0107442
-0.0030435
0.0107019
-0.00342357
0.0106693
-0.00380925
0.0106402
-0.00420288
0.0106217
-0.00460852
0.0106124
-0.00503033
0.0106196
-0.00546789
0.0106375
-0.00589311
0.0106459
-0.00621353
0.0105331
-0.00622331
0.0100836
-0.00564408
0.00891469
-0.00427785
0.00678712
-0.00236136
0.00382127
-0.000731883
0.00103692
-5.84193e-05
-0.000573111
-0.000502486
-0.00157222
0.0112564
-0.00194503
0.0112131
-0.00231953
0.0111609
-0.00269595
0.0111207
-0.0030761
0.011082
-0.00346132
0.0110546
-0.00385419
0.0110331
-0.00425687
0.0110244
-0.00467124
0.0110268
-0.0050955
0.0110438
-0.00551218
0.0110542
-0.00585538
0.0109891
-0.0059734
0.0106512
-0.00562326
0.00973344
-0.00458838
0.00787981
-0.00292237
0.0051211
-0.00122273
0.00212164
-0.000163245
-2.25694e-05
0.000113872
-0.000850227
-0.000388614
-0.00159345
0.0116309
-0.0019678
0.0115874
-0.00234411
0.0115372
-0.00272278
0.0114993
-0.0031052
0.0114645
-0.0034924
0.0114418
-0.00388593
0.0114266
-0.00428764
0.0114261
-0.00469889
0.0114381
-0.00511129
0.0114562
-0.00548261
0.0114255
-0.00569913
0.0112056
-0.0055633
0.0105153
-0.00485239
0.00902253
-0.00350514
0.00653256
-0.00187373
0.00348969
-0.000627297
0.00087521
-6.67557e-05
-0.00058311
6.20401e-06
-0.000923187
-0.00038241
-0.00161317
0.0120061
-0.00198873
0.011963
-0.00236652
0.011915
-0.00274737
0.0118802
-0.0031328
0.0118499
-0.00352471
0.0118337
-0.0039253
0.0118272
-0.00433603
0.0118368
-0.00475098
0.011853
-0.00513971
0.011845
-0.0054218
0.0117076
-0.0054476
0.0112314
-0.00502076
0.0100885
-0.00400142
0.00800318
-0.00253127
0.00506242
-0.00115334
0.00211176
-0.000342102
6.39758e-05
-3.44838e-05
-0.000890729
6.90928e-06
-0.00096458
-0.000375501
-0.00163171
0.0123819
-0.00200852
0.0123398
-0.00238776
0.0122942
-0.00277048
0.0122629
-0.0031574
0.0122368
-0.00354943
0.0122257
-0.00394613
0.0122239
-0.00434398
0.0122347
-0.00472757
0.0122366
-0.00505068
0.0121681
-0.00521133
0.0118682
-0.00504219
0.0110623
-0.00436521
0.00941152
-0.00315788
0.00679584
-0.00176667
0.00367121
-0.000732378
0.00107747
-0.000212848
-0.000455554
-3.82746e-05
-0.0010653
-2.1749e-05
-0.000981106
-0.00039725
-0.00164856
0.012758
-0.002026
0.0127173
-0.00240591
0.0126741
-0.0027901
0.0126471
-0.00317877
0.0126255
-0.00357385
0.0126208
-0.00397536
0.0126254
-0.00437807
0.0126374
-0.00475488
0.0126134
-0.00502923
0.0124424
-0.00505673
0.0118957
-0.00465817
0.0106637
-0.00373459
0.00848793
-0.00244134
0.0055026
-0.00123213
0.00246199
-0.00046196
0.000307295
-0.000101656
-0.000815857
5.24272e-06
-0.0011722
5.41745e-06
-0.000981281
-0.000391833
-0.00166418
0.0131338
-0.00204363
0.0130967
-0.00242487
0.0130554
-0.0028111
0.0130333
-0.00320063
0.013015
-0.0035943
0.0130144
-0.00398603
0.0130171
-0.00435755
0.0130089
-0.00465775
0.0129136
-0.00478498
0.0125696
-0.0045982
0.011709
-0.00398111
0.0100467
-0.00294985
0.00745667
-0.00175391
0.00430667
-0.000787061
0.00149514
-0.00022343
-0.000256335
2.59511e-05
-0.00106524
5.88849e-05
-0.00120514
1.40735e-05
-0.000936469
-0.000377759
-0.000617944
0.0115516
-0.011774
-0.000403555
0.0114581
-0.0116725
-0.000194128
0.0113586
-0.011568
3.49149e-06
0.0112312
-0.0114288
0.000192082
0.0111128
-0.0113014
0.000366342
0.0109644
-0.0111387
0.000526627
0.0108157
-0.010976
0.000668568
0.0106355
-0.0107775
0.000789246
0.0104368
-0.0105575
0.000884434
0.0101969
-0.0102921
0.000948886
0.0099181
-0.00998255
0.00097773
0.00957481
-0.00960365
0.000962399
0.00917088
-0.00915555
0.000905162
0.00866943
-0.00861219
0.00079664
0.00811513
-0.00800661
0.000644153
0.00740952
-0.00725703
0.000441442
0.00670861
-0.0065059
0.000178101
0.0057489
-0.00548555
-6.71993e-06
0.0045892
-0.00440438
0.00218184
-0.00218856
-0.000642673
0.0113261
-0.000425973
0.0112414
-0.000213956
0.0111466
-1.35356e-05
0.0110307
0.000178018
0.0109213
0.000355346
0.0107871
0.000518703
0.0106523
0.000663659
0.0104906
0.000787498
0.0103129
0.000885698
0.0100987
0.000953153
0.00985064
0.00098504
0.00954292
0.000974841
0.00918108
0.000921043
0.00872323
0.000821107
0.00821507
0.000667716
0.00756291
0.000485124
0.0068912
0.000229989
0.00600403
7.37455e-05
0.00474544
0.00225558
-0.000667338
0.0110978
-0.000447442
0.0110215
-0.000232488
0.0109316
-2.86818e-05
0.0108269
0.000166464
0.0107261
0.000347661
0.0106059
0.000515053
0.0104849
0.000664124
0.0103415
0.000792
0.0101851
0.000893641
0.00999703
0.000963346
0.00978094
0.000995223
0.00951104
0.000981085
0.00919522
0.000916694
0.00878762
0.00079877
0.00833299
0.000618968
0.00774271
0.000403826
0.00710634
0.000120124
0.00628773
-3.65497e-05
0.00490212
0.00221903
-0.000691466
0.0108664
-0.00046804
0.0107981
-0.000249724
0.0107133
-4.20781e-05
0.0106193
0.000157088
0.010527
0.000342746
0.0104202
0.000514915
0.0103128
0.000669127
0.0101873
0.000802556
0.0100516
0.000910004
0.00988958
0.000985986
0.00970495
0.00102374
0.00947329
0.00101651
0.00920245
0.000954696
0.00884943
0.000841888
0.0084458
0.00065019
0.00793441
0.000434253
0.00732228
0.000154887
0.0065671
-1.62665e-05
0.00507327
0.00220277
-0.000715239
0.0106317
-0.000488049
0.0105709
-0.000266103
0.0104913
-5.42667e-05
0.0104074
0.000149323
0.0103234
0.000339989
0.0102295
0.00051774
0.010135
0.000678288
0.0100267
0.000819015
0.00991092
0.00093454
0.00977406
0.00101968
0.00961982
0.0010665
0.00942647
0.00106904
0.00919991
0.00101536
0.00890311
0.000909616
0.00855154
0.000732678
0.00811135
0.000506546
0.00754841
0.000230493
0.00684315
2.60816e-05
0.00527768
0.00222885
-0.000738151
0.0103933
-0.000506722
0.0103394
-0.00028053
0.0102652
-6.37633e-05
0.0101907
0.000145145
0.0101145
0.000341959
0.0100327
0.000526794
0.00995017
0.000695568
0.00985797
0.000846136
0.00976035
0.000972922
0.00964727
0.00107167
0.00952107
0.00113199
0.00936615
0.00115079
0.0091811
0.00110608
0.00894783
0.00100806
0.00864956
0.000801351
0.00831806
0.000564154
0.00778561
0.000241751
0.00716556
2.51033e-05
0.00549433
0.00225395
-0.000760994
0.0101512
-0.000525376
0.0101038
-0.000294972
0.0100347
-7.33453e-05
0.00996905
0.000140851
0.00990028
0.000343721
0.00982986
0.000535571
0.00975832
0.000712735
0.00968081
0.000873422
0.00959966
0.00101187
0.00950883
0.00112412
0.00940881
0.00119974
0.00929053
0.00123604
0.0091448
0.00121563
0.00896824
0.00114831
0.00871688
0.00102508
0.00844129
0.000822969
0.00798772
0.000568993
0.00741953
0.000226234
0.00583709
0.00248019
-0.000782139
0.00990487
-0.000541477
0.00986316
-0.000305645
0.00979891
-7.77832e-05
0.00974119
0.000143303
0.00967919
0.000354228
0.00961893
0.000555694
0.00955685
0.000744309
0.00949219
0.000918696
0.00942528
0.00107328
0.00935425
0.00120591
0.00927618
0.00130502
0.00919142
0.00136828
0.00908153
0.00136778
0.00896874
0.00130457
0.0087801
0.00110853
0.00863733
0.000846887
0.00824936
0.000434737
0.00783168
0.000160965
0.00611086
0.00264115
-0.000804571
0.00965467
-0.000560058
0.00961864
-0.000320205
0.00955906
-8.77923e-05
0.00950878
0.000138357
0.00945304
0.000354902
0.00940239
0.000562856
0.0093489
0.000758757
0.00929629
0.000941621
0.00924241
0.00110661
0.00918926
0.00125188
0.00913091
0.00136724
0.00907606
0.00145173
0.00899704
0.00148936
0.00893111
0.00149551
0.00877395
0.00148264
0.00865021
0.00142154
0.00831045
0.00126896
0.00798427
0.000772558
0.00660726
0.00341371
-0.000822708
-0.000571728
-0.000324017
-8.28356e-05
0.000153013
0.000380798
0.000601913
0.000813119
0.00101532
0.00120394
0.00138074
0.00153441
0.00166458
0.00173373
0.00171795
0.00154798
0.00128093
0.000879017
0.000854715
-0.000822708
-0.00965467
0.00939946
-0.000571728
-0.00961864
0.00936766
-0.000324017
-0.00955906
0.00931135
-8.28356e-05
-0.00950878
0.0092676
0.000153013
-0.00945304
0.00921719
0.000380798
-0.00940239
0.0091746
0.000601913
-0.0093489
0.00912778
0.000813119
-0.00929629
0.00908509
0.00101532
-0.00924241
0.00904021
0.00120394
-0.00918926
0.00900064
0.00138074
-0.00913091
0.00895412
0.00153441
-0.00907606
0.00892238
0.00166458
-0.00899704
0.00886687
0.00173373
-0.00893111
0.00886197
0.00171795
-0.00877395
0.00878972
0.00154798
-0.00865021
0.00882018
0.00128093
-0.00831045
0.0085775
0.000879017
-0.00798427
0.00838619
0.000854715
-0.00660726
0.00663156
-0.00341371
0.00426842
-0.000804571
-0.00990487
-0.000560058
-0.00986316
-0.000320205
-0.00979891
-8.77923e-05
-0.00974119
0.000138357
-0.00967919
0.000354902
-0.00961893
0.000562856
-0.00955685
0.000758757
-0.00949219
0.000941621
-0.00942528
0.00110661
-0.00935425
0.00125188
-0.00927618
0.00136724
-0.00919142
0.00145173
-0.00908153
0.00148936
-0.00896874
0.00149551
-0.0087801
0.00148264
-0.00863733
0.00142154
-0.00824936
0.00126896
-0.00783168
0.000772558
-0.00611086
-0.00264115
-0.000782139
-0.0101512
-0.000541477
-0.0101038
-0.000305645
-0.0100347
-7.77832e-05
-0.00996905
0.000143303
-0.00990028
0.000354228
-0.00982986
0.000555694
-0.00975832
0.000744309
-0.00968081
0.000918696
-0.00959966
0.00107328
-0.00950883
0.00120591
-0.00940881
0.00130502
-0.00929053
0.00136828
-0.0091448
0.00136778
-0.00896824
0.00130457
-0.00871688
0.00110853
-0.00844129
0.000846887
-0.00798772
0.000434737
-0.00741953
0.000160965
-0.00583709
-0.00248019
-0.000760994
-0.0103933
-0.000525376
-0.0103394
-0.000294972
-0.0102652
-7.33453e-05
-0.0101907
0.000140851
-0.0101145
0.000343721
-0.0100327
0.000535571
-0.00995017
0.000712735
-0.00985797
0.000873422
-0.00976035
0.00101187
-0.00964727
0.00112412
-0.00952107
0.00119974
-0.00936615
0.00123604
-0.0091811
0.00121563
-0.00894783
0.00114831
-0.00864956
0.00102508
-0.00831806
0.000822969
-0.00778561
0.000568993
-0.00716556
0.000226234
-0.00549433
-0.00225395
-0.000738151
-0.0106317
-0.000506722
-0.0105709
-0.00028053
-0.0104913
-6.37633e-05
-0.0104074
0.000145145
-0.0103234
0.000341959
-0.0102295
0.000526794
-0.010135
0.000695568
-0.0100267
0.000846136
-0.00991092
0.000972922
-0.00977406
0.00107167
-0.00961982
0.00113199
-0.00942647
0.00115079
-0.00919991
0.00110608
-0.00890311
0.00100806
-0.00855154
0.000801351
-0.00811135
0.000564154
-0.00754841
0.000241751
-0.00684315
2.51033e-05
-0.00527768
-0.00222885
-0.000715239
-0.0108664
-0.000488049
-0.0107981
-0.000266103
-0.0107133
-5.42667e-05
-0.0106193
0.000149323
-0.010527
0.000339989
-0.0104202
0.00051774
-0.0103128
0.000678288
-0.0101873
0.000819015
-0.0100516
0.00093454
-0.00988958
0.00101968
-0.00970495
0.0010665
-0.00947329
0.00106904
-0.00920245
0.00101536
-0.00884943
0.000909616
-0.0084458
0.000732678
-0.00793441
0.000506546
-0.00732228
0.000230493
-0.0065671
2.60815e-05
-0.00507327
-0.00220277
-0.000691466
-0.0110978
-0.00046804
-0.0110215
-0.000249724
-0.0109316
-4.20781e-05
-0.0108269
0.000157088
-0.0107261
0.000342746
-0.0106059
0.000514915
-0.0104849
0.000669127
-0.0103415
0.000802556
-0.0101851
0.000910004
-0.00999703
0.000985986
-0.00978094
0.00102374
-0.00951104
0.00101651
-0.00919522
0.000954696
-0.00878762
0.000841888
-0.00833299
0.00065019
-0.00774271
0.000434253
-0.00710634
0.000154887
-0.00628773
-1.62665e-05
-0.00490212
-0.00221903
-0.000667338
-0.0113261
-0.000447442
-0.0112414
-0.000232488
-0.0111466
-2.86818e-05
-0.0110307
0.000166464
-0.0109213
0.000347661
-0.0107871
0.000515053
-0.0106523
0.000664124
-0.0104906
0.000792
-0.0103129
0.000893641
-0.0100987
0.000963346
-0.00985064
0.000995223
-0.00954292
0.000981085
-0.00918108
0.000916694
-0.00872323
0.00079877
-0.00821507
0.000618968
-0.00756291
0.000403826
-0.0068912
0.000120124
-0.00600403
-3.65497e-05
-0.00474544
-0.00225558
-0.000642673
-0.0115516
-0.000425973
-0.0114581
-0.000213956
-0.0113586
-1.35356e-05
-0.0112312
0.000178018
-0.0111128
0.000355346
-0.0109644
0.000518703
-0.0108157
0.000663659
-0.0106355
0.000787498
-0.0104368
0.000885698
-0.0101969
0.000953153
-0.0099181
0.00098504
-0.00957481
0.000974841
-0.00917088
0.000921043
-0.00866943
0.000821107
-0.00811513
0.000667716
-0.00740952
0.000485124
-0.00670861
0.000229989
-0.0057489
7.37455e-05
-0.0045892
-0.00218184
-0.000617944
-0.011774
-0.000403555
-0.0116725
-0.000194128
-0.011568
3.49149e-06
-0.0114288
0.000192082
-0.0113014
0.000366342
-0.0111387
0.000526627
-0.010976
0.000668568
-0.0107775
0.000789246
-0.0105575
0.000884434
-0.0102921
0.000948886
-0.00998255
0.00097773
-0.00960365
0.000962399
-0.00915555
0.000905162
-0.00861219
0.00079664
-0.00800661
0.000644153
-0.00725703
0.000441442
-0.0065059
0.000178101
-0.00548555
-6.71993e-06
-0.00440438
-0.00218856
-0.00166418
-0.012758
0.0131338
-0.00204363
-0.0127173
0.0130967
-0.00242487
-0.0126741
0.0130554
-0.0028111
-0.0126471
0.0130333
-0.00320063
-0.0126255
0.013015
-0.0035943
-0.0126208
0.0130144
-0.00398603
-0.0126254
0.0130171
-0.00435755
-0.0126374
0.0130089
-0.00465775
-0.0126134
0.0129136
-0.00478498
-0.0124424
0.0125696
-0.0045982
-0.0118957
0.011709
-0.00398111
-0.0106637
0.0100467
-0.00294985
-0.00848793
0.00745667
-0.00175391
-0.0055026
0.00430667
-0.000787061
-0.00246199
0.00149514
-0.00022343
-0.000307295
-0.000256335
2.59511e-05
0.000815857
-0.00106524
5.88849e-05
0.0011722
-0.00120514
1.40735e-05
0.000981281
-0.000936469
0.000391833
-0.000377759
-0.00164856
-0.0123819
-0.002026
-0.0123398
-0.00240591
-0.0122942
-0.0027901
-0.0122629
-0.00317877
-0.0122368
-0.00357385
-0.0122257
-0.00397536
-0.0122239
-0.00437807
-0.0122347
-0.00475488
-0.0122366
-0.00502923
-0.0121681
-0.00505673
-0.0118682
-0.00465817
-0.0110623
-0.00373459
-0.00941152
-0.00244134
-0.00679584
-0.00123213
-0.00367121
-0.00046196
-0.00107747
-0.000101656
0.000455554
5.24272e-06
0.0010653
5.41745e-06
0.000981106
0.00039725
-0.00163171
-0.0120061
-0.00200852
-0.011963
-0.00238776
-0.011915
-0.00277048
-0.0118802
-0.0031574
-0.0118499
-0.00354943
-0.0118337
-0.00394613
-0.0118272
-0.00434398
-0.0118368
-0.00472757
-0.011853
-0.00505068
-0.011845
-0.00521133
-0.0117076
-0.00504219
-0.0112314
-0.00436521
-0.0100885
-0.00315788
-0.00800318
-0.00176667
-0.00506242
-0.000732378
-0.00211176
-0.000212848
-6.39758e-05
-3.82746e-05
0.000890729
-2.1749e-05
0.00096458
0.000375501
-0.00161317
-0.0116309
-0.00198873
-0.0115874
-0.00236652
-0.0115372
-0.00274737
-0.0114993
-0.0031328
-0.0114645
-0.00352471
-0.0114418
-0.0039253
-0.0114266
-0.00433603
-0.0114261
-0.00475098
-0.0114381
-0.00513971
-0.0114562
-0.0054218
-0.0114255
-0.0054476
-0.0112056
-0.00502076
-0.0105153
-0.00400142
-0.00902253
-0.00253127
-0.00653256
-0.00115334
-0.00348969
-0.000342102
-0.00087521
-3.44838e-05
0.00058311
6.90928e-06
0.000923187
0.00038241
-0.00159345
-0.0112564
-0.0019678
-0.0112131
-0.00234411
-0.0111609
-0.00272278
-0.0111207
-0.0031052
-0.011082
-0.0034924
-0.0110546
-0.00388593
-0.0110331
-0.00428764
-0.0110244
-0.00469889
-0.0110268
-0.00511129
-0.0110438
-0.00548261
-0.0110542
-0.00569913
-0.0109891
-0.0055633
-0.0106512
-0.00485239
-0.00973344
-0.00350514
-0.00787981
-0.00187373
-0.0051211
-0.000627297
-0.00212164
-6.67557e-05
2.25694e-05
6.20401e-06
0.000850227
0.000388614
-0.00157222
-0.0108828
-0.00194503
-0.0108403
-0.00231953
-0.0107864
-0.00269595
-0.0107442
-0.0030761
-0.0107019
-0.00346132
-0.0106693
-0.00385419
-0.0106402
-0.00425687
-0.0106217
-0.00467124
-0.0106124
-0.0050955
-0.0106196
-0.00551218
-0.0106375
-0.00585538
-0.0106459
-0.0059734
-0.0105331
-0.00562326
-0.0100836
-0.00458838
-0.00891469
-0.00292237
-0.00678712
-0.00122273
-0.00382127
-0.000163245
-0.00103692
0.000113872
0.000573111
0.000502486
-0.00154967
-0.0105102
-0.00192082
-0.0104691
-0.00229331
-0.0104139
-0.00266698
-0.0103706
-0.0030435
-0.0103254
-0.00342357
-0.0102893
-0.00380925
-0.0102545
-0.00420288
-0.0102281
-0.00460852
-0.0102068
-0.00503033
-0.0101978
-0.00546789
-0.0101999
-0.00589311
-0.0102207
-0.00621353
-0.0102127
-0.00622331
-0.0100738
-0.00564408
-0.00949392
-0.00427785
-0.00815335
-0.00236136
-0.00573777
-0.000731883
-0.00266639
-5.84193e-05
-0.000100353
0.000444067
-0.00152573
-0.0101388
-0.00189506
-0.0100998
-0.00226535
-0.0100436
-0.00263636
-0.00999957
-0.00300985
-0.00995189
-0.00338657
-0.00991256
-0.00376848
-0.00987262
-0.00415717
-0.00983939
-0.0045555
-0.00980847
-0.00496674
-0.00978652
-0.005397
-0.00976967
-0.00584484
-0.00977286
-0.00627985
-0.00977771
-0.00657319
-0.00978045
-0.00647543
-0.00959169
-0.00563151
-0.00899726
-0.00390705
-0.00746224
-0.00162713
-0.00494631
-9.1626e-05
-0.00163586
0.000352441
-0.00150061
-0.00976865
-0.00186793
-0.00973249
-0.00223555
-0.009676
-0.00260334
-0.00963178
-0.00297265
-0.00958257
-0.00334408
-0.00954113
-0.00371931
-0.00949738
-0.0041
-0.00945871
-0.00448871
-0.00941975
-0.00488799
-0.00938724
-0.00530432
-0.00935334
-0.00574243
-0.00933476
-0.00621133
-0.0093088
-0.00666781
-0.00932398
-0.00698621
-0.00927329
-0.00683409
-0.00914938
-0.00585935
-0.00843698
-0.00382411
-0.00698155
-0.00144302
-0.00401694
-0.00109058
-0.0014744
-0.00183922
-0.00220387
-0.00256805
-0.00293343
-0.00329996
-0.00366956
-0.00404318
-0.00442271
-0.00480932
-0.00520854
-0.00562092
-0.00606285
-0.00652485
-0.00700842
-0.00733762
-0.0071971
-0.00579246
-0.00317785
-0.00453423
-0.0113782
-0.0049319
-0.0112748
-0.00533765
-0.0111623
-0.0057373
-0.0110291
-0.00614889
-0.0108898
-0.00655254
-0.010735
-0.00696059
-0.0105679
-0.0073537
-0.0103844
-0.00772728
-0.0101839
-0.00806275
-0.00995659
-0.00834429
-0.00970101
-0.00853518
-0.00941276
-0.0086032
-0.00908753
-0.00849767
-0.00871773
-0.00820224
-0.00830204
-0.00761875
-0.00784051
-0.00678093
-0.00734373
-0.0054544
-0.00681209
-0.0035268
-0.00633198
-0.00571536
-1.55083e-11
-0.0035072
-0.0110697
-0.0038007
-0.0109813
-0.00408294
-0.01088
-0.00435278
-0.0107593
-0.00461389
-0.0106287
-0.00486171
-0.0104872
-0.00509673
-0.0103329
-0.00531556
-0.0101655
-0.00551605
-0.0099834
-0.00568631
-0.00978633
-0.00581354
-0.00957378
-0.00587959
-0.00934671
-0.00586063
-0.00910649
-0.00572166
-0.0088567
-0.00542366
-0.00860004
-0.0049225
-0.00834167
-0.00417689
-0.00808934
-0.00313876
-0.00785022
-0.00181624
-0.00765449
-0.0075316
-9.3754e-12
-0.0028827
-0.0108022
-0.00313759
-0.0107264
-0.00337501
-0.0106426
-0.00359125
-0.0105431
-0.00378105
-0.0104389
-0.0039423
-0.0103259
-0.00407039
-0.0102048
-0.0041608
-0.0100751
-0.00420709
-0.00993712
-0.00420311
-0.00979031
-0.0041419
-0.00963498
-0.00401696
-0.00947165
-0.00382165
-0.0093018
-0.00355044
-0.00912791
-0.00319581
-0.00895467
-0.00274922
-0.00878826
-0.00220322
-0.00863535
-0.00154958
-0.00850385
-0.000799131
-0.00840494
-0.00833073
-7.74274e-12
-0.00208042
-0.0106007
-0.00226791
-0.0105389
-0.00244013
-0.0104704
-0.00259559
-0.0103876
-0.00273452
-0.0103
-0.00285452
-0.0102059
-0.00295269
-0.0101066
-0.0030252
-0.0100026
-0.00306776
-0.00989456
-0.00307456
-0.00978351
-0.00303899
-0.00967055
-0.00295358
-0.00955707
-0.00281074
-0.00944463
-0.00260357
-0.00933509
-0.00232777
-0.00923047
-0.00198257
-0.00913346
-0.0015704
-0.00904751
-0.00109697
-0.00897728
-0.000574534
-0.00892738
-0.00890526
-5.91322e-12
-0.00167616
-0.0104444
-0.0018165
-0.0103986
-0.00193973
-0.0103471
-0.00204234
-0.010285
-0.00212286
-0.0102195
-0.00217944
-0.0101494
-0.00221037
-0.0100757
-0.00221421
-0.00999878
-0.00218964
-0.00991913
-0.00213586
-0.00983729
-0.00205231
-0.0097541
-0.0019387
-0.00967067
-0.00179482
-0.00958851
-0.00162039
-0.00950952
-0.00141494
-0.00943592
-0.00117845
-0.00936995
-0.000912268
-0.00931369
-0.000620953
-0.0092686
-0.000311983
-0.00923635
-0.00921725
-5.16353e-12
-0.00116641
-0.0103244
-0.00127788
-0.0102871
-0.00137839
-0.0102466
-0.00146602
-0.0101974
-0.00153957
-0.0101459
-0.00159748
-0.0100915
-0.00163808
-0.0100351
-0.00165945
-0.00997741
-0.00165947
-0.00991911
-0.00163587
-0.00986088
-0.00158651
-0.00980346
-0.00150957
-0.00974761
-0.00140401
-0.00969408
-0.00126985
-0.00964368
-0.00110845
-0.00959732
-0.000922345
-0.00955606
-0.000714913
-0.00952112
-0.000489523
-0.00949399
-0.000250131
-0.00947574
-0.00946738
-4.28858e-12
-0.000922957
-0.0102392
-0.000996375
-0.0102137
-0.00105848
-0.0101845
-0.00110669
-0.0101491
-0.00114072
-0.0101119
-0.00115982
-0.0100724
-0.00116369
-0.0100312
-0.00115225
-0.00998885
-0.00112567
-0.00994569
-0.00108434
-0.00990221
-0.00102877
-0.00985904
-0.0009595
-0.00981688
-0.000877007
-0.00977657
-0.000781671
-0.00973902
-0.000673873
-0.00970512
-0.00055431
-0.00967562
-0.000424325
-0.00965111
-0.000286397
-0.00963191
-0.000143711
-0.00961843
-0.00961109
-3.81303e-12
-0.000637829
-0.0101712
-0.000701265
-0.0101503
-0.00075789
-0.0101279
-0.000806408
-0.0101006
-0.00084584
-0.0100725
-0.00087526
-0.0100429
-0.000893718
-0.0100128
-0.00090026
-0.00998231
-0.000893956
-0.00995199
-0.000873982
-0.00992219
-0.000839748
-0.00989327
-0.000791036
-0.00986559
-0.000728121
-0.00983948
-0.000651839
-0.0098153
-0.000563531
-0.00979342
-0.000464853
-0.0097743
-0.000357545
-0.00975842
-0.000243167
-0.00974629
-0.000123337
-0.00973826
-0.00973442
-3.43001e-12
-0.000491063
-0.0101261
-0.000528802
-0.0101125
-0.000559817
-0.0100969
-0.000582553
-0.0100779
-0.000597128
-0.0100579
-0.000603326
-0.0100367
-0.000601265
-0.0100148
-0.00059119
-0.00999238
-0.000573472
-0.00996971
-0.000548566
-0.00994709
-0.000516938
-0.0099249
-0.000479008
-0.00990352
-0.000435109
-0.00988338
-0.000385504
-0.00986491
-0.000330465
-0.00984846
-0.000270431
-0.00983433
-0.000206149
-0.0098227
-0.000138774
-0.00981367
-6.96526e-05
-0.00980738
-0.00980408
-3.06779e-12
-0.000345675
-0.0100886
-0.000380905
-0.0100773
-0.000412345
-0.0100654
-0.000439226
-0.010051
-0.000460862
-0.0100363
-0.000476686
-0.0100209
-0.000486138
-0.0100054
-0.000488702
-0.00998982
-0.000483923
-0.00997449
-0.000471468
-0.00995955
-0.000451186
-0.00994518
-0.000423168
-0.00993154
-0.000387784
-0.00991877
-0.000345674
-0.00990702
-0.000297674
-0.00989646
-0.000244701
-0.00988731
-0.000187632
-0.00987977
-0.000127248
-0.00987405
-6.43579e-05
-0.00987027
-0.00986843
-2.93693e-12
-0.000253941
-0.0100651
-0.000273143
-0.0100581
-0.000288525
-0.0100501
-0.000299229
-0.0100403
-0.000305447
-0.01003
-0.000307177
-0.0100192
-0.000304606
-0.0100079
-0.000297988
-0.00999644
-0.000287627
-0.00998485
-0.000273847
-0.00997333
-0.000256948
-0.00996208
-0.000237168
-0.00995132
-0.000214679
-0.00994125
-0.000189603
-0.00993209
-0.000162068
-0.009924
-0.000132296
-0.00991708
-0.000100658
-0.0099114
-6.76902e-05
-0.00990702
-3.39784e-05
-0.00990398
-0.00990241
-2.60792e-12
-0.000186978
-0.0100446
-0.000206431
-0.0100386
-0.000223898
-0.0100326
-0.00023893
-0.0100253
-0.000251091
-0.0100179
-0.000260016
-0.0100103
-0.000265361
-0.0100026
-0.000266815
-0.00999499
-0.000264125
-0.00998754
-0.000257125
-0.00998033
-0.000245772
-0.00997343
-0.000230172
-0.00996692
-0.00021059
-0.00996084
-0.000187424
-0.00995526
-0.00016116
-0.00995026
-0.000132301
-0.00994594
-0.000101313
-0.00994239
-6.86177e-05
-0.00993971
-3.46605e-05
-0.00993794
-0.00993707
-2.55422e-12
-0.000126559
-0.0100324
-0.000136242
-0.0100289
-0.000143784
-0.010025
-0.000148749
-0.0100203
-0.000151299
-0.0100153
-0.000151507
-0.01001
-0.000149538
-0.0100046
-0.000145588
-0.00999894
-0.000139874
-0.00999325
-0.000132602
-0.0099876
-0.000123948
-0.00998209
-0.000114038
-0.00997683
-0.000102948
-0.00997193
-9.07193e-05
-0.00996749
-7.7399e-05
-0.00996358
-6.3082e-05
-0.00996025
-4.79409e-05
-0.00995753
-3.22188e-05
-0.00995543
-1.61717e-05
-0.00995399
-0.00995324
-2.2091e-12
-0.000100862
-0.0100211
-0.000111647
-0.0100182
-0.000121435
-0.0100153
-0.000129959
-0.0100118
-0.000136959
-0.0100083
-0.000142189
-0.0100048
-0.000145433
-0.0100013
-0.000146493
-0.00999788
-0.00014521
-0.00999453
-0.000141487
-0.00999132
-0.000135305
-0.00998827
-0.000126737
-0.0099854
-0.000115946
-0.00998272
-0.00010317
-0.00998026
-8.86868e-05
-0.00997806
-7.27784e-05
-0.00997616
-5.57043e-05
-0.00997461
-3.77047e-05
-0.00997343
-1.9034e-05
-0.00997266
-0.00997228
-2.11718e-12
-5.86824e-05
-0.0100149
-6.35043e-05
-0.0100133
-6.71227e-05
-0.0100116
-6.93434e-05
-0.0100096
-7.02814e-05
-0.0100074
-7.00324e-05
-0.0100051
-6.87207e-05
-0.0100026
-6.64903e-05
-0.0100001
-6.34869e-05
-0.00999754
-5.98416e-05
-0.00999497
-5.56567e-05
-0.00999246
-5.09962e-05
-0.00999006
-4.58877e-05
-0.00998783
-4.03359e-05
-0.00998581
-3.43461e-05
-0.00998405
-2.79491e-05
-0.00998256
-2.12149e-05
-0.00998134
-1.42458e-05
-0.0099804
-7.14762e-06
-0.00997976
-0.00997943
-1.73612e-12
-5.34117e-05
-0.0100087
-5.94143e-05
-0.0100073
-6.4944e-05
-0.0100061
-6.98307e-05
-0.0100047
-7.39357e-05
-0.0100033
-7.70853e-05
-0.0100019
-7.91491e-05
-0.0100006
-7.99933e-05
-0.00999926
-7.9516e-05
-0.00999802
-7.76528e-05
-0.00999683
-7.439e-05
-0.00999572
-6.97701e-05
-0.00999468
-6.38898e-05
-0.00999371
-5.68871e-05
-0.00999282
-4.89219e-05
-0.00999202
-4.01546e-05
-0.00999133
-3.07335e-05
-0.00999076
-2.07984e-05
-0.00999034
-1.04966e-05
-0.00999006
-0.00998992
-1.5472e-12
-2.23751e-05
-0.0100057
-2.46592e-05
-0.0100051
-2.62512e-05
-0.0100045
-2.71157e-05
-0.0100038
-2.73133e-05
-0.0100031
-2.69549e-05
-0.0100023
-2.61217e-05
-0.0100014
-2.49241e-05
-0.0100005
-2.34591e-05
-0.00999948
-2.18112e-05
-0.00999848
-2.00405e-05
-0.00999749
-1.81782e-05
-0.00999654
-1.62292e-05
-0.00999566
-1.41817e-05
-0.00999486
-1.20216e-05
-0.00999418
-9.74694e-06
-0.0099936
-7.37553e-06
-0.00999313
-4.94008e-06
-0.00999277
-2.47437e-06
-0.00999252
-0.0099924
-1.13757e-12
-2.61865e-05
-0.0100023
-2.93855e-05
-0.0100019
-3.2409e-05
-0.0100015
-3.51209e-05
-0.0100011
-3.74851e-05
-0.0100007
-3.93588e-05
-0.0100004
-4.06805e-05
-0.0100001
-4.13508e-05
-0.00999979
-4.13076e-05
-0.00999952
-4.0505e-05
-0.00999928
-3.89313e-05
-0.00999906
-3.66077e-05
-0.00999886
-3.35883e-05
-0.00999867
-2.99506e-05
-0.0099985
-2.57838e-05
-0.00999835
-2.11776e-05
-0.00999821
-1.6215e-05
-0.0099981
-1.09746e-05
-0.00999801
-5.53865e-06
-0.00999796
-0.00999794
-8.7011e-13
-2.28502e-06
-0.0100013
-2.98591e-06
-0.0100012
-3.29867e-06
-0.0100012
-3.32426e-06
-0.0100011
-3.03403e-06
-0.010001
-2.58469e-06
-0.0100008
-1.99507e-06
-0.0100007
-1.37277e-06
-0.0100004
-7.71443e-07
-0.0100001
-2.52179e-07
-0.0099998
1.53534e-07
-0.00999947
4.31518e-07
-0.00999914
5.9089e-07
-0.00999883
6.52389e-07
-0.00999856
6.41862e-07
-0.00999833
5.80082e-07
-0.00999815
4.79152e-07
-0.009998
3.44296e-07
-0.00999788
1.80813e-07
-0.0099978
-0.00999775
-4.65337e-13
-9.80522e-06
-1.09618e-05
-1.21431e-05
-1.32181e-05
-1.42342e-05
-1.50819e-05
-1.57459e-05
-1.61575e-05
-1.6282e-05
-1.60846e-05
-1.55535e-05
-1.46931e-05
-1.35271e-05
-1.20908e-05
-1.04257e-05
-8.5726e-06
-6.56869e-06
-4.44798e-06
-2.24541e-06
1.14476e-14
0.00524938
-0.00671543
0.00525903
-0.00670718
0.00526546
-0.00669096
0.00526586
-0.0066661
0.00525719
-0.00663095
0.00523602
-0.00658359
0.00519812
-0.00652109
0.00513799
-0.00643887
0.00504866
-0.00633048
0.00492173
-0.00618807
0.00474787
-0.00600336
0.00451748
-0.00576888
0.00422148
-0.00547904
0.003852
-0.00513082
0.00340284
-0.00472413
0.00287001
-0.004263
0.00225297
-0.00376131
0.00155698
-0.00325678
0.000796916
-0.00282546
-0.00257044
-5.10023e-10
0.00524764
-0.00673747
0.0052676
-0.00672714
0.00528412
-0.00670748
0.00529468
-0.00667665
0.00529634
-0.00663262
0.00528546
-0.00657271
0.00525688
-0.00649251
0.00520338
-0.00638537
0.0051157
-0.0062428
0.00498314
-0.00605552
0.00479484
-0.00581506
0.00454105
-0.0055151
0.00421441
-0.0051524
0.00381068
-0.00472709
0.0033291
-0.00424255
0.00277255
-0.00370645
0.00214792
-0.00313668
0.00146655
-0.00257541
0.000744128
-0.00210304
-0.00182631
-2.73865e-10
0.00523758
-0.00676612
0.00526069
-0.00675025
0.00527593
-0.00672272
0.00528055
-0.00668127
0.00527126
-0.00662333
0.0052437
-0.00654514
0.00519167
-0.00644048
0.00510709
-0.00630079
0.00498063
-0.00611634
0.00480303
-0.00587791
0.00456648
-0.00557851
0.0042659
-0.00521451
0.00389953
-0.00478603
0.00346915
-0.00429671
0.00297987
-0.00375327
0.0024398
-0.00316638
0.00185969
-0.00255657
0.00125202
-0.00196774
0.000629029
-0.00148005
-0.00119728
1.00007e-11
0.00522905
-0.00680958
0.00526975
-0.00679095
0.00530662
-0.00675959
0.00533744
-0.00671209
0.00535886
-0.00664476
0.00536562
-0.00655189
0.0053498
-0.00642467