/*--------------------------------*- C++ -*----------------------------------*\
  =========                 |
  \\      /  F ield         | OpenFOAM: The Open Source CFD Toolbox
   \\    /   O peration     | Website:  https://openfoam.org
    \\  /    A nd           | Version:  7
     \\/     M anipulation  |
\*---------------------------------------------------------------------------*/
FoamFile
{
    version     2.0;
    format      ascii;
    class       volVectorField;
    location    "106";
    object      U;
}
// * * * * * * * * * * * * * * * * * * * * * * * * * * * * * * * * * * * * * //

dimensions      [0 1 -1 0 0 0 0];

internalField   nonuniform List<vector> 
125
(
(0.763521 -0.161723 -7.09544e-17)
(0.813252 -0.220445 -2.88722e-17)
(0.550422 -0.598446 -1.17562e-17)
(0.763994 -0.147491 -2.16909e-17)
(0.776022 -0.196279 -6.2456e-17)
(0.531204 -0.542152 -1.6287e-17)
(0.766064 -0.132967 -5.72283e-18)
(0.742891 -0.174774 -1.03413e-16)
(0.509521 -0.478746 -8.12947e-17)
(0.76899 -0.117117 -3.10199e-18)
(0.714425 -0.152394 -5.82758e-17)
(0.490677 -0.416616 -1.0663e-16)
(0.772435 -0.100338 -1.10966e-17)
(0.69063 -0.129391 -6.73222e-17)
(0.474435 -0.354761 -5.80711e-17)
(0.776192 -0.0828645 -2.5261e-17)
(0.671325 -0.106038 -1.05378e-16)
(0.460763 -0.292836 -6.81384e-17)
(0.780081 -0.0648384 -5.00417e-17)
(0.656301 -0.0823557 -1.94533e-16)
(1.27402 -0.420951 6.5153e-18)
(1.06022 -0.378367 1.3594e-17)
(0.52119 -0.145145 1.13456e-17)
(1.29793 -0.433097 3.6884e-18)
(1.23911 -0.431925 9.03351e-18)
(1.00376 -0.375098 1.70231e-17)
(0.43822 -0.152103 -1.52534e-19)
(1.28938 -0.450386 4.80975e-18)
(1.23911 -0.457365 2.94741e-18)
(1.01838 -0.405774 1.00006e-17)
(0.450568 -0.1655 1.43954e-17)
(1.27317 -0.464577 7.97946e-18)
(1.22131 -0.474757 5.25486e-18)
(1.00796 -0.424576 4.88386e-18)
(0.445458 -0.177845 9.7716e-18)
(1.25824 -0.4787 8.53942e-18)
(1.21122 -0.494242 4.96586e-18)
(1.01064 -0.447276 -5.67661e-19)
(0.453758 -0.193286 4.59677e-18)
(1.24009 -0.490958 1.00169e-17)
(1.19644 -0.51154 3.79443e-18)
(1.01092 -0.470014 2.28707e-19)
(0.469221 -0.214039 -6.95501e-19)
(1.22149 -0.502216 1.29147e-17)
(1.18244 -0.528407 3.80262e-18)
(1.01383 -0.493944 -1.74327e-19)
(0.492869 -0.242017 -1.93798e-18)
(1.20085 -0.464637 2.47165e-18)
(1.2035 -0.511832 1.52143e-17)
(1.16872 -0.543711 4.89535e-18)
(1.01816 -0.518342 -6.3369e-22)
(0.526585 -0.279152 -3.43813e-18)
(1.18349 -0.47094 -1.25941e-19)
(1.18583 -0.520152 1.4822e-17)
(1.1561 -0.557307 5.33867e-18)
(1.0251 -0.542093 1.90683e-19)
(0.575701 -0.326406 -5.99746e-18)
(1.15538 -0.476367 -2.00223e-18)
(1.15586 -0.527422 1.40157e-17)
(1.12956 -0.569337 9.89269e-18)
(1.0185 -0.565145 6.90712e-19)
(0.633694 -0.385043 -6.46537e-18)
(1.03936 -0.192136 2.82907e-18)
(0.720698 -0.111713 7.23072e-18)
(0.309402 -0.028476 -2.21028e-17)
(0.00613268 -0.0196281 -1.86529e-17)
(-0.0692339 -0.0306184 -1.56741e-17)
(1.1126 -0.221 8.98743e-18)
(0.823924 -0.140122 1.34344e-17)
(0.402182 -0.0399968 -4.91519e-18)
(0.0478573 -0.00819558 -1.46564e-17)
(-0.0648563 -0.0187035 1.31618e-18)
(1.16292 -0.244207 7.60459e-18)
(0.910543 -0.169232 8.80181e-18)
(0.498428 -0.0606194 -1.53588e-18)
(0.0942158 0.00190024 1.68153e-18)
(-0.0612216 -0.00821617 2.01063e-19)
(0.997448 -0.20078 4.40916e-18)
(0.608136 -0.0899895 -2.01274e-18)
(0.15964 0.00559838 1.34217e-17)
(-0.05667 0.00225785 -3.04159e-19)
(1.07688 -0.234651 7.98225e-18)
(0.725989 -0.127452 7.53435e-18)
(0.245492 -0.00265724 3.2882e-18)
(-0.0471442 0.0125373 -2.6308e-19)
(1.14809 -0.270027 8.2837e-18)
(0.845847 -0.171342 9.03287e-18)
(0.35327 -0.0272885 7.08713e-20)
(-0.025305 0.0210134 -6.10514e-19)
(1.20804 -0.305829 1.23703e-18)
(0.960547 -0.219717 1.15998e-17)
(0.482868 -0.07045 -1.52898e-18)
(0.015449 0.0235579 -1.05377e-18)
(1.25382 -0.340365 1.85426e-18)
(1.06397 -0.270725 1.44851e-17)
(0.630603 -0.12959 -1.70348e-18)
(0.0838974 0.0151874 -9.69715e-19)
(1.2845 -0.371873 5.76529e-18)
(1.15315 -0.323057 -3.45807e-18)
(0.791456 -0.201431 -1.43449e-18)
(0.18966 -0.0114557 1.94417e-18)
(1.30424 -0.39862 7.24901e-18)
(1.22574 -0.375048 1.21221e-17)
(0.953981 -0.28053 1.41117e-17)
(0.408467 -0.0583325 5.97727e-18)
(0.965448 -0.093579 -7.37811e-17)
(0.922468 -0.220267 -3.95141e-17)
(0.948301 -0.190205 3.05107e-17)
(0.978279 -0.490001 2.83181e-17)
(0.965614 -0.0938116 3.07434e-19)
(0.885008 -0.21331 -3.97316e-17)
(0.92348 -0.198201 1.16946e-16)
(0.959519 -0.548754 3.14301e-17)
(0.96619 -0.0913946 -9.23093e-18)
(0.840709 -0.202288 -4.13521e-17)
(0.907147 -0.20953 1.02463e-16)
(0.930642 -0.612949 1.34868e-17)
(0.961629 -0.0851841 -8.37719e-17)
(0.797536 -0.18864 -4.13533e-17)
(0.895306 -0.223046 2.56513e-17)
(0.874138 -0.674764 4.0002e-18)
(0.947229 -0.0752776 8.66979e-19)
(0.768 -0.173897 -4.39444e-17)
(0.869263 -0.233394 8.43837e-17)
(0.746564 -0.707174 5.45729e-18)
)
;

boundaryField
{
    inlet
    {
        type            uniformFixedValue;
        uniformValue    constant (1 0 0);
        value           nonuniform 0();
    }
    outlet
    {
        type            pressureInletOutletVelocity;
        value           nonuniform 0();
    }
    polygon
    {
        type            fixedValue;
        value           uniform (0 0 0);
    }
    top
    {
        type            symmetryPlane;
    }
    bottom
    {
        type            symmetryPlane;
    }
    outside
    {
        type            zeroGradient;
    }
    procBoundary25to16
    {
        type            processor;
        value           nonuniform List<vector> 9((0.930093 -0.0659285 -2.89935e-18) (0.930093 -0.0659285 -2.89935e-18) (0.920413 -0.0574648 -2.76796e-17) (0.911799 -0.0496775 -5.91217e-17) (0.931485 -0.0922944 4.12531e-17) (0.910552 -0.0855455 1.51713e-17) (0.891289 -0.0783927 2.23427e-17) (0.877745 -0.0709389 4.60486e-17) (0.872591 -0.0625213 1.98778e-17));
    }
    procBoundary25to17
    {
        type            processor;
        value           nonuniform List<vector> 
28
(
(1.31604 -0.417275 5.94843e-18)
(1.31604 -0.417275 5.94843e-18)
(1.31604 -0.417275 5.94843e-18)
(1.29577 -0.404117 1.03073e-18)
(1.28383 -0.415929 8.73593e-20)
(1.26909 -0.42791 2.09063e-19)
(1.25355 -0.438756 -4.62055e-19)
(1.23609 -0.448587 6.73176e-19)
(1.21802 -0.457274 -4.32764e-19)
(1.21802 -0.457274 -4.32764e-19)
(1.19168 -0.420638 1.51295e-17)
(1.17577 -0.425377 1.59029e-17)
(1.15063 -0.429434 1.22551e-17)
(1.22064 -0.248241 4.15454e-18)
(1.25919 -0.269419 4.92786e-18)
(1.27948 -0.284034 4.16293e-18)
(1.21229 -0.269231 3.17298e-18)
(1.21229 -0.269231 3.17298e-18)
(1.25079 -0.293352 4.87915e-18)
(1.28112 -0.316358 4.12246e-18)
(1.30136 -0.337513 3.83574e-18)
(1.31145 -0.356045 4.83841e-18)
(1.31254 -0.371123 2.00129e-18)
(1.3104 -0.381998 2.15876e-18)
(0.969178 -0.0920765 -1.1455e-17)
(0.95086 -0.222252 -3.37862e-17)
(0.977632 -0.185327 7.34023e-17)
(0.995906 -0.438241 3.40702e-17)
)
;
    }
    procBoundary25to18
    {
        type            processor;
        value           nonuniform List<vector> 5((0.959835 -0.178237 2.71441e-18) (0.610707 -0.100716 4.62783e-18) (0.222731 -0.0336341 8.37914e-18) (-0.0248517 -0.0279538 3.54475e-18) (-0.0752016 -0.0528676 2.05628e-17));
    }
    procBoundary25to24
    {
        type            processor;
        value           nonuniform List<vector> 4((0.904284 -0.0420545 1.00443e-17) (0.897917 -0.0346869 -2.55913e-17) (0.892743 -0.0276347 -6.27434e-17) (0.888792 -0.0208747 -1.22137e-16));
    }
    procBoundary25to33
    {
        type            processor;
        value           nonuniform List<vector> 4((0.449648 -0.230334 -9.1705e-17) (0.783863 -0.0467113 -1.00742e-16) (0.449648 -0.230334 -9.1705e-17) (0.645335 -0.0589729 -2.16438e-16));
    }
}


// ************************************************************************* //
