/*--------------------------------*- C++ -*----------------------------------*\
  =========                 |
  \\      /  F ield         | OpenFOAM: The Open Source CFD Toolbox
   \\    /   O peration     | Website:  https://openfoam.org
    \\  /    A nd           | Version:  7
     \\/     M anipulation  |
\*---------------------------------------------------------------------------*/
FoamFile
{
    version     2.0;
    format      ascii;
    class       volVectorField;
    location    "20";
    object      U;
}
// * * * * * * * * * * * * * * * * * * * * * * * * * * * * * * * * * * * * * //

dimensions      [0 1 -1 0 0 0 0];

internalField   nonuniform List<vector> 
50
(
(0.872994 0.0607403 -2.02788e-20)
(0.871139 0.058713 1.24186e-20)
(0.865485 0.0570945 1.74865e-19)
(0.854257 0.0546643 5.52486e-18)
(0.835227 0.0512997 2.88072e-19)
(0.849218 0.0722264 3.00432e-20)
(0.844155 0.0700543 -1.41849e-19)
(0.832869 0.0678622 1.15645e-20)
(0.812753 0.0648768 3.93773e-19)
(0.78102 0.0604289 -6.82312e-20)
(0.872753 0.078326 2.41173e-19)
(0.865965 0.0805784 2.34851e-19)
(0.85217 0.0801172 3.09654e-19)
(0.828141 0.0792506 9.94203e-18)
(0.791752 0.0758226 8.18214e-19)
(0.846264 0.0831023 1.15242e-19)
(0.832724 0.0884923 5.07744e-18)
(0.808661 0.0881726 -1.79345e-18)
(0.768109 0.088817 -1.11224e-18)
(0.709438 0.0849782 -2.17758e-18)
(0.927347 0.0823816 1.29916e-19)
(0.909221 0.102793 -2.61084e-18)
(0.877843 0.106233 -2.62325e-17)
(0.825569 0.116215 -2.78444e-18)
(0.751932 0.115874 -2.65131e-17)
(0.96372 0.0411558 -1.25026e-18)
(0.932274 0.0673536 -2.25913e-17)
(0.879779 0.0713802 -5.70327e-18)
(0.793662 0.0873624 2.61724e-19)
(0.671892 0.0888139 1.99753e-17)
(1.11269 0.0125717 -1.00141e-18)
(1.08588 0.0622757 1.69897e-19)
(1.02702 0.0708171 -6.86217e-17)
(0.932837 0.106005 2.30076e-18)
(0.789691 0.115585 -7.94724e-17)
(1.2605 -0.145694 -3.72471e-18)
(1.22826 -0.107159 -1.30411e-17)
(1.14689 -0.0904712 1.26895e-17)
(1.01527 -0.0576307 1.09008e-16)
(0.798058 -0.0327652 3.13931e-18)
(1.38715 -0.193239 -1.37736e-17)
(1.38137 -0.185397 -1.07757e-16)
(1.34357 -0.173281 -8.94276e-18)
(1.26098 -0.158355 -1.51138e-18)
(1.09908 -0.130058 2.21472e-18)
(1.31928 -0.215027 1.2762e-17)
(1.31391 -0.242299 9.08948e-17)
(1.29705 -0.247205 -8.45872e-17)
(1.25504 -0.260331 7.40063e-17)
(1.14855 -0.250594 -1.24448e-16)
)
;

boundaryField
{
    inlet
    {
        type            uniformFixedValue;
        uniformValue    constant (1 0 0);
        value           nonuniform 0();
    }
    outlet
    {
        type            pressureInletOutletVelocity;
        value           nonuniform List<vector> 5((0.872994 0.0607403 -2.02788e-20) (0.871139 0.058713 1.24186e-20) (0.865485 0.0570945 1.74865e-19) (0.854257 0.0546643 5.52486e-18) (0.835227 0.0512997 2.88072e-19));
    }
    polygon
    {
        type            fixedValue;
        value           nonuniform 0();
    }
    top
    {
        type            symmetryPlane;
    }
    bottom
    {
        type            symmetryPlane;
    }
    outside
    {
        type            zeroGradient;
    }
    procBoundary3to2
    {
        type            processor;
        value           nonuniform List<vector> 4((1.27147 -0.177395 -8.41524e-18) (1.26587 -0.209891 2.61298e-17) (1.26181 -0.222877 4.24902e-18) (1.25962 -0.24725 -1.56769e-17));
    }
    procBoundary3to6
    {
        type            processor;
        value           uniform (1.24419 -0.254462 -1.0363e-17);
    }
    procBoundary3to7
    {
        type            processor;
        value           nonuniform List<vector> 10((0.805474 0.0466633 -5.44162e-18) (0.733806 0.0543564 -1.09402e-19) (0.7397 0.0699104 -1.01359e-17) (0.628071 0.0783181 -6.84374e-18) (0.653355 0.111931 -2.95581e-18) (0.508429 0.0890635 1.53236e-18) (0.598951 0.126677 -1.49672e-17) (0.498493 -0.00638895 -1.06777e-16) (0.84367 -0.0942176 1.31136e-16) (0.92889 -0.216749 -1.13983e-16));
    }
}


// ************************************************************************* //
