/*--------------------------------*- C++ -*----------------------------------*\
  =========                 |
  \\      /  F ield         | OpenFOAM: The Open Source CFD Toolbox
   \\    /   O peration     | Website:  https://openfoam.org
    \\  /    A nd           | Version:  7
     \\/     M anipulation  |
\*---------------------------------------------------------------------------*/
FoamFile
{
    version     2.0;
    format      ascii;
    class       surfaceScalarField;
    location    "74";
    object      phi;
}
// * * * * * * * * * * * * * * * * * * * * * * * * * * * * * * * * * * * * * //

dimensions      [0 3 -1 0 0 0 0];

internalField   nonuniform List<scalar> 
310
(
0.000217865
-0.00934438
0.000246878
-0.0093455
0.00931648
0.000272261
-0.00935776
0.00933237
0.000292362
-0.00938096
0.00936086
0.000306696
-0.0094136
0.00939927
-0.00945465
0.00945262
0.00021221
-0.00937524
0.000239564
-0.00937285
0.000262813
-0.00938101
0.000280226
-0.00939837
0.000290723
-0.0094241
-0.00945165
0.000206694
-0.00940477
0.000232437
-0.00939859
0.000253632
-0.0094022
0.000268458
-0.0094132
0.000275327
-0.00943097
-0.00944391
0.000201197
-0.00943297
0.000225318
-0.00942272
0.000244451
-0.00942133
0.000256685
-0.00942543
0.000259961
-0.00943425
-0.00943155
0.000195744
-0.00945984
0.000218235
-0.00944521
0.000235307
-0.00943841
0.00024496
-0.00943508
0.00024473
-0.00943402
-0.00941478
0.000190421
-0.00948538
0.000211298
-0.00946608
0.000226329
-0.00945344
0.000233441
-0.00944219
0.000229797
-0.00943037
0.000185349
-0.00950967
0.00020469
-0.00948542
0.000217776
-0.00946652
0.000222469
-0.00944689
-0.00942347
0.000180377
-0.00953274
0.000198264
-0.00950331
0.000209554
-0.00947781
0.000212028
-0.00944936
-0.00941366
0.000174784
-0.00955448
0.000191093
-0.00951962
0.000200545
-0.00948726
0.000200826
-0.00944964
-0.00940138
0.000166346
-0.00957435
0.000180567
-0.00953384
0.000187713
-0.00949441
0.000185542
-0.00944747
-0.00938671
-0.000314362
-0.00944745
0.00945529
-0.000324172
-0.00949806
0.00950787
-0.000336109
-0.00956904
0.00958098
-0.000348702
-0.00965412
0.00966671
-0.000357646
-0.00974859
0.00975753
-0.00971574
0.00970265
-0.000319863
-0.0094382
-0.000331482
-0.00948644
-0.000345741
-0.00955478
-0.000361548
-0.00963831
-0.000375104
-0.00973503
-0.000325029
-0.00942758
-0.000338401
-0.00947306
-0.000354945
-0.00953824
-0.000373984
-0.00961927
-0.00971657
-0.000330093
-0.0094156
-0.000345215
-0.00945794
-0.000364042
-0.00951941
-0.000386303
-0.00959701
-0.00969319
-0.000335011
-0.00940227
-0.000351862
-0.00944109
-0.000372951
-0.00949832
-0.000398402
-0.00957156
-0.00966491
-0.000339766
-0.00938761
-0.000358321
-0.00942254
-0.000381641
-0.009475
-0.00041023
-0.00954297
-0.00963176
-0.000344338
-0.00937165
-0.000364564
-0.00940231
-0.000390075
-0.00944949
-0.000421737
-0.00951131
-0.00959383
-0.00034868
-0.00935442
-0.000370524
-0.00938047
-0.000398153
-0.00942186
-0.000432801
-0.00947666
-0.00955119
-0.000352697
-0.009336
-0.000376061
-0.0093571
-0.000405662
-0.00939226
-0.00044313
-0.00943919
-0.00950405
-0.000356292
-0.000381021
-0.000412427
-0.00045235
-0.000866912
-0.00993908
-0.000913891
-0.0100049
-0.000952355
-0.010066
-0.000964545
-0.0100578
-0.00981482
-0.000870145
-0.00988935
-0.000918912
-0.0099561
-0.000960685
-0.0100242
-0.000979209
-0.0100393
-0.00985622
-0.00087307
-0.00983851
-0.000923691
-0.00990548
-0.000969029
-0.0099789
-0.000994577
-0.0100137
-0.0098854
-0.000875829
-0.0097866
-0.00092819
-0.00985312
-0.000976832
-0.00993026
-0.00100907
-0.00998149
-0.00990232
-0.000878392
-0.00973366
-0.000932403
-0.00979911
-0.000984158
-0.0098785
-0.00102281
-0.00994283
-0.00990702
-0.000880739
-0.00967974
-0.000936297
-0.00974355
-0.000990941
-0.00982386
-0.00103567
-0.0098981
-0.00989969
-0.000882846
-0.0096249
-0.000939842
-0.00968655
-0.000997136
-0.00976657
-0.00104754
-0.00984769
-0.00988064
-0.000884705
-0.00956919
-0.000943034
-0.00962822
-0.00100274
-0.00970686
-0.00105839
-0.00979204
-0.00985025
-0.000886357
-0.00951265
-0.000945938
-0.00956864
-0.00100786
-0.00964494
-0.00106834
-0.00973156
-0.00110962
-0.00980897
-0.00969672
-0.000887848
-0.000948625
-0.00101259
-0.00107743
-0.00112887
0.00860168
-0.00577006
0.00879189
-0.00521604
-0.00928976
0.00845883
-0.005985
0.00865131
-0.00540852
-0.0101723
0.00828947
-0.00612833
0.00849867
-0.00561772
-0.011168
0.00808399
-0.00617737
0.0083345
-0.00586823
-0.012281
0.00786603
0.00815717
)
;

boundaryField
{
    inlet
    {
        type            calculated;
        value           nonuniform 0();
    }
    outlet
    {
        type            calculated;
        value           nonuniform 0();
    }
    polygon
    {
        type            calculated;
        value           nonuniform 0();
    }
    top
    {
        type            symmetryPlane;
        value           uniform 0;
    }
    bottom
    {
        type            symmetryPlane;
        value           uniform 0;
    }
    outside
    {
        type            calculated;
        value           nonuniform 0();
    }
    procBoundary17to8
    {
        type            processor;
        value           nonuniform List<scalar> 5(-0.00834151 -0.00824389 -0.00814614 -0.00803494 -0.00790693);
    }
    procBoundary17to9
    {
        type            processor;
        value           nonuniform List<scalar> 
34
(
-0.000185648
0.00931217
-0.000181353
-0.000177161
-0.000172996
-0.00016888
-0.000164877
-0.000161066
-0.000157302
-0.000153049
-0.00014647
0.000306526
0.000310614
0.000314411
0.000318111
0.00032168
0.000325107
0.000328376
0.000331453
0.000334279
0.000336772
0.000818305
0.000820415
0.000822226
0.000823916
0.000825453
0.000826822
0.000828006
0.000828996
0.000829813
0.000830486
0.00550989
0.00502583
0.00850729
)
;
    }
    procBoundary17to10
    {
        type            processor;
        value           nonuniform List<scalar> 5(0.00998769 0.0100518 0.0101045 0.01007 0.00976215);
    }
    procBoundary17to25
    {
        type            processor;
        value           nonuniform List<scalar> 
36
(
0.000308729
0.00028772
0.000267589
0.000247597
0.000227962
0.000208898
-0.00939388
0.000215567
0.00020222
0.000188546
0.000170864
-0.000344562
-0.000368795
-0.00972205
-0.000392446
-0.000409678
-0.000426686
-0.000443376
-0.000459675
-0.00047544
-0.000490271
-0.000503777
-0.00091188
-0.000937812
-0.000965388
-0.000992152
-0.00101811
-0.001043
-0.0010666
-0.00108878
0.00966957
-0.00108247
-0.00112294
-0.00613646
-0.00615938
-0.0135105
)
;
    }
}


// ************************************************************************* //
