/*--------------------------------*- C++ -*----------------------------------*\
  =========                 |
  \\      /  F ield         | OpenFOAM: The Open Source CFD Toolbox
   \\    /   O peration     | Website:  https://openfoam.org
    \\  /    A nd           | Version:  7
     \\/     M anipulation  |
\*---------------------------------------------------------------------------*/
FoamFile
{
    version     2.0;
    format      ascii;
    class       volVectorField;
    location    "60";
    object      U;
}
// * * * * * * * * * * * * * * * * * * * * * * * * * * * * * * * * * * * * * //

dimensions      [0 1 -1 0 0 0 0];

internalField   nonuniform List<vector> 
8000
(
(-0.377458 1.82543e-05 6.78617e-21)
(-0.377456 0.000273069 -3.21836e-20)
(-0.377356 0.000748196 2.93292e-20)
(-0.377093 0.00143576 -1.22459e-19)
(-0.376599 0.00231309 6.4967e-20)
(-0.375819 0.00334531 1.67908e-19)
(-0.374712 0.00449542 -2.76897e-19)
(-0.373252 0.00572862 -8.58658e-20)
(-0.371422 0.00701316 -4.13118e-20)
(-0.369214 0.00832074 -1.6052e-19)
(-0.366629 0.00962643 4.73969e-19)
(-0.363672 0.0109082 2.46235e-19)
(-0.360357 0.0121466 3.64615e-18)
(-0.356698 0.0133244 1.31616e-18)
(-0.352719 0.0144265 -7.07974e-19)
(-0.348441 0.0154404 -7.36499e-19)
(-0.343893 0.0163559 -4.03599e-18)
(-0.3391 0.0171656 8.67153e-19)
(-0.334093 0.0178645 -1.46247e-18)
(-0.3289 0.0184503 -3.86389e-19)
(-0.323551 0.0189226 -2.20173e-18)
(-0.318074 0.0192829 -4.10411e-18)
(-0.312498 0.0195341 -1.75684e-18)
(-0.306852 0.0196807 9.46214e-19)
(-0.301161 0.0197278 -9.19627e-20)
(-0.295453 0.0196818 -1.97517e-18)
(-0.28975 0.0195497 8.4579e-19)
(-0.284077 0.0193394 -4.20757e-18)
(-0.278453 0.0190596 -1.87502e-19)
(-0.272898 0.0187198 2.08715e-19)
(-0.267428 0.0183297 -2.11963e-18)
(-0.262056 0.0178988 8.02576e-20)
(-0.256798 0.017436 -9.74655e-18)
(-0.251664 0.016948 1.73309e-18)
(-0.246667 0.0164391 7.61025e-18)
(-0.241819 0.0159106 2.46511e-20)
(-0.237135 0.0153602 -3.36875e-19)
(-0.232629 0.0147831 -1.14321e-17)
(-0.228317 0.0141727 -4.55129e-18)
(-0.224214 0.0135216 -1.25921e-17)
(-0.220337 0.012824 -3.46597e-18)
(-0.2167 0.0120762 -1.74202e-18)
(-0.213314 0.0112784 -1.23629e-17)
(-0.210187 0.0104349 1.17618e-18)
(-0.207322 0.00955453 -6.08629e-19)
(-0.204717 0.00865034 -8.81161e-19)
(-0.202365 0.00773899 1.0069e-17)
(-0.20025 0.00683827 1.22136e-18)
(-0.198355 0.00596645 -7.26569e-19)
(-0.196656 0.00514045 -1.27173e-18)
(-0.195129 0.00437478 -1.65242e-18)
(-0.193747 0.00368067 1.80085e-18)
(-0.192481 0.00306564 2.40056e-18)
(-0.191306 0.00253324 4.52909e-18)
(-0.190197 0.00208333 2.69217e-18)
(-0.18913 0.00171268 9.75397e-20)
(-0.188085 0.00141575 2.80094e-18)
(-0.187045 0.00118548 -2.09441e-19)
(-0.185995 0.00101414 1.50692e-18)
(-0.184921 0.000893935 -1.34318e-18)
(-0.183814 0.000817818 -8.85105e-18)
(-0.182664 0.000779199 -2.13107e-18)
(-0.181463 0.000772077 -9.46059e-18)
(-0.180205 0.000791971 -3.06058e-19)
(-0.178882 0.000836275 -7.71759e-19)
(-0.177488 0.000902791 -4.93552e-18)
(-0.176017 0.000989892 -2.48472e-18)
(-0.174463 0.00109702 -9.6301e-18)
(-0.172818 0.00122443 -2.44858e-18)
(-0.171074 0.00137361 -7.78453e-19)
(-0.169226 0.00154602 -8.22418e-18)
(-0.167263 0.00174443 -4.23042e-18)
(-0.165176 0.00197168 -9.9083e-18)
(-0.162958 0.00223101 -1.70422e-18)
(-0.160596 0.00252641 -2.3354e-18)
(-0.158081 0.00286265 2.07644e-18)
(-0.155399 0.00324527 1.92901e-18)
(-0.152537 0.00368087 -3.57988e-18)
(-0.149483 0.00417712 -5.67011e-18)
(-0.14622 0.00474321 -6.26058e-19)
(-0.142733 0.00539015 -4.25709e-18)
(-0.139004 0.00613128 -1.59196e-18)
(-0.135015 0.00698281 -4.91824e-18)
(-0.130745 0.00796472 2.28526e-18)
(-0.126176 0.00910175 -2.87985e-18)
(-0.121285 0.0104251 -3.16732e-18)
(-0.116054 0.0119735 -3.86659e-18)
(-0.110468 0.0138007 1.28559e-18)
(-0.10451 0.0159679 -2.23817e-18)
(-0.0981915 0.0185657 2.41246e-18)
(-0.0915153 0.0216988 6.76358e-19)
(-0.0845865 0.0255357 6.4473e-19)
(-0.0774051 0.030233 1.9827e-19)
(-0.0705189 0.036106 3.75707e-20)
(-0.0634 0.043365 -4.25978e-20)
(-0.0590134 0.0519953 -1.11584e-18)
(-0.0526028 0.0632433 -2.69961e-20)
(-0.0559594 0.0709882 4.91357e-18)
(-0.0469991 0.0838284 1.25281e-18)
(-0.0369859 0.0507787 5.6544e-18)
(-0.395358 1.87377e-05 9.74671e-21)
(-0.395343 0.000252839 -2.79478e-21)
(-0.395218 0.000685927 2.34339e-20)
(-0.394917 0.00131002 -5.62945e-20)
(-0.394374 0.00210478 8.11424e-20)
(-0.393532 0.00303962 3.18624e-19)
(-0.392351 0.00408177 1.1069e-19)
(-0.390803 0.00520001 -4.98451e-20)
(-0.388869 0.00636565 8.07053e-21)
(-0.38654 0.00755305 -4.90819e-20)
(-0.383815 0.00873953 2.02832e-19)
(-0.380701 0.00990506 6.87495e-19)
(-0.377208 0.0110319 3.20437e-18)
(-0.373354 0.0121042 1.37734e-18)
(-0.36916 0.0131083 -1.6694e-18)
(-0.364651 0.0140323 -1.46542e-18)
(-0.359856 0.014867 -1.88958e-18)
(-0.354802 0.0156051 3.66557e-19)
(-0.349523 0.0162421 -3.39841e-18)
(-0.344048 0.0167756 -2.42116e-19)
(-0.33841 0.0172052 -9.02558e-20)
(-0.332639 0.0175322 -8.56417e-18)
(-0.326768 0.0177595 -6.87979e-18)
(-0.320825 0.017891 2.38387e-18)
(-0.31484 0.0179316 3.401e-19)
(-0.308841 0.0178871 -3.00056e-18)
(-0.302853 0.0177641 3.05626e-18)
(-0.296901 0.0175697 -7.40811e-18)
(-0.291006 0.017312 2.23043e-18)
(-0.285189 0.0169995 1.88069e-18)
(-0.279465 0.0166415 -2.73817e-18)
(-0.273851 0.0162467 2.22576e-18)
(-0.268358 0.0158236 -3.38036e-18)
(-0.262998 0.0153788 7.80256e-18)
(-0.257783 0.0149167 1.13645e-18)
(-0.252723 0.0144388 4.52838e-19)
(-0.247831 0.0139434 8.58982e-19)
(-0.243118 0.0134262 -5.12758e-18)
(-0.238601 0.0128807 -5.42612e-18)
(-0.234294 0.0122999 -6.34837e-18)
(-0.230213 0.0116777 -2.2403e-18)
(-0.226373 0.0110097 -1.22934e-18)
(-0.222789 0.0102951 -5.99713e-18)
(-0.219471 0.00953658 7.32246e-18)
(-0.216426 0.00874128 1.22121e-18)
(-0.213655 0.00792052 -8.707e-20)
(-0.211156 0.00708994 5.00665e-18)
(-0.208919 0.00626531 1.2028e-18)
(-0.206928 0.00546272 -5.13219e-19)
(-0.205164 0.00469779 -1.22061e-18)
(-0.203604 0.00398432 -9.94889e-19)
(-0.202222 0.00333328 -2.84038e-18)
(-0.200991 0.00275231 3.42592e-18)
(-0.199883 0.00224541 8.47226e-19)
(-0.198873 0.0018132 4.95604e-18)
(-0.197935 0.00145335 8.29822e-19)
(-0.197049 0.00116128 8.08497e-18)
(-0.196193 0.000930854 7.54544e-19)
(-0.195352 0.00075514 4.60919e-18)
(-0.194509 0.000627013 -5.51615e-19)
(-0.193653 0.000540111 -2.42804e-18)
(-0.192774 0.000488611 -9.16835e-19)
(-0.191862 0.000467198 -4.24409e-18)
(-0.190909 0.000471053 2.95345e-18)
(-0.189908 0.000496583 3.98912e-19)
(-0.188853 0.000541467 -8.76898e-18)
(-0.187737 0.000604593 -2.23319e-18)
(-0.186553 0.000685567 -4.45776e-18)
(-0.185294 0.000784751 -1.49436e-18)
(-0.183954 0.00090424 -4.92941e-19)
(-0.182524 0.0010443 -3.74192e-18)
(-0.180996 0.00120711 -7.44255e-18)
(-0.179362 0.00139558 -8.32264e-18)
(-0.177612 0.00161257 -1.58845e-18)
(-0.175736 0.00186169 -4.52458e-18)
(-0.173721 0.0021473 4.98402e-18)
(-0.171556 0.00247454 4.03529e-18)
(-0.169226 0.00284948 -8.16897e-18)
(-0.166716 0.00327924 -1.29569e-18)
(-0.16401 0.00377237 -1.41566e-19)
(-0.16109 0.00433914 1.01047e-19)
(-0.157935 0.00499202 -2.34093e-18)
(-0.154523 0.00574627 -1.74366e-18)
(-0.15083 0.00662081 6.13449e-18)
(-0.146828 0.00763916 1.13409e-18)
(-0.14249 0.00883138 1.62652e-18)
(-0.137783 0.0102349 -8.28143e-19)
(-0.132676 0.0119018 3.70894e-18)
(-0.127133 0.0138937 1.21537e-18)
(-0.121135 0.0163009 5.60681e-18)
(-0.114639 0.0192321 8.92959e-19)
(-0.107702 0.0228592 1.16243e-18)
(-0.100213 0.0273669 3.327e-19)
(-0.0926454 0.0330507 3.89637e-20)
(-0.0842305 0.0402891 -8.53974e-20)
(-0.0776401 0.0488503 -2.29772e-18)
(-0.0680492 0.0606084 -1.14715e-19)
(-0.065177 0.068302 4.21719e-18)
(-0.0500565 0.0803242 1.28956e-18)
(-0.0252725 0.0465527 2.87247e-18)
(-0.411552 1.76171e-05 -1.37376e-21)
(-0.41153 0.000228095 2.23963e-20)
(-0.411387 0.000615557 3.20002e-20)
(-0.411059 0.00117262 -2.67559e-20)
(-0.410478 0.00188127 2.17329e-19)
(-0.409587 0.002715 1.33904e-19)
(-0.408345 0.00364511 -3.08106e-19)
(-0.406721 0.00464398 -1.0307e-19)
(-0.404696 0.00568602 6.74856e-20)
(-0.40226 0.0067483 2.42702e-20)
(-0.39941 0.0078105 7.07619e-20)
(-0.396153 0.00885464 -7.90469e-19)
(-0.392499 0.00986478 1.8184e-18)
(-0.388466 0.0108267 1.2643e-18)
(-0.384076 0.011728 1.2608e-19)
(-0.379355 0.0125579 -2.91646e-18)
(-0.374331 0.0133078 -7.48732e-19)
(-0.369037 0.0139711 4.67447e-19)
(-0.363505 0.0145434 -7.74867e-19)
(-0.357769 0.0150225 6.58649e-19)
(-0.351862 0.015408 1.39947e-18)
(-0.345819 0.0157011 -9.98446e-18)
(-0.339673 0.0159042 -3.97413e-18)
(-0.333455 0.0160211 -3.35916e-18)
(-0.327197 0.016056 8.70178e-20)
(-0.320928 0.0160144 -5.84471e-18)
(-0.314675 0.0159021 7.80543e-18)
(-0.308464 0.0157257 -3.24796e-18)
(-0.302319 0.0154923 7.9369e-18)
(-0.296259 0.0152098 4.12954e-18)
(-0.290302 0.0148863 -5.58147e-18)
(-0.284464 0.0145302 5.90488e-18)
(-0.278757 0.0141492 1.74452e-19)
(-0.273191 0.0137496 4.05648e-18)
(-0.267778 0.0133358 -6.26564e-18)
(-0.262525 0.0129095 6.20072e-19)
(-0.257444 0.0124695 2.49954e-18)
(-0.252546 0.0120119 -2.84156e-18)
(-0.247844 0.0115308 -9.18114e-18)
(-0.243352 0.0110198 -3.66428e-18)
(-0.239086 0.0104725 -1.40404e-18)
(-0.235062 0.00988447 -1.35438e-18)
(-0.231296 0.00925398 -3.42118e-18)
(-0.2278 0.00858281 1.66092e-18)
(-0.224585 0.00787654 1.8361e-18)
(-0.221657 0.00714451 6.67688e-19)
(-0.219016 0.00639994 2.99007e-18)
(-0.216656 0.00565682 6.70485e-19)
(-0.214565 0.0049297 -4.56297e-19)
(-0.212728 0.00423292 -2.35345e-18)
(-0.211123 0.00357934 -1.16082e-18)
(-0.209725 0.00297941 -9.06611e-18)
(-0.208509 0.00244063 7.13598e-18)
(-0.207446 0.00196732 -2.41905e-18)
(-0.20651 0.00156065 1.07316e-17)
(-0.205674 0.00121909 1.04398e-18)
(-0.204916 0.000938956 2.08234e-18)
(-0.204212 0.00071506 6.99847e-20)
(-0.203545 0.000541344 -5.35072e-18)
(-0.202898 0.000411464 -1.3989e-18)
(-0.202255 0.000319702 2.31655e-18)
(-0.201607 0.000260141 5.41767e-19)
(-0.200942 0.000226474 -1.90288e-18)
(-0.200252 0.000215026 9.44565e-18)
(-0.199529 0.000225113 1.01495e-18)
(-0.198766 0.000254753 -3.96996e-18)
(-0.197956 0.000301375 -2.17238e-18)
(-0.197092 0.000363862 -2.40801e-18)
(-0.196166 0.000441991 -1.03633e-18)
(-0.195174 0.000535592 -4.02192e-19)
(-0.194106 0.000646924 -1.99533e-18)
(-0.192955 0.000779133 -2.0391e-18)
(-0.191711 0.000933847 1.37524e-18)
(-0.190366 0.00111363 -6.83521e-19)
(-0.188908 0.00132184 -9.7215e-18)
(-0.187326 0.00156244 1.05103e-18)
(-0.185606 0.00184005 -2.97935e-18)
(-0.183734 0.00216021 -8.44898e-18)
(-0.181694 0.00252939 3.55254e-18)
(-0.179468 0.00295541 6.55055e-19)
(-0.177035 0.00344766 4.80015e-18)
(-0.174373 0.00401759 -4.54864e-18)
(-0.171456 0.00467926 4.4042e-19)
(-0.168256 0.00545016 6.14938e-18)
(-0.164739 0.00635213 4.79049e-18)
(-0.160868 0.00741323 7.34348e-18)
(-0.1566 0.00866856 9.62601e-19)
(-0.151892 0.0101672 1.92337e-18)
(-0.146683 0.0119681 4.33856e-18)
(-0.14093 0.0141579 6.0742e-18)
(-0.134542 0.0168433 9.31194e-19)
(-0.127532 0.0201898 2.42615e-18)
(-0.119678 0.0243959 5.51905e-19)
(-0.11137 0.0297329 -1.35702e-19)
(-0.101616 0.0366945 -1.22016e-19)
(-0.0927737 0.0448953 -4.60954e-18)
(-0.0800321 0.0565093 -3.41933e-19)
(-0.0713493 0.0639477 6.38766e-18)
(-0.0512303 0.0743358 1.40058e-18)
(-0.0196575 0.0431097 2.5189e-18)
(-0.425945 1.57705e-05 -1.14526e-20)
(-0.42592 0.00020049 7.02887e-20)
(-0.425766 0.00053985 5.53994e-20)
(-0.425419 0.00102723 -6.3243e-21)
(-0.42481 0.00164705 1.40365e-19)
(-0.423881 0.00237666 -7.01673e-20)
(-0.422589 0.00319133 -1.8981e-19)
(-0.420902 0.00406701 -1.18159e-19)
(-0.418799 0.00498128 1.8484e-19)
(-0.41627 0.00591397 1.3774e-19)
(-0.413311 0.0068472 -6.87051e-20)
(-0.409927 0.00776514 1.1429e-19)
(-0.406131 0.00865374 2.20179e-18)
(-0.401938 0.00950046 1.44738e-18)
(-0.397372 0.0102942 1.14648e-18)
(-0.39246 0.0110256 -1.34232e-18)
(-0.387231 0.0116866 7.22649e-19)
(-0.381719 0.0122715 1.00699e-18)
(-0.375958 0.0127761 1.21784e-18)
(-0.369985 0.0131985 2.27629e-18)
(-0.363834 0.0135381 2.68548e-18)
(-0.357543 0.013796 -9.82044e-18)
(-0.351146 0.0139743 -1.52898e-18)
(-0.344677 0.0140764 3.86126e-19)
(-0.33817 0.0141062 6.59707e-20)
(-0.331655 0.0140683 -2.27748e-19)
(-0.325162 0.013968 6.58573e-18)
(-0.318716 0.0138112 -2.74518e-18)
(-0.312343 0.013604 6.5553e-18)
(-0.306063 0.0133535 6.80493e-18)
(-0.299895 0.013067 1.34228e-18)
(-0.293854 0.0127519 -1.6417e-19)
(-0.287954 0.0124151 2.42757e-18)
(-0.282204 0.0120627 2.80173e-18)
(-0.276613 0.0116988 -2.24462e-18)
(-0.271189 0.0113251 3.20619e-18)
(-0.265941 0.0109408 5.49348e-18)
(-0.260878 0.0105427 -3.0231e-18)
(-0.256012 0.0101255 -1.27716e-18)
(-0.251356 0.00968319 -1.42616e-18)
(-0.246925 0.00920989 -4.28642e-19)
(-0.242737 0.00870108 -1.94246e-18)
(-0.238807 0.00815462 -2.76975e-18)
(-0.235151 0.00757139 -1.22288e-18)
(-0.231781 0.00695575 3.60434e-18)
(-0.228707 0.00631512 8.75159e-19)
(-0.225932 0.00566058 2.94294e-18)
(-0.223454 0.0050046 -4.75049e-19)
(-0.221265 0.00436007 -8.18883e-19)
(-0.219351 0.00373977 -4.54229e-18)
(-0.217694 0.0031553 -1.68594e-18)
(-0.21627 0.00261628 -2.91967e-18)
(-0.215055 0.00212979 -4.30159e-19)
(-0.214019 0.00170013 -8.89981e-18)
(-0.213136 0.0013288 7.02827e-18)
(-0.212379 0.00101486 -2.75835e-19)
(-0.211722 0.000755372 -3.1712e-18)
(-0.211143 0.000545959 -1.33637e-18)
(-0.210619 0.00038131 -2.66894e-18)
(-0.210134 0.000255756 -2.0523e-18)
(-0.209671 0.000164516 9.21975e-18)
(-0.209218 0.000103471 1.5657e-18)
(-0.208763 6.91484e-05 -7.26521e-19)
(-0.208296 5.56338e-05 7.53941e-18)
(-0.207807 5.7071e-05 4.36654e-19)
(-0.207291 7.15313e-05 -2.22775e-18)
(-0.206741 9.94658e-05 -2.62255e-18)
(-0.20615 0.00014056 -1.81303e-18)
(-0.20551 0.00019473 -6.9915e-19)
(-0.204815 0.000268555 -4.41502e-19)
(-0.204055 0.000357787 -1.18685e-18)
(-0.203225 0.000462534 1.93778e-18)
(-0.202314 0.000587537 -1.07954e-19)
(-0.201313 0.000734418 -8.3428e-19)
(-0.200212 0.000905733 -1.00342e-17)
(-0.198999 0.00110501 2.49106e-19)
(-0.197659 0.00133642 -1.02654e-18)
(-0.196177 0.00160488 -3.47612e-18)
(-0.194537 0.00191617 2.17804e-18)
(-0.192719 0.00227727 1.11529e-18)
(-0.190701 0.00269658 3.22886e-18)
(-0.188458 0.00318436 -1.51568e-18)
(-0.185961 0.00375324 3.75378e-18)
(-0.183178 0.004419 2.03782e-18)
(-0.180069 0.00520136 2.30076e-18)
(-0.176592 0.00612589 9.46531e-18)
(-0.172693 0.00722462 2.04622e-18)
(-0.168314 0.00854243 1.2079e-18)
(-0.163377 0.0101341 3.44783e-18)
(-0.157814 0.0120801 3.52384e-18)
(-0.151492 0.0144817 4.20206e-19)
(-0.144381 0.0174921 4.99414e-18)
(-0.13616 0.021314 7.29955e-19)
(-0.12713 0.026179 -7.90309e-20)
(-0.11611 0.0326468 -2.22259e-19)
(-0.105135 0.0402285 -4.07472e-18)
(-0.0894924 0.0512009 -3.92283e-19)
(-0.0756894 0.0582025 6.25326e-18)
(-0.0514732 0.0669045 1.27119e-18)
(-0.016835 0.0395949 4.18738e-18)
(-0.438453 1.35238e-05 -2.50372e-20)
(-0.438426 0.000171153 9.06533e-20)
(-0.438265 0.000460554 9.8279e-20)
(-0.437905 0.00087603 1.22008e-20)
(-0.437275 0.00140446 1.61459e-19)
(-0.436318 0.00202694 -3.85865e-19)
(-0.434987 0.00272264 -1.8829e-19)
(-0.433249 0.00347111 -1.1685e-19)
(-0.431082 0.00425318 5.31137e-19)
(-0.428475 0.00505155 2.90447e-19)
(-0.425423 0.00585088 -2.69241e-19)
(-0.421931 0.00663755 1.3173e-18)
(-0.418011 0.0073995 1.0314e-18)
(-0.41368 0.00812595 2.09115e-18)
(-0.40896 0.00880736 2.38879e-18)
(-0.40388 0.00943547 -1.01588e-18)
(-0.398471 0.0100035 3.07954e-18)
(-0.392766 0.0105061 2.17487e-18)
(-0.386803 0.0109399 4.14537e-18)
(-0.38062 0.0113029 5.10072e-18)
(-0.374253 0.0115946 4.09e-18)
(-0.367742 0.0118159 -1.71704e-17)
(-0.361122 0.0119688 2.44982e-18)
(-0.354431 0.012056 4.47026e-18)
(-0.347703 0.0120809 -4.40266e-20)
(-0.340969 0.0120476 5.71818e-18)
(-0.334261 0.0119607 9.51475e-18)
(-0.327607 0.0118251 -5.60243e-18)
(-0.321032 0.0116462 1.07244e-17)
(-0.314557 0.01143 1.23301e-17)
(-0.308202 0.0111829 7.03699e-18)
(-0.301983 0.0109114 -6.19805e-18)
(-0.295913 0.0106214 6.50308e-18)
(-0.29 0.0103185 2.66151e-18)
(-0.284254 0.0100064 -7.6873e-19)
(-0.27868 0.00968678 8.49259e-18)
(-0.273287 0.00935922 1.12131e-17)
(-0.268081 0.00902101 -6.92046e-18)
(-0.263073 0.00866767 6.3166e-18)
(-0.258275 0.00829383 -3.91232e-19)
(-0.253702 0.00789415 2.19046e-19)
(-0.24937 0.00746433 -4.12557e-18)
(-0.245297 0.00700207 -3.62623e-18)
(-0.241499 0.00650759 -4.39821e-18)
(-0.237992 0.00598412 8.14746e-18)
(-0.234787 0.00543754 1.00486e-18)
(-0.23189 0.00487722 4.76239e-18)
(-0.229304 0.00431383 -2.12129e-18)
(-0.227022 0.00375836 -1.09735e-18)
(-0.225034 0.00322179 -9.73356e-18)
(-0.223323 0.00271426 -2.50865e-18)
(-0.221867 0.00224426 1.65126e-18)
(-0.220643 0.00181823 -8.03715e-18)
(-0.219622 0.00144021 -2.15172e-17)
(-0.218776 0.00111187 9.85505e-18)
(-0.218078 0.000832738 -3.23996e-18)
(-0.2175 0.000600598 -1.14014e-17)
(-0.217019 0.000411955 -2.59856e-18)
(-0.216613 0.000262482 -1.97069e-18)
(-0.21626 0.000147432 -2.81678e-18)
(-0.215944 6.29639e-05 2.29932e-17)
(-0.21565 4.63628e-06 1.96706e-18)
(-0.215368 -3.48833e-05 -1.04505e-19)
(-0.215087 -5.51831e-05 1.07832e-17)
(-0.214799 -6.13457e-05 -1.3307e-18)
(-0.214492 -5.49058e-05 -2.26891e-18)
(-0.214161 -3.52576e-05 -4.53065e-18)
(-0.213798 -2.45146e-06 -1.82274e-18)
(-0.213394 4.45123e-05 -7.64974e-19)
(-0.212944 9.60283e-05 -7.98651e-19)
(-0.212444 0.000160495 -9.2749e-19)
(-0.211882 0.000244138 -5.41208e-18)
(-0.21125 0.000342533 -2.06388e-18)
(-0.210538 0.000459017 -1.53346e-18)
(-0.209736 0.00059637 -5.00157e-18)
(-0.208831 0.000757566 1.80785e-18)
(-0.207809 0.000946102 -9.82264e-20)
(-0.206654 0.00116617 -6.85677e-19)
(-0.205349 0.00142274 3.1462e-18)
(-0.203872 0.0017218 1.87267e-18)
(-0.202201 0.00207062 3.95909e-18)
(-0.200309 0.00247808 -2.2602e-19)
(-0.198163 0.00295515 1.16637e-18)
(-0.195729 0.00351555 -1.62099e-18)
(-0.192962 0.00417653 9.49563e-19)
(-0.189813 0.00496047 1.00692e-17)
(-0.186219 0.00589557 2.58165e-18)
(-0.182113 0.00702133 9.10724e-19)
(-0.177398 0.00838677 4.76019e-18)
(-0.171986 0.0100633 2.77452e-18)
(-0.165707 0.0121437 -5.9476e-19)
(-0.158493 0.0147633 4.88865e-18)
(-0.149934 0.0181194 5.43851e-19)
(-0.140254 0.022397 -2.44329e-19)
(-0.128109 0.0281757 -5.79983e-18)
(-0.115227 0.0349112 -6.3112e-18)
(-0.0970396 0.0448393 -6.80462e-19)
(-0.0788862 0.0512397 4.05851e-18)
(-0.0512526 0.0584671 1.12057e-18)
(-0.0152686 0.0356118 2.87931e-18)
(-0.449 1.10937e-05 -1.98456e-20)
(-0.448971 0.000140804 1.04241e-19)
(-0.448807 0.000378923 4.95157e-21)
(-0.448438 0.000720779 2.50285e-20)
(-0.447794 0.00115573 -1.99141e-19)
(-0.446816 0.0016685 -4.2271e-19)
(-0.445455 0.00224213 -2.28014e-19)
(-0.443678 0.00285981 -7.87347e-20)
(-0.44146 0.00350573 -1.6015e-19)
(-0.438789 0.00416555 4.43931e-19)
(-0.435661 0.00482653 -5.50743e-19)
(-0.432079 0.0054774 9.02708e-19)
(-0.428056 0.00610814 3.83094e-19)
(-0.423608 0.0067098 2.25133e-19)
(-0.418758 0.00727445 -1.36371e-20)
(-0.413536 0.00779519 -1.76257e-18)
(-0.407973 0.0082663 2.44597e-18)
(-0.402105 0.00868334 -2.08992e-18)
(-0.395969 0.00904331 2.68177e-18)
(-0.389605 0.00934453 2.93578e-18)
(-0.383053 0.00958659 4.80061e-18)
(-0.376352 0.00977018 -1.85153e-17)
(-0.369542 0.00989686 3.60492e-18)
(-0.362659 0.00996896 5.58516e-19)
(-0.355741 0.00998936 -8.35885e-19)
(-0.348819 0.00996143 4.59279e-18)
(-0.341927 0.00988893 4.39701e-18)
(-0.335094 0.00977601 -1.17511e-18)
(-0.328345 0.00962719 1.1069e-17)
(-0.321703 0.00944742 9.73392e-18)
(-0.315188 0.00924196 -6.52131e-19)
(-0.308816 0.00901622 -2.64227e-18)
(-0.3026 0.00877542 1.25597e-18)
(-0.296549 0.0085241 2.52842e-18)
(-0.29067 0.00826559 2.10183e-19)
(-0.28497 0.00800153 3.72716e-18)
(-0.279454 0.00773165 5.25929e-18)
(-0.274128 0.00745381 -2.41912e-19)
(-0.269 0.00716433 2.20352e-18)
(-0.264083 0.00685864 -6.54977e-19)
(-0.259389 0.00653213 7.50688e-19)
(-0.254937 0.00618097 -8.6558e-18)
(-0.250742 0.00580287 -6.3883e-18)
(-0.246824 0.00539766 -9.84592e-18)
(-0.243199 0.0049676 1.95466e-18)
(-0.23988 0.00451723 1.98026e-19)
(-0.236878 0.00405428 9.48173e-18)
(-0.234195 0.00358762 -6.0642e-18)
(-0.23183 0.00312619 -3.06797e-18)
(-0.229774 0.00267911 -3.62195e-18)
(-0.228012 0.00225483 -2.31616e-18)
(-0.226523 0.00186058 8.25225e-18)
(-0.225285 0.00150192 -5.06916e-18)
(-0.224269 0.00118243 -1.19349e-17)
(-0.223448 0.000903753 6.66403e-18)
(-0.222792 0.00066573 -1.04078e-17)
(-0.222276 0.000466698 -9.55311e-18)
(-0.221871 0.000303871 -3.35956e-18)
(-0.221556 0.000173571 -2.44723e-18)
(-0.221309 7.20201e-05 -4.11574e-18)
(-0.221112 -1.96852e-06 2.10801e-17)
(-0.220951 -5.99909e-05 -1.33682e-18)
(-0.220812 -0.000102706 4.23616e-19)
(-0.220681 -0.000128967 6.32793e-18)
(-0.22055 -0.000139346 -6.19283e-18)
(-0.220411 -0.000135825 -4.0638e-18)
(-0.220255 -0.000120685 -9.20156e-18)
(-0.220077 -9.48673e-05 -2.05955e-18)
(-0.219872 -5.80422e-05 -8.25972e-19)
(-0.21963 -1.77655e-05 -1.73668e-18)
(-0.219338 3.4346e-05 -8.59492e-19)
(-0.218994 9.09553e-05 -3.87135e-18)
(-0.21859 0.000167145 -4.47911e-18)
(-0.218115 0.000258643 -2.91741e-18)
(-0.217556 0.000366743 -3.20342e-18)
(-0.216903 0.000494075 5.47457e-18)
(-0.216141 0.000643643 6.45413e-19)
(-0.215253 0.00081897 1.74973e-18)
(-0.214221 0.0010242 6.55538e-18)
(-0.213023 0.00126433 3.52806e-18)
(-0.211636 0.00154538 6.5299e-18)
(-0.21003 0.00187478 4.29583e-19)
(-0.208172 0.00226163 -3.46333e-19)
(-0.206023 0.00271742 2.06986e-18)
(-0.203535 0.00325654 9.08304e-19)
(-0.200653 0.00389778 9.78145e-18)
(-0.19731 0.00466484 2.77866e-18)
(-0.193426 0.00559092 8.31793e-19)
(-0.188892 0.00671773 2.52488e-18)
(-0.183603 0.00810568 2.85689e-18)
(-0.177355 0.00983532 -2.48626e-18)
(-0.170051 0.0120198 2.2939e-18)
(-0.161208 0.014841 -2.63613e-20)
(-0.150978 0.0184362 -6.54532e-19)
(-0.13789 0.0233644 -9.0154e-18)
(-0.123388 0.0290715 -5.7311e-18)
(-0.103062 0.0376313 -5.52215e-19)
(-0.081326 0.0432489 4.98246e-18)
(-0.0507986 0.0492183 1.02726e-18)
(-0.0142424 0.0310358 4.07419e-18)
(-0.45752 8.60895e-06 -2.15902e-20)
(-0.457491 0.00010989 9.77935e-20)
(-0.457324 0.000295843 -1.14893e-19)
(-0.45695 0.000562859 3.13771e-20)
(-0.456297 0.000902748 -3.12243e-19)
(-0.455304 0.00130378 -1.0233e-19)
(-0.453922 0.00175282 -3.00905e-19)
(-0.452115 0.00223675 -7.96076e-20)
(-0.449858 0.00274317 -8.89163e-19)
(-0.447138 0.00326083 8.89165e-19)
(-0.44395 0.00377968 -1.21181e-18)
(-0.440297 0.00429085 1.38389e-18)
(-0.436191 0.00478645 -1.64399e-19)
(-0.431649 0.00525944 -1.56847e-18)
(-0.426695 0.00570354 -2.6655e-18)
(-0.421357 0.00611331 -3.41666e-18)
(-0.415669 0.00648419 -1.89555e-18)
(-0.409667 0.00681263 -1.81343e-18)
(-0.40339 0.0070962 -2.92819e-18)
(-0.396879 0.00733354 2.50286e-18)
(-0.390175 0.00752429 5.70345e-18)
(-0.383319 0.00766895 -1.51622e-17)
(-0.376352 0.00776877 3.00315e-18)
(-0.369312 0.00782556 -3.95053e-18)
(-0.362236 0.00784161 -1.99363e-18)
(-0.355161 0.00781957 7.50369e-18)
(-0.348118 0.00776242 9.26147e-19)
(-0.341136 0.00767341 2.2391e-18)
(-0.334244 0.00755611 6.48539e-18)
(-0.327465 0.0074144 1.07156e-17)
(-0.320819 0.00725243 3.01981e-18)
(-0.314322 0.00707451 -8.57382e-19)
(-0.307986 0.00688478 -1.95135e-18)
(-0.301823 0.00668691 3.73299e-18)
(-0.295837 0.00648364 3.80297e-19)
(-0.290033 0.00627638 1.61932e-18)
(-0.284417 0.00606503 2.21771e-18)
(-0.278994 0.00584797 4.94269e-18)
(-0.27377 0.00562233 -2.19387e-19)
(-0.268756 0.00538447 -1.78437e-18)
(-0.263966 0.00513065 1.61861e-18)
(-0.259415 0.00485766 -1.99243e-18)
(-0.255122 0.00456351 -1.12705e-17)
(-0.251106 0.00424778 -2.51606e-18)
(-0.247384 0.00391201 -5.45924e-19)
(-0.243973 0.00355951 -9.07494e-19)
(-0.240882 0.00319611 2.01721e-17)
(-0.238119 0.00282926 1.54343e-18)
(-0.235684 0.00246579 -5.33381e-18)
(-0.233569 0.00211284 2.84031e-19)
(-0.231761 0.00177709 -2.92718e-18)
(-0.230242 0.00146432 2.13701e-17)
(-0.228988 0.00117906 -7.24848e-18)
(-0.227972 0.0009243 -9.10618e-18)
(-0.227167 0.000701515 1.0859e-17)
(-0.226542 0.000510755 -9.22586e-18)
(-0.22607 0.000350879 -1.23823e-17)
(-0.225724 0.000219891 -3.90018e-18)
(-0.22548 0.000115086 -3.64538e-18)
(-0.225314 3.38879e-05 -7.13571e-18)
(-0.22521 -3.07268e-05 1.87242e-17)
(-0.22515 -8.23509e-05 5.89762e-18)
(-0.225119 -0.00011605 1.28532e-18)
(-0.225106 -0.000137242 6.17764e-18)
(-0.225102 -0.00014815 -1.73276e-18)
(-0.225096 -0.000150023 -7.63253e-18)
(-0.225081 -0.000143547 -4.89177e-18)
(-0.22505 -0.000129422 -1.588e-18)
(-0.224994 -0.000107164 -9.27246e-19)
(-0.224909 -7.10998e-05 -4.36499e-18)
(-0.224788 -2.64921e-05 -1.06488e-18)
(-0.224618 2.3284e-05 -4.84304e-18)
(-0.22439 7.55193e-05 -9.08814e-18)
(-0.2241 0.000141188 -5.69563e-18)
(-0.223734 0.00022039 -3.10846e-18)
(-0.22328 0.000314833 2.33632e-18)
(-0.222722 0.000426746 5.58086e-19)
(-0.222044 0.000558785 5.13821e-18)
(-0.221228 0.000714142 3.82294e-18)
(-0.22025 0.000896696 6.1382e-18)
(-0.219087 0.00111117 1.29174e-17)
(-0.217707 0.00136336 2.13295e-19)
(-0.216075 0.00166044 -2.32643e-18)
(-0.214151 0.00201143 -1.29939e-18)
(-0.211884 0.00242769 8.98419e-19)
(-0.209215 0.00292406 8.40396e-18)
(-0.20607 0.00351931 2.88869e-18)
(-0.202363 0.00423969 8.37348e-19)
(-0.197973 0.00511859 1.94107e-18)
(-0.192783 0.00620383 4.51462e-18)
(-0.186563 0.00756128 -4.43286e-19)
(-0.179192 0.009279 1.59105e-18)
(-0.170126 0.0115139 -1.04264e-18)
(-0.159462 0.014358 -1.12068e-18)
(-0.14563 0.018308 -5.96522e-18)
(-0.129831 0.0228495 -7.26975e-18)
(-0.107791 0.0297816 -3.72149e-19)
(-0.0832153 0.0344313 2.19029e-18)
(-0.0502489 0.0392635 5.34431e-19)
(-0.0134483 0.0257563 1.69978e-18)
(-0.46396 6.13002e-06 -3.18257e-20)
(-0.463931 7.86814e-05 4.34059e-20)
(-0.463763 0.000211904 -1.40542e-19)
(-0.463385 0.000403253 5.31423e-20)
(-0.462726 0.000646945 -2.15095e-19)
(-0.461724 0.00093469 2.06069e-19)
(-0.460327 0.00125714 -5.7954e-19)
(-0.4585 0.00160492 -1.49627e-19)
(-0.456216 0.00196911 -5.88158e-19)
(-0.45346 0.0023416 1.88937e-19)
(-0.450227 0.00271514 -5.01666e-19)
(-0.446521 0.00308333 4.01931e-19)
(-0.442353 0.00344046 -1.49038e-18)
(-0.437741 0.00378146 -9.45419e-19)
(-0.432708 0.0041018 -2.57449e-18)
(-0.427283 0.00439751 -1.74422e-18)
(-0.4215 0.00466528 -7.30552e-19)
(-0.415396 0.00490252 -2.54644e-18)
(-0.409012 0.00510743 -2.48175e-18)
(-0.402388 0.005279 5.22526e-18)
(-0.395568 0.00541694 7.8832e-18)
(-0.388593 0.0055216 -5.75093e-18)
(-0.381505 0.00559387 -1.39419e-18)
(-0.374345 0.00563505 -1.8703e-18)
(-0.367149 0.00564679 -2.45618e-18)
(-0.359955 0.00563102 4.39828e-18)
(-0.352796 0.00558987 8.07428e-18)
(-0.345701 0.00552569 7.51375e-18)
(-0.3387 0.00544106 6.76343e-18)
(-0.331815 0.00533876 3.51178e-18)
(-0.325068 0.00522181 5.55114e-18)
(-0.318475 0.0050933 -3.46177e-19)
(-0.312049 0.00495629 9.19816e-18)
(-0.305798 0.00481344 7.62998e-18)
(-0.29973 0.00466682 -5.16017e-19)
(-0.293849 0.0045175 3.19198e-19)
(-0.288157 0.0043655 6.13319e-19)
(-0.28266 0.00420969 1.27909e-17)
(-0.277363 0.00404801 1.31137e-17)
(-0.272277 0.00387784 -3.98461e-18)
(-0.267413 0.00369641 3.60439e-18)
(-0.262788 0.00350132 2.66086e-18)
(-0.25842 0.00329101 -6.12863e-18)
(-0.25433 0.00306502 5.56614e-18)
(-0.250535 0.00282428 -3.20816e-18)
(-0.247052 0.0025708 -1.6524e-18)
(-0.243894 0.00230844 8.83697e-18)
(-0.241068 0.00204378 5.8332e-18)
(-0.238578 0.00178129 7.1249e-18)
(-0.236416 0.00152596 5.48464e-18)
(-0.234572 0.00128257 -4.87137e-18)
(-0.233027 0.00105531 1.46176e-17)
(-0.231759 0.000847494 -2.10955e-18)
(-0.230741 0.000661366 7.09967e-18)
(-0.229944 0.000498076 6.0978e-18)
(-0.22934 0.000357753 8.36699e-21)
(-0.228899 0.000239658 -5.16665e-18)
(-0.228594 0.000142433 -5.58119e-18)
(-0.2284 6.4035e-05 -7.24022e-18)
(-0.228296 2.69986e-06 2.72259e-18)
(-0.22826 -4.80982e-05 1.52384e-17)
(-0.228275 -8.5859e-05 1.32099e-17)
(-0.228325 -0.000113567 2.3051e-18)
(-0.228399 -0.000132214 9.8573e-18)
(-0.228487 -0.000142302 1.70149e-19)
(-0.228578 -0.000144859 -1.54698e-18)
(-0.228666 -0.000140857 -2.34755e-18)
(-0.228742 -0.000130889 -8.32285e-19)
(-0.2288 -0.000115478 -1.51631e-18)
(-0.228833 -9.56618e-05 -9.68375e-18)
(-0.228831 -6.90818e-05 -3.89118e-19)
(-0.228792 -3.04619e-05 -9.47996e-18)
(-0.228701 4.89714e-06 -6.61521e-18)
(-0.228548 4.90633e-05 -1.07065e-17)
(-0.228324 0.000103599 -3.8016e-18)
(-0.228016 0.000168997 1.54497e-18)
(-0.227609 0.000246789 5.36779e-19)
(-0.227088 0.000338911 1.17378e-18)
(-0.226431 0.000447661 2.73914e-18)
(-0.225617 0.000575827 2.25961e-18)
(-0.22462 0.000726799 7.59612e-18)
(-0.223408 0.000904744 -2.78935e-18)
(-0.221945 0.00111482 -5.97885e-18)
(-0.220189 0.00136351 -5.29739e-18)
(-0.218086 0.00165898 1.88931e-18)
(-0.215576 0.00201192 1.29024e-17)
(-0.21258 0.00243587 3.12474e-18)
(-0.209007 0.0029497 9.55667e-19)
(-0.204727 0.00357773 2.44668e-18)
(-0.199615 0.00435422 2.40478e-18)
(-0.193421 0.00532824 1.68433e-19)
(-0.186006 0.00656147 2.18092e-18)
(-0.176781 0.008178 -3.0212e-18)
(-0.165805 0.0102273 -2.10241e-18)
(-0.15143 0.0131035 -6.93255e-18)
(-0.13467 0.0163861 -6.28943e-18)
(-0.111347 0.0214875 7.48913e-19)
(-0.0846499 0.0249933 1.1614e-18)
(-0.0497066 0.0286765 1.99909e-19)
(-0.0127852 0.0196907 8.9997e-19)
(-0.468277 3.66681e-06 -3.18347e-20)
(-0.468249 4.73487e-05 1.06688e-20)
(-0.46808 0.00012755 -6.33839e-20)
(-0.467701 0.000242768 1.29404e-19)
(-0.467039 0.000389567 -2.70752e-19)
(-0.466031 0.000563015 -3.41518e-20)
(-0.464626 0.000757514 -4.61947e-19)
(-0.462785 0.000967416 -2.38947e-19)
(-0.460484 0.00118734 -5.88637e-19)
(-0.457705 0.00141239 -2.47583e-19)
(-0.454443 0.00163816 -1.49512e-19)
(-0.450703 0.00186077 -3.65813e-19)
(-0.446494 0.00207678 -6.55704e-19)
(-0.441834 0.00228311 -7.99354e-19)
(-0.436748 0.002477 3.12851e-19)
(-0.431265 0.00265606 -5.727e-19)
(-0.425418 0.00281827 -2.28555e-20)
(-0.419246 0.00296205 -5.01256e-18)
(-0.412789 0.00308629 -2.34342e-18)
(-0.406089 0.00319036 5.48525e-18)
(-0.39919 0.00327409 4.99036e-18)
(-0.392135 0.00333767 -2.86975e-18)
(-0.384965 0.00338164 -5.29184e-18)
(-0.377723 0.00340679 -8.87694e-19)
(-0.370446 0.00341411 -3.56993e-18)
(-0.363171 0.00340477 5.88064e-18)
(-0.355933 0.00338006 7.77907e-18)
(-0.348762 0.00334141 3.39766e-18)
(-0.341686 0.00329035 9.54289e-18)
(-0.33473 0.0032286 -2.74685e-18)
(-0.327914 0.00315794 -3.52782e-18)
(-0.321256 0.00308028 -6.58181e-19)