/*--------------------------------*- C++ -*----------------------------------*\
  =========                 |
  \\      /  F ield         | OpenFOAM: The Open Source CFD Toolbox
   \\    /   O peration     | Website:  https://openfoam.org
    \\  /    A nd           | Version:  7
     \\/     M anipulation  |
\*---------------------------------------------------------------------------*/
FoamFile
{
    version     2.0;
    format      ascii;
    class       volVectorField;
    location    "26";
    object      U;
}
// * * * * * * * * * * * * * * * * * * * * * * * * * * * * * * * * * * * * * //

dimensions      [0 1 -1 0 0 0 0];

internalField   nonuniform List<vector> 
115
(
(-0.0129203 0.0353551 6.34745e-19)
(-0.0164654 0.0423156 -9.80229e-19)
(-0.0145398 0.0396357 -1.08186e-19)
(-0.0330181 0.0364979 -9.10085e-19)
(-0.0210316 0.0404392 -2.5433e-18)
(0.845 0.127648 1.00134e-17)
(0.422974 0.0336549 3.16144e-18)
(0.0665214 0.0189154 1.30148e-17)
(-0.0598384 0.0237962 4.24106e-18)
(0.660558 0.0856974 6.49975e-18)
(0.257832 0.02562 -4.28162e-18)
(-0.0128977 0.039951 4.36619e-18)
(-0.0652905 0.0362167 5.4537e-18)
(1.08372 0.21944 8.85724e-18)
(0.743606 0.113739 4.09188e-18)
(0.274614 0.00048129 1.87326e-17)
(-0.0195206 -0.00809278 5.62008e-18)
(0.983407 0.178622 5.83659e-18)
(0.590856 0.0678321 3.49609e-18)
(0.159096 -0.00168321 1.1185e-17)
(-0.0498759 0.00696869 3.8638e-18)
(1.02003 0.22765 8.97468e-18)
(0.563958 0.0829371 7.94132e-18)
(0.0741303 -0.0192488 8.42841e-18)
(0.912413 0.175792 1.03799e-17)
(0.424757 0.0339554 1.50263e-17)
(0.0182349 -0.0172722 1.39526e-17)
(1.18954 0.336672 1.35946e-17)
(0.83914 0.224214 1.27839e-17)
(0.246869 0.0233478 3.14693e-17)
(1.13918 0.291705 1.16528e-17)
(0.728139 0.158232 1.04058e-17)
(0.158273 -0.00159769 1.28029e-17)
(1.2627 0.429552 1.31308e-17)
(1.02122 0.374331 1.82319e-17)
(0.448391 0.117655 2.39693e-18)
(1.25627 0.393542 1.52304e-17)
(0.964564 0.312152 1.28828e-17)
(0.356025 0.0737563 3.49715e-18)
(1.2568 0.504228 1.57337e-17)
(1.09505 0.51256 1.982e-17)
(0.601613 0.233254 4.18914e-18)
(1.28251 0.475789 1.19128e-17)
(1.09053 0.460632 1.30652e-17)
(0.538643 0.185228 2.49771e-18)
(1.2114 0.522178 -7.15621e-18)
(1.19467 0.562696 2.1281e-17)
(1.08341 0.618831 2.92239e-17)
(0.647349 0.33983 1.33809e-17)
(1.24051 0.504448 -9.61454e-19)
(1.24091 0.539182 1.75341e-17)
(1.11287 0.588292 2.35131e-17)
(0.634724 0.302783 7.7903e-18)
(1.1517 0.48516 1.02314e-17)
(1.13378 0.545964 -3.74992e-18)
(1.08611 0.599833 3.2384e-17)
(0.957689 0.661015 4.16655e-17)
(0.542134 0.427153 2.8413e-17)
(1.18207 0.534251 1.94525e-18)
(1.15445 0.58714 2.53464e-17)
(1.04403 0.66539 3.32951e-17)
(0.610465 0.39089 2.01414e-17)
(0.763227 0.146967 2.15309e-17)
(0.754284 0.199403 -9.43248e-17)
(0.509302 0.531394 -7.51242e-17)
(0.763648 0.168761 8.28597e-17)
(0.790773 0.239131 -6.44515e-17)
(0.522917 0.563266 -2.28559e-18)
(0.768833 0.107482 -7.56147e-17)
(0.697733 0.136809 -9.37363e-18)
(0.476079 0.400166 -2.08662e-17)
(0.765469 0.127126 2.56926e-17)
(0.725723 0.16677 -2.50635e-17)
(0.494411 0.471658 -6.19547e-18)
(0.77721 0.0622799 4.72508e-17)
(0.653568 0.0763148 3.65372e-17)
(0.448465 0.23392 -5.72943e-17)
(0.773422 0.0836807 -5.78034e-17)
(0.673817 0.103716 6.57741e-18)
(0.461749 0.321634 -3.29107e-17)
(0.632231 0.0165146 1.48335e-16)
(0.434953 0.0478833 -6.65463e-17)
(0.780521 0.0362739 -2.38861e-18)
(0.639651 0.0434616 6.97675e-17)
(0.439785 0.142381 -1.14347e-16)
(0.933751 0.0818231 -4.48862e-17)
(0.76939 0.182152 5.22618e-17)
(0.849125 0.264059 -1.3683e-16)
(0.67671 0.654057 -4.19801e-17)
(0.954601 0.0920084 -4.57323e-17)
(0.789714 0.195889 1.32281e-16)
(0.896715 0.259585 -3.62148e-17)
(0.822418 0.648253 3.19405e-17)
(0.969873 0.0997836 -2.23906e-17)
(0.819303 0.207455 4.77577e-17)
(0.931781 0.248371 -8.81844e-18)
(0.888421 0.611883 1.61516e-17)
(0.9795 0.104503 3.42153e-18)
(0.854636 0.215624 4.01799e-17)
(0.956597 0.236978 -1.00796e-16)
(0.940213 0.558682 -1.33565e-17)
(0.985257 0.106233 1.07727e-16)
(0.890775 0.220997 4.91373e-17)
(0.977781 0.224334 -2.84923e-17)
(0.976215 0.50977 -1.21952e-18)
(0.824838 0.125476 1.46286e-18)
(0.889621 0.159922 2.65493e-18)
(0.492015 0.0609575 1.17266e-18)
(0.519174 0.082785 3.15684e-18)
(0.197862 0.0363903 -2.85098e-20)
(0.144195 0.0197265 -8.2516e-19)
(0.0271383 0.0635648 -4.52515e-20)
(-0.0613713 0.0176049 3.50825e-19)
(-0.0402339 0.0855098 -2.59131e-19)
(-0.0734658 0.0348925 2.04902e-19)
)
;

boundaryField
{
    inlet
    {
        type            uniformFixedValue;
        uniformValue    constant (1 0 0);
        value           nonuniform 0();
    }
    outlet
    {
        type            pressureInletOutletVelocity;
        value           nonuniform 0();
    }
    polygon
    {
        type            fixedValue;
        value           uniform (0 0 0);
    }
    top
    {
        type            symmetryPlane;
    }
    bottom
    {
        type            symmetryPlane;
    }
    outside
    {
        type            zeroGradient;
    }
    procBoundary33to25
    {
        type            processor;
        value           nonuniform List<vector> 4((0.782083 0.0133903 -1.34637e-17) (0.782083 0.0133903 -1.34637e-17) (0.632231 -0.0165146 1.32806e-16) (0.434953 -0.0478833 1.13422e-16));
    }
    procBoundary33to32
    {
        type            processor;
        value           nonuniform List<vector> 6((0.906613 0.058768 -1.36353e-16) (0.893824 0.038637 5.3049e-17) (0.899956 0.0481758 -9.36157e-17) (0.883945 0.0205236 1.84906e-17) (0.888625 0.0284136 4.05481e-17) (0.880637 0.0113674 -3.25185e-17));
    }
    procBoundary33to34
    {
        type            processor;
        value           nonuniform List<vector> 5((-0.0498038 0.0521803 1.21169e-20) (-0.0117827 0.0270407 -4.1096e-19) (-0.0532512 0.0744195 -2.64548e-18) (-0.0518995 0.0638294 -8.93162e-19) (-0.0537718 0.0808438 -1.59451e-18));
    }
    procBoundary33to40
    {
        type            processor;
        value           nonuniform List<vector> 7((0.915633 0.0717154 -8.35822e-17) (0.915633 0.0717154 -8.35822e-17) (0.874848 0.0667819 -9.20781e-18) (0.876134 0.0758537 -2.42303e-17) (0.883055 0.083112 -1.57381e-18) (0.895395 0.089302 2.33667e-17) (0.911694 0.0947796 5.90088e-18));
    }
    procBoundary33to41
    {
        type            processor;
        value           nonuniform List<vector> 
26
(
(1.12818 0.211291 3.55726e-18)
(0.991594 0.161227 3.67221e-18)
(0.991594 0.161227 3.67221e-18)
(1.25309 0.276803 3.44973e-18)
(1.18842 0.270731 5.45899e-18)
(1.20176 0.248444 3.89543e-18)
(1.23297 0.306263 2.91248e-18)
(1.18842 0.270731 5.45899e-18)
(1.29442 0.378185 4.45128e-18)
(1.28938 0.350047 6.54586e-18)
(1.29617 0.436076 2.61607e-18)
(1.31308 0.412419 3.83959e-18)
(1.26127 0.484064 9.85271e-19)
(1.26127 0.484064 9.85271e-19)
(1.28919 0.462986 1.98591e-18)
(1.21075 0.460121 -1.1214e-18)
(1.23588 0.443692 3.08074e-18)
(1.1611 0.439061 -5.75218e-17)
(1.18899 0.470765 4.78243e-18)
(1.18899 0.470765 4.78243e-18)
(0.989438 0.105735 8.05439e-17)
(0.92438 0.223335 -3.72018e-17)
(0.997541 0.212904 -9.77512e-17)
(1.00568 0.462352 -8.85661e-17)
(1.0812 0.186924 1.70495e-18)
(1.13782 0.217711 2.39765e-18)
)
;
    }
    procBoundary33to42
    {
        type            processor;
        value           nonuniform List<vector> 7((-0.0512695 0.0830784 -8.28167e-19) (-0.0512695 0.0830784 -8.28167e-19) (0.736021 0.114387 7.65062e-19) (0.419196 0.0675689 4.45254e-19) (0.165538 0.0526456 1.89163e-20) (0.0188031 0.0599505 -6.5887e-20) (-0.0449548 0.070776 -2.13519e-19));
    }
}


// ************************************************************************* //
