/*--------------------------------*- C++ -*----------------------------------*\
  =========                 |
  \\      /  F ield         | OpenFOAM: The Open Source CFD Toolbox
   \\    /   O peration     | Website:  https://openfoam.org
    \\  /    A nd           | Version:  7
     \\/     M anipulation  |
\*---------------------------------------------------------------------------*/
FoamFile
{
    version     2.0;
    format      ascii;
    class       volScalarField;
    location    "78";
    object      p;
}
// * * * * * * * * * * * * * * * * * * * * * * * * * * * * * * * * * * * * * //

dimensions      [0 2 -2 0 0 0 0];

internalField   nonuniform List<scalar> 
125
(
0.524572
0.648802
0.477839
0.53056
0.665687
0.537906
0.536159
0.680358
0.589619
0.540624
0.692012
0.634119
0.543945
0.700753
0.671804
0.54606
0.706849
0.703095
0.546979
0.710501
-0.10421
-0.158781
-0.146373
-0.0529387
-0.0963403
-0.152051
-0.152792
-0.03796
-0.0750909
-0.126481
-0.117359
-0.0218799
-0.0566822
-0.104893
-0.0925277
-0.00276317
-0.0345923
-0.0795549
-0.0675866
0.0183372
-0.0115359
-0.053702
-0.0426572
0.0405117
0.0129245
-0.0259234
-0.0168006
0.0864692
0.0605989
0.0350473
0.000774627
0.00853847
0.104922
0.0813354
0.0569724
0.0267709
0.0305629
0.140174
0.121275
0.100273
0.0727436
0.0598113
-0.0906992
-0.110396
-0.120487
-0.132987
-0.115499
-0.0893354
-0.112324
-0.122188
-0.137664
-0.12938
-0.0900172
-0.116912
-0.129018
-0.149085
-0.144716
-0.118825
-0.137613
-0.159883
-0.163266
-0.118674
-0.14733
-0.169785
-0.184866
-0.116246
-0.15547
-0.179048
-0.209195
-0.11033
-0.158295
-0.187934
-0.2303
-0.0988926
-0.153114
-0.196985
-0.248087
-0.0829328
-0.141979
-0.207698
-0.256066
-0.0701646
-0.127404
-0.212859
-0.315216
0.447017
0.42944
0.411585
0.345483
0.463644
0.446728
0.447332
0.357552
0.480206
0.465437
0.490714
0.366983
0.496201
0.485676
0.542342
0.372972
0.511119
0.50758
0.60164
0.383872
)
;

boundaryField
{
    inlet
    {
        type            zeroGradient;
    }
    outlet
    {
        type            fixedValue;
        value           nonuniform 0();
    }
    polygon
    {
        type            zeroGradient;
    }
    top
    {
        type            symmetryPlane;
    }
    bottom
    {
        type            symmetryPlane;
    }
    outside
    {
        type            slip;
    }
    procBoundary25to16
    {
        type            processor;
        value           nonuniform List<scalar> 9(0.521103 0.521103 0.524623 0.527808 0.42414 0.432218 0.440259 0.448133 0.455628);
    }
    procBoundary25to17
    {
        type            processor;
        value           nonuniform List<scalar> 
28
(
-0.061369
-0.061369
-0.061369
-0.0109187
0.00194899
0.0162178
0.0325476
0.0506903
0.0694377
0.0694377
0.105043
0.122097
0.153312
-0.0698007
-0.0657533
-0.0628587
-0.0876777
-0.0876777
-0.0835468
-0.0767296
-0.0668824
-0.0530476
-0.0371536
-0.0266483
0.430745
0.413516
0.38215
0.331854
)
;
    }
    procBoundary25to18
    {
        type            processor;
        value           nonuniform List<scalar> 5(-0.0703456 -0.0713545 -0.0743443 -0.0787288 -0.0844811);
    }
    procBoundary25to24
    {
        type            processor;
        value           nonuniform List<scalar> 4(0.530326 0.532179 0.533367 0.533942);
    }
    procBoundary25to33
    {
        type            processor;
        value           nonuniform List<scalar> 4(0.728221 0.546427 0.728221 0.711416);
    }
}


// ************************************************************************* //
