/*--------------------------------*- C++ -*----------------------------------*\
  =========                 |
  \\      /  F ield         | OpenFOAM: The Open Source CFD Toolbox
   \\    /   O peration     | Website:  https://openfoam.org
    \\  /    A nd           | Version:  7
     \\/     M anipulation  |
\*---------------------------------------------------------------------------*/
FoamFile
{
    version     2.0;
    format      ascii;
    class       volVectorField;
    location    "30";
    object      U;
}
// * * * * * * * * * * * * * * * * * * * * * * * * * * * * * * * * * * * * * //

dimensions      [0 1 -1 0 0 0 0];

internalField   nonuniform List<vector> 
175
(
(1.00536 0.000307681 3.99508e-18)
(0.993684 -0.000330334 -2.94788e-20)
(1.00655 0.000684685 2.46357e-17)
(0.991429 -0.000251283 -1.4086e-17)
(1.00771 0.00103974 -2.1473e-17)
(0.988043 2.64711e-08 1.90477e-18)
(1.00839 0.00161522 1.13064e-17)
(0.982835 0.000625236 -5.30417e-17)
(1.00775 0.00262146 -3.16778e-18)
(0.974487 0.00204788 -4.00234e-17)
(1.0039 0.00449884 2.93505e-17)
(0.960356 0.00525851 -1.93746e-17)
(0.992591 0.00823554 -6.1311e-17)
(0.934817 0.0127855 7.01701e-18)
(0.963774 0.0164146 4.24736e-17)
(0.884604 0.0324419 5.41241e-17)
(0.890251 0.0380295 3.40544e-17)
(0.77288 0.0958578 -3.73179e-17)
(1.00538 0.000333227 -1.55818e-18)
(0.993658 -0.000359417 -6.04126e-18)
(1.00659 0.000743847 2.39521e-17)
(0.991385 -0.000275286 -1.74849e-17)
(1.00777 0.00112962 -1.52893e-17)
(0.987979 -3.8788e-06 -1.71107e-17)
(1.00848 0.00175674 1.25865e-17)
(0.982741 0.000670264 -4.87291e-17)
(1.00789 0.00285582 1.36368e-18)
(0.974343 0.00220888 -2.83389e-17)
(1.00411 0.00491267 3.62206e-17)
(0.960119 0.00568418 -9.00686e-18)
(0.99295 0.00902424 -6.17217e-17)
(0.93439 0.0138343 -2.50861e-18)
(0.964478 0.0180833 3.88774e-17)
(0.883729 0.0351217 5.36767e-17)
(0.892204 0.0422106 4.7663e-17)
(0.771043 0.103983 -3.39543e-17)
(1.00541 0.000358882 -7.11099e-18)
(0.993632 -0.000388991 -1.15157e-17)
(1.00663 0.000803553 2.53695e-17)
(0.991339 -0.000300009 -2.57599e-17)
(1.00783 0.00121994 -1.10577e-17)
(0.98791 -8.0936e-06 -3.70449e-17)
(1.00858 0.00189851 1.40121e-17)
(0.982637 0.00071405 -4.97506e-17)
(1.00804 0.00309004 7.61141e-18)
(0.974182 0.0023668 -1.81781e-17)
(1.00436 0.00532581 2.98955e-17)
(0.959855 0.00610244 -4.32091e-18)
(0.99336 0.00981199 -4.97588e-17)
(0.933922 0.0148636 -6.62382e-18)
(0.965268 0.0197519 1.94492e-17)
(0.882827 0.0377376 3.75016e-17)
(0.89434 0.0463887 6.48617e-17)
(0.769393 0.111778 -3.44632e-17)
(1.00543 0.000384555 -1.50106e-17)
(0.993604 -0.000418837 -1.70442e-17)
(1.00667 0.000863631 2.85282e-17)
(0.99129 -0.000325095 -2.1633e-17)
(1.0079 0.00131084 -7.83877e-18)
(0.987836 -1.34496e-05 -4.32455e-17)
(1.00868 0.00204155 1.6129e-17)
(0.982525 0.000757412 -5.71899e-17)
(1.00822 0.00332735 -6.36604e-19)
(0.974006 0.0025252 -9.05568e-18)
(1.00464 0.00574638 2.79791e-17)
(0.959566 0.00652389 -3.90441e-18)
(0.993825 0.0106178 -4.39256e-17)
(0.933422 0.0159032 -8.46741e-18)
(0.966158 0.0214667 2.58724e-17)
(0.881917 0.0403779 2.61228e-17)
(0.896685 0.0506909 8.73399e-17)
(0.767971 0.11956 -4.34754e-17)
(1.00545 0.000410258 -2.5565e-17)
(0.993577 -0.000449029 -2.18605e-17)
(1.00671 0.000924139 3.50061e-17)
(0.99124 -0.000350768 -2.13483e-17)
(1.00797 0.00140238 -2.30619e-17)
(0.987759 -1.96958e-05 -3.67899e-17)
(1.0088 0.00218588 1.97911e-17)
(0.982406 0.000799276 -5.58228e-17)
(1.0084 0.00356747 -6.58702e-18)
(0.973817 0.00268151 4.09156e-19)
(1.00494 0.0061731 2.93471e-17)
(0.959257 0.00694252 9.79162e-18)
(0.994348 0.0114378 -4.27334e-17)
(0.932896 0.0169386 -7.88283e-18)
(0.967158 0.0232161 3.74589e-17)
(0.881014 0.0430057 2.00139e-17)
(0.899269 0.0550871 9.45862e-17)
(0.766826 0.127227 -3.42507e-17)
(1.00547 0.000435991 -2.48805e-17)
(0.993549 -0.000479594 -2.64811e-17)
(1.00675 0.000985083 2.98498e-17)
(0.991189 -0.000377089 -1.05804e-17)
(1.00804 0.00149451 -2.47289e-17)
(0.987679 -2.70715e-05 -3.1442e-17)
(1.00892 0.00233134 2.52459e-17)
(0.982281 0.000839413 -4.57157e-17)
(1.00861 0.00380998 -1.00867e-17)
(0.973618 0.00283517 -5.08109e-18)
(1.00528 0.00660508 1.79178e-17)
(0.958931 0.00735699 2.15225e-17)
(0.994933 0.0122699 -2.85332e-17)
(0.932352 0.0179667 -4.16466e-18)
(0.968283 0.0249951 3.34733e-17)
(0.880133 0.0456127 1.7654e-17)
(0.902128 0.0595568 8.48609e-17)
(0.76601 0.134737 -3.17751e-17)
(1.00549 0.00046176 -1.36554e-17)
(0.993523 -0.000510572 -3.08741e-17)
(1.0068 0.00104654 1.24357e-17)
(0.991138 -0.000404052 -3.77221e-18)
(1.00812 0.00158731 -3.07458e-17)
(0.987598 -3.57072e-05 -2.82338e-17)
(1.00906 0.00247792 1.64734e-17)
(0.982153 0.000877693 -4.23448e-17)
(1.00883 0.00405464 -1.20768e-17)
(0.973411 0.00298561 -1.06242e-17)
(1.00566 0.00704147 9.03871e-18)
(0.958594 0.00776582 1.56529e-17)
(0.995584 0.0131118 -1.91291e-17)
(0.931797 0.0189837 2.34468e-18)
(0.969546 0.026797 3.393e-17)
(0.879288 0.0481894 1.90777e-17)
(0.905311 0.0640761 8.3838e-17)
(0.765582 0.142058 -3.57573e-17)
(1.00551 0.00048768 -5.95872e-18)
(0.993498 -0.000542381 -3.75223e-17)
(1.00684 0.00110916 -1.48546e-18)
(0.991087 -0.000432212 6.12528e-19)
(1.0082 0.00168172 -3.97156e-17)
(0.987516 -4.53646e-05 -2.61084e-17)
(1.00919 0.00262718 9.00412e-18)
(0.982022 0.000913542 -4.47237e-17)
(1.00907 0.00430383 -1.39326e-17)
(0.9732 0.00313187 -1.59269e-17)
(1.00606 0.00748562 2.2413e-18)
(0.95825 0.00816748 1.12086e-17)
(0.996305 0.0139678 -1.29682e-17)
(0.931242 0.0199867 1.20709e-17)
(0.970963 0.0286258 3.97281e-17)
(0.878497 0.0507285 1.9506e-18)
(0.90888 0.0686426 6.35842e-17)
(0.765614 0.149176 -4.99838e-17)
(1.00553 0.000513834 -1.03789e-18)
(0.993475 -0.000575521 -4.85385e-17)
(1.00688 0.00117369 -1.36829e-17)
(0.991038 -0.000462754 3.05197e-18)
(1.00828 0.00177891 -3.87099e-17)
(0.987435 -5.73931e-05 -2.39607e-17)
(1.00934 0.00278187 1.81948e-18)
(0.981892 0.000946367 -5.35485e-17)
(1.00932 0.00456387 -1.51593e-17)
(0.972988 0.00327718 -2.23686e-17)
(1.0065 0.0079519 -2.9245e-18)
(0.957906 0.00857499 5.8911e-18)
(0.997098 0.0148699 -7.43885e-18)
(0.930698 0.0210137 6.88053e-18)
(0.972554 0.0305531 2.83749e-17)
(0.87778 0.0533324 -1.58284e-17)
(0.912921 0.0734141 4.74496e-17)
(0.766204 0.156356 -5.06565e-17)
(1.00555 0.000539125 2.06414e-18)
(0.993454 -0.000606835 -4.88142e-17)
(1.00692 0.00123498 -2.49962e-17)
(0.990991 -0.000491379 -1.05547e-17)
(1.00836 0.00187152 -2.73395e-17)
(0.987357 -7.32783e-05 -2.25358e-17)
(1.00949 0.00293 -5.93906e-18)
(0.981765 0.000981244 -6.93089e-17)
(0.935211 0.0115104 2.19634e-17)
(0.963133 0.0145814 5.38461e-17)
(0.885454 0.0292281 6.11693e-17)
(0.888452 0.0335955 2.2152e-17)
(0.774886 0.0865099 -4.66199e-17)
)
;

boundaryField
{
    inlet
    {
        type            uniformFixedValue;
        uniformValue    constant (1 0 0);
        value           uniform (1 0 0);
    }
    outlet
    {
        type            pressureInletOutletVelocity;
        value           nonuniform 0();
    }
    polygon
    {
        type            fixedValue;
        value           nonuniform 0();
    }
    top
    {
        type            symmetryPlane;
    }
    bottom
    {
        type            symmetryPlane;
    }
    outside
    {
        type            zeroGradient;
    }
    procBoundary40to32
    {
        type            processor;
        value           nonuniform List<vector> 
19
(
(1.00534 0.000280231 1.02429e-17)
(0.993711 -0.000299983 6.79844e-18)
(1.00651 0.000621623 2.74662e-17)
(0.991473 -0.000228141 -1.39969e-17)
(1.00765 0.000943092 -2.9597e-17)
(0.988105 1.7423e-06 7.09892e-18)
(1.0083 0.00146164 8.93576e-18)
(0.982924 0.000563735 -4.79216e-17)
(1.00762 0.00236435 -7.90992e-18)
(0.97462 0.00184497 -5.6078e-17)
(1.0037 0.00404081 2.74153e-17)
(0.96057 0.00473477 -1.87483e-17)
(0.992266 0.0073601 -4.76224e-17)
(0.935592 0.0103517 2.64857e-17)
(0.962477 0.0129885 5.2646e-17)
(0.886275 0.026329 5.18331e-17)
(0.886554 0.0299391 7.10634e-18)
(0.776667 0.0781701 -6.16334e-17)
(0.992266 0.0073601 -4.76224e-17)
)
;
    }
    procBoundary40to33
    {
        type            processor;
        value           nonuniform List<vector> 10((0.681539 0.125548 4.32748e-17) (0.690742 0.139131 5.63109e-17) (0.700778 0.152341 4.22628e-17) (0.711643 0.165556 3.44838e-17) (0.723348 0.178804 3.37132e-17) (0.735911 0.192038 3.81251e-17) (0.749371 0.205224 1.11187e-17) (0.763817 0.218438 -2.58941e-17) (0.779411 0.231998 -4.23947e-17) (0.673296 0.111953 4.24785e-17));
    }
    procBoundary40to48
    {
        type            processor;
        value           nonuniform List<vector> 
19
(
(1.00958 0.00481669 6.01669e-19)
(0.97278 0.00342931 -3.08279e-17)
(1.00697 0.00841376 -7.11342e-18)
(0.957571 0.0089987 1.21841e-18)
(0.99797 0.0157778 -3.12411e-18)
(0.93018 0.0220781 3.61413e-18)
(0.974343 0.0325128 1.79268e-17)
(0.877172 0.0560078 -1.3639e-17)
(0.917554 0.0782235 3.34591e-17)
(0.767482 0.16348 -3.09176e-17)
(1.00559 0.00060447 6.24034e-18)
(0.9934 -0.000665934 -2.18748e-17)
(1.00705 0.0013655 -1.51198e-17)
(0.990858 -0.000516379 -8.15615e-18)
(1.0086 0.00207289 -2.83609e-18)
(0.987136 -4.7689e-05 -2.2348e-17)
(1.00994 0.00324283 1.11073e-17)
(1.00958 0.00481669 6.01669e-19)
(0.981405 0.00113711 -8.80653e-17)
)
;
    }
}


// ************************************************************************* //
