/*--------------------------------*- C++ -*----------------------------------*\
  =========                 |
  \\      /  F ield         | OpenFOAM: The Open Source CFD Toolbox
   \\    /   O peration     | Website:  https://openfoam.org
    \\  /    A nd           | Version:  7
     \\/     M anipulation  |
\*---------------------------------------------------------------------------*/
FoamFile
{
    version     2.0;
    format      ascii;
    class       volScalarField;
    location    "82";
    object      p;
}
// * * * * * * * * * * * * * * * * * * * * * * * * * * * * * * * * * * * * * //

dimensions      [0 2 -2 0 0 0 0];

internalField   nonuniform List<scalar> 
115
(
-0.0235455
-0.0241825
-0.0247227
-0.025174
-0.0255409
-0.0258302
-0.0260487
-0.0262035
-0.0263016
-0.0263506
-0.026358
-0.0263315
-0.026279
-0.026208
-0.026126
-0.0260401
-0.0259569
-0.0235222
-0.0241602
-0.0247024
-0.0251528
-0.0255199
-0.0258098
-0.0260287
-0.0261838
-0.0262822
-0.0263314
-0.0263389
-0.0263125
-0.0262597
-0.0261882
-0.0261055
-0.0260184
-0.0259338
-0.023415
-0.024054
-0.0245972
-0.0250503
-0.0254188
-0.0257089
-0.0259304
-0.0260877
-0.0261884
-0.0262403
-0.0262507
-0.0262272
-0.0261774
-0.0261088
-0.0260285
-0.0259435
-0.0258605
-0.0232061
-0.023846
-0.0243902
-0.0248444
-0.0252149
-0.0255088
-0.0257298
-0.0258893
-0.0259935
-0.0260497
-0.0260651
-0.0260472
-0.0260033
-0.0259406
-0.025866
-0.0257863
-0.0257079
-0.0228746
-0.0235137
-0.0240572
-0.0245106
-0.02488
-0.0251727
-0.0253964
-0.0255563
-0.0256626
-0.0257227
-0.0257441
-0.0257337
-0.0256981
-0.0256441
-0.0255781
-0.0255066
-0.0254356
-0.0223958
-0.0230304
-0.0235693
-0.0240175
-0.0243811
-0.0246674
-0.0248853
-0.0250431
-0.0251453
-0.0252102
-0.0252379
-0.0252356
-0.02521
-0.025167
-0.0251124
-0.0250519
-0.024991
-0.022366
-0.0228933
-0.0233286
-0.0236779
-0.0239488
-0.0241516
-0.0242983
-0.0244003
-0.024457
-0.0244845
-0.0244893
-0.0244748
-0.0244447
)
;

boundaryField
{
    inlet
    {
        type            zeroGradient;
    }
    outlet
    {
        type            fixedValue;
        value           nonuniform 0();
    }
    polygon
    {
        type            zeroGradient;
    }
    top
    {
        type            symmetryPlane;
    }
    bottom
    {
        type            symmetryPlane;
    }
    outside
    {
        type            slip;
    }
    procBoundary14to6
    {
        type            processor;
        value           nonuniform List<scalar> 
17
(
-0.0244037
-0.0243566
-0.0243085
-0.0214882
-0.0219936
-0.0224043
-0.0227252
-0.022964
-0.0231327
-0.023246
-0.0233207
-0.0233729
-0.0234095
-0.0234221
-0.0234173
-0.0244037
-0.0234008
)
;
    }
    procBoundary14to13
    {
        type            processor;
        value           nonuniform List<scalar> 6(-0.0258824 -0.0258577 -0.0257854 -0.0256366 -0.0253709 -0.0249353);
    }
    procBoundary14to15
    {
        type            processor;
        value           nonuniform List<scalar> 8(-0.0228066 -0.0227828 -0.0226747 -0.0224653 -0.0221351 -0.0216611 -0.0217422 -0.0217422);
    }
    procBoundary14to22
    {
        type            processor;
        value           nonuniform List<scalar> 
17
(
-0.0234996
-0.0241371
-0.024679
-0.0251308
-0.0254988
-0.0257895
-0.0260097
-0.0261664
-0.0262667
-0.0263182
-0.0263284
-0.0263051
-0.026256
-0.0261887
-0.0261106
-0.0260287
-0.0259497
)
;
    }
}


// ************************************************************************* //
