/*--------------------------------*- C++ -*----------------------------------*\
  =========                 |
  \\      /  F ield         | OpenFOAM: The Open Source CFD Toolbox
   \\    /   O peration     | Website:  https://openfoam.org
    \\  /    A nd           | Version:  7
     \\/     M anipulation  |
\*---------------------------------------------------------------------------*/
FoamFile
{
    version     2.0;
    format      ascii;
    class       volVectorField;
    location    "120";
    object      U;
}
// * * * * * * * * * * * * * * * * * * * * * * * * * * * * * * * * * * * * * //

dimensions      [0 1 -1 0 0 0 0];

internalField   nonuniform List<vector> 
175
(
(-0.221971 -0.0438601 6.32078e-20)
(-0.222374 -0.0406981 -1.10352e-18)
(-0.222843 -0.036467 -9.00109e-19)
(-0.22332 -0.0312372 -4.59206e-18)
(-0.223748 -0.0251071 3.25914e-18)
(-0.224078 -0.0182081 1.47025e-18)
(-0.224251 -0.0106873 7.89802e-19)
(-0.224244 -0.0027559 -4.81504e-18)
(-0.224037 0.00543731 -2.9417e-18)
(-0.223596 0.0136578 -6.36569e-18)
(-0.222931 0.0216898 -6.42615e-18)
(-0.222058 0.0293129 -2.54364e-18)
(-0.221002 0.0363164 -3.63897e-18)
(-0.219803 0.042504 -1.67698e-18)
(-0.218501 0.0477005 -7.64629e-19)
(-0.217142 0.0517584 -1.5557e-18)
(-0.215767 0.0545625 1.11989e-18)
(-0.223946 -0.0438442 -2.81439e-19)
(-0.224263 -0.040686 -2.11174e-18)
(-0.224657 -0.0364676 -1.17853e-18)
(-0.225073 -0.0312589 -3.1383e-18)
(-0.225457 -0.0251577 5.64442e-18)
(-0.225762 -0.0182935 9.4825e-19)
(-0.225932 -0.0108115 -4.98538e-19)
(-0.225945 -0.00291118 -2.90573e-18)
(-0.22578 0.00523967 -4.93245e-18)
(-0.225404 0.0134175 -4.85672e-18)
(-0.224827 0.0214157 -5.05653e-18)
(-0.224062 0.0290136 -3.47869e-18)
(-0.223133 0.0360019 -6.39057e-18)
(-0.222075 0.0421849 -2.19338e-18)
(-0.220927 0.047388 1.07413e-18)
(-0.21973 0.051463 -2.70139e-18)
(-0.218523 0.0542936 2.86404e-18)
(-0.225677 -0.0438498 -7.12948e-19)
(-0.225905 -0.0406916 -7.4773e-19)
(-0.22622 -0.0364814 -1.75799e-18)
(-0.226571 -0.0312887 -2.21057e-18)
(-0.226907 -0.025211 6.1258e-18)
(-0.227181 -0.0183762 2.52849e-19)
(-0.227343 -0.0109289 1.60171e-18)
(-0.227369 -0.00306456 -1.73763e-18)
(-0.227238 0.0050515 -3.96908e-18)
(-0.226921 0.0131981 -4.39683e-18)
(-0.226424 0.0211685 -4.4179e-18)
(-0.22576 0.0287456 -4.73154e-18)
(-0.22495 0.0357216 -6.13241e-18)
(-0.224027 0.0419021 -2.75294e-18)
(-0.223027 0.0471126 -9.32158e-19)
(-0.221987 0.0512046 -4.31901e-18)
(-0.220943 0.0540607 5.08985e-18)
(-0.227167 -0.0438723 -1.20452e-18)
(-0.227304 -0.040715 6.37299e-19)
(-0.227536 -0.0365132 -2.78963e-18)
(-0.227818 -0.0313364 -1.39641e-18)
(-0.2281 -0.0252813 4.68767e-18)
(-0.228339 -0.0184745 -6.01883e-19)
(-0.228487 -0.0110601 3.95996e-18)
(-0.228519 -0.00322867 -9.33103e-19)
(-0.228416 0.00485415 -3.84776e-18)
(-0.228151 0.012972 -4.62287e-18)
(-0.227727 0.0209178 -4.39778e-18)
(-0.227157 0.0284775 -2.84733e-18)
(-0.226459 0.035445 -6.85337e-18)
(-0.225664 0.0416267 -3.46765e-18)
(-0.224805 0.0468485 -2.72251e-18)
(-0.223915 0.0509613 -6.57747e-18)
(-0.223027 0.0538467 4.56787e-18)
(-0.228419 -0.0439104 -1.87774e-18)
(-0.228461 -0.0407531 -5.55695e-19)
(-0.228609 -0.0365585 -1.3651e-18)
(-0.228818 -0.0313956 -3.73337e-18)
(-0.229042 -0.0253609 4.42928e-18)
(-0.22924 -0.0185793 -1.91589e-18)
(-0.229368 -0.0111943 3.8816e-18)
(-0.229401 -0.00339132 -5.83138e-19)
(-0.229319 0.00466137 -8.77348e-19)
(-0.229098 0.0127524 -5.48679e-18)
(-0.22874 0.0206766 -1.48744e-18)
(-0.228257 0.028222 -1.50815e-18)
(-0.227664 0.0351837 -5.05689e-18)
(-0.22699 0.0413692 -4.53568e-18)
(-0.226264 0.0466043 -4.83457e-18)
(-0.225517 0.0507397 -9.72383e-18)
(-0.224779 0.0536554 1.76521e-18)
(-0.229434 -0.0439646 -2.99415e-18)
(-0.22938 -0.0408058 -1.91655e-18)
(-0.229439 -0.0366162 -1.89397e-19)
(-0.229572 -0.0314649 -3.83851e-18)
(-0.229735 -0.0254476 2.2092e-18)
(-0.229888 -0.0186878 -9.37684e-19)
(-0.22999 -0.0113286 1.40402e-18)
(-0.230018 -0.00355057 -7.24924e-19)
(-0.229952 0.00447565 -1.65065e-18)
(-0.229769 0.0125437 -7.45601e-18)
(-0.229469 0.0204497 1.47426e-18)
(-0.229064 0.0279836 -4.30236e-19)
(-0.228569 0.0349422 -7.88831e-18)
(-0.228008 0.0411335 -2.53765e-18)
(-0.227408 0.0463834 -3.85197e-18)
(-0.226797 0.0505421 -1.05737e-17)
(-0.2262 0.0534886 1.22649e-19)
(-0.230214 -0.0440353 -2.09491e-18)
(-0.230061 -0.0408736 -7.20446e-19)
(-0.230031 -0.0366871 1.10925e-18)
(-0.230084 -0.0315448 -1.67437e-18)
(-0.230181 -0.025542 5.27057e-19)
(-0.230285 -0.0188009 -1.91993e-19)
(-0.230357 -0.011464 -7.38584e-19)
(-0.230374 -0.00370753 -1.12212e-18)
(-0.230317 0.00429607 -2.77366e-18)
(-0.230165 0.0123446 -7.36415e-18)
(-0.229917 0.0202355 1.61862e-18)
(-0.229584 0.027761 4.40963e-19)
(-0.229178 0.0347189 -8.53316e-18)
(-0.228722 0.040918 -8.31163e-19)
(-0.22824 0.0461843 -1.69315e-19)
(-0.227757 0.0503673 -9.6212e-18)
(-0.227294 0.0533447 -7.77005e-19)
(-0.230759 -0.0441244 -1.3585e-18)
(-0.230507 -0.0409589 6.07454e-19)
(-0.230384 -0.0367743 2.76796e-18)
(-0.230355 -0.0316394 -2.8562e-18)
(-0.230384 -0.0256489 -1.0134e-18)
(-0.230434 -0.0189239 4.70022e-19)
(-0.230471 -0.0116061 -3.22646e-18)
(-0.230471 -0.00386717 -1.58248e-18)
(-0.230418 0.00411812 -1.06393e-18)
(-0.23029 0.0121483 -5.37117e-18)
(-0.230087 0.0200269 2.4e-18)
(-0.229818 0.0275468 1.0916e-18)
(-0.229494 0.0345067 -7.47009e-18)
(-0.229136 0.040716 1.21472e-18)
(-0.228764 0.0460006 3.23783e-18)
(-0.2284 0.0502094 -7.16167e-18)
(-0.228063 0.0532189 -1.17469e-18)
(-0.231072 -0.0442355 -6.96981e-19)
(-0.230719 -0.0410674 2.20671e-18)
(-0.230502 -0.0368852 2.28586e-18)
(-0.230388 -0.0317575 -4.83404e-18)
(-0.230345 -0.0257788 3.5673e-19)
(-0.230338 -0.0190686 1.38356e-18)
(-0.230334 -0.0117682 -3.29889e-18)
(-0.230313 -0.00404441 -2.2868e-18)
(-0.230258 0.00392497 5.27844e-19)
(-0.230149 0.0119395 -4.31861e-18)
(-0.229983 0.019809 7.25162e-19)
(-0.22977 0.0273269 1.74864e-18)
(-0.229521 0.0342924 -8.0403e-18)
(-0.229251 0.0405154 3.34324e-19)
(-0.228982 0.0458219 3.49721e-18)
(-0.228729 0.0500598 -6.7146e-18)
(-0.228508 0.0531044 -1.35735e-18)
(-0.231153 -0.0443582 -2.68079e-18)
(-0.230698 -0.0411852 4.64657e-18)
(-0.230385 -0.0370029 2.07772e-18)
(-0.230185 -0.0318796 -5.33078e-18)
(-0.230066 -0.0259096 2.14245e-18)
(-0.229998 -0.0192114 -3.02203e-19)
(-0.22995 -0.0119263 -1.39747e-18)
(-0.229902 -0.00422069 -3.1447e-18)
(-0.22984 0.00373095 2.23625e-18)
(-0.229742 0.0117446 -4.20098e-18)
(-0.229606 0.0196114 -3.79465e-19)
(-0.229443 0.0271315 2.56473e-18)
(-0.229259 0.0341057 -6.98893e-18)
(-0.229071 0.0403445 3.29681e-19)
(-0.228894 0.045674 8.91543e-19)
(-0.228744 0.0499414 -7.70734e-18)
(-0.228631 0.0530206 -1.31655e-18)
(-0.218675 0.0368207 -1.61374e-18)
(-0.217333 0.042998 -1.04035e-18)
(-0.215877 0.0481669 -2.46052e-18)
(-0.214355 0.0521808 -5.56391e-19)
(-0.212812 0.0549261 -3.64002e-19)
)
;

boundaryField
{
    inlet
    {
        type            uniformFixedValue;
        uniformValue    constant (1 0 0);
        value           nonuniform 0();
    }
    outlet
    {
        type            pressureInletOutletVelocity;
        value           nonuniform 0();
    }
    polygon
    {
        type            fixedValue;
        value           nonuniform 0();
    }
    top
    {
        type            symmetryPlane;
    }
    bottom
    {
        type            symmetryPlane;
    }
    outside
    {
        type            zeroGradient;
    }
    procBoundary36to28
    {
        type            processor;
        value           nonuniform List<vector> 
17
(
(-0.231004 -0.0444351 -2.72338e-18)
(-0.230447 -0.041234 5.62216e-18)
(-0.230037 -0.0370281 1.94157e-18)
(-0.229749 -0.0318865 -4.28124e-18)
(-0.229553 -0.0259036 1.97585e-18)
(-0.229421 -0.0191976 6.77469e-19)
(-0.229325 -0.0119101 4.4629e-19)
(-0.229246 -0.00420601 -1.68828e-18)
(-0.229168 0.00374022 1.65608e-18)
(-0.229074 0.0117535 -2.02086e-18)
(-0.228964 0.0196171 -1.30599e-18)
(-0.228842 0.027135 3.8276e-18)
(-0.228716 0.0341091 -4.33306e-18)
(-0.2286 0.0403507 7.97672e-19)
(-0.228508 0.0456858 -1.26747e-18)
(-0.22845 0.0499611 -6.83901e-18)
(-0.228435 0.0530497 -1.30155e-18)
)
;
    }
    procBoundary36to35
    {
        type            processor;
        value           nonuniform List<vector> 9((-0.217341 0.0558002 -5.42895e-18) (-0.219926 0.0555996 -6.60973e-18) (-0.222168 0.0554214 -5.45981e-18) (-0.224071 0.0552667 -5.82397e-18) (-0.225637 0.055136 -7.62157e-18) (-0.226867 0.055028 -7.16815e-18) (-0.227764 0.0549388 -4.7768e-18) (-0.228329 0.0548635 -3.3318e-18) (-0.228561 0.0548175 -2.65547e-18));
    }
    procBoundary36to37
    {
        type            processor;
        value           nonuniform List<vector> 10((-0.221685 -0.0459123 3.80837e-19) (-0.223754 -0.0459011 -9.52952e-20) (-0.225581 -0.0459144 -7.06096e-19) (-0.22717 -0.0459434 -1.63674e-18) (-0.228522 -0.0459883 -4.03646e-19) (-0.229639 -0.0460504 -1.74741e-18) (-0.230522 -0.0461299 -3.23737e-18) (-0.231172 -0.0462279 -2.93491e-18) (-0.231589 -0.0463466 -4.59417e-19) (-0.231776 -0.0464784 -2.51958e-19));
    }
    procBoundary36to43
    {
        type            processor;
        value           nonuniform List<vector> 2((-0.214414 0.0560347 -5.64036e-18) (-0.211288 0.0563275 -3.23477e-18));
    }
    procBoundary36to44
    {
        type            processor;
        value           nonuniform List<vector> 
18
(
(-0.219884 -0.0438828 4.13684e-19)
(-0.220363 -0.0406905 -4.82941e-19)
(-0.220896 -0.0364197 -8.71216e-19)
(-0.221425 -0.0311417 -3.73303e-18)
(-0.221888 -0.0249564 2.17559e-18)
(-0.222233 -0.0179976 2.14417e-18)
(-0.2224 -0.0104146 2.13203e-18)
(-0.222368 -0.00242598 -4.00742e-18)
(-0.222115 0.00582274 -1.43286e-18)
(-0.221602 0.0140938 -5.10125e-18)
(-0.220845 0.0221637 -4.9192e-18)
(-0.219859 0.0298101 -1.80432e-18)
(-0.216167 0.0374478 -1.51327e-18)
(-0.214676 0.0435932 -5.38869e-19)
(-0.21306 0.0487108 -2.73696e-18)
(-0.211369 0.0526554 5.02078e-19)
(-0.209652 0.0553159 -2.08135e-20)
(-0.219859 0.0298101 -1.80432e-18)
)
;
    }
}


// ************************************************************************* //
