/*--------------------------------*- C++ -*----------------------------------*\
  =========                 |
  \\      /  F ield         | OpenFOAM: The Open Source CFD Toolbox
   \\    /   O peration     | Website:  https://openfoam.org
    \\  /    A nd           | Version:  7
     \\/     M anipulation  |
\*---------------------------------------------------------------------------*/
FoamFile
{
    version     2.0;
    format      ascii;
    class       volVectorField;
    location    "15";
    object      U;
}
// * * * * * * * * * * * * * * * * * * * * * * * * * * * * * * * * * * * * * //

dimensions      [0 1 -1 0 0 0 0];

internalField   nonuniform List<vector> 
50
(
(1.11052 -0.10274 5.87576e-17)
(1.08977 -0.143555 4.45321e-17)
(1.07163 -0.156103 2.8187e-17)
(1.04405 -0.186464 3.89212e-17)
(1.01316 -0.202686 1.91436e-17)
(1.06845 -0.0536686 -4.44804e-17)
(1.0542 -0.0749498 2.13225e-17)
(1.04123 -0.0798374 -3.11913e-17)
(1.02423 -0.0920273 -1.22036e-17)
(1.00632 -0.0983673 -1.93275e-17)
(1.03592 -0.0416336 9.35541e-18)
(1.02483 -0.0562152 1.91035e-17)
(1.01422 -0.0574773 4.29908e-18)
(0.9992 -0.0636468 -1.74061e-17)
(0.982477 -0.0619276 -1.13598e-17)
(1.022 -0.0151305 -4.61163e-18)
(1.01694 -0.0226831 -7.31471e-19)
(1.01352 -0.0237755 -1.33399e-18)
(1.0096 -0.0271498 -1.14727e-17)
(1.00667 -0.0281425 -1.01246e-17)
(1.00998 -0.015063 -1.59844e-17)
(1.00523 -0.0191567 1.54823e-17)
(1.00034 -0.0188186 1.02021e-18)
(0.9933 -0.0198914 1.48887e-18)
(0.985411 -0.0182889 9.53208e-19)
(1.00728 -0.00381342 2.49262e-18)
(1.00642 -0.00655852 -2.86672e-18)
(1.00674 -0.00712173 -5.50868e-19)
(1.00759 -0.00842441 -2.92454e-18)
(1.00933 -0.00881282 -3.57629e-18)
(1.00142 -0.00668658 -4.66153e-19)
(0.999377 -0.00759367 3.54332e-19)
(0.996744 -0.00724745 -8.23515e-19)
(0.99296 -0.00716982 -1.42681e-17)
(0.988537 -0.00631476 -1.36319e-17)
(1.00281 0.000582666 2.59277e-19)
(1.0034 -0.000422433 7.64781e-20)
(1.00489 -0.000619865 3.36008e-19)
(1.00716 -0.00124256 2.46433e-18)
(1.01012 -0.00143336 1.98816e-18)
(0.999336 -0.00179695 1.90066e-19)
(0.998269 -0.00172996 -1.11674e-19)
(0.996537 -0.00149601 -2.07007e-19)
(0.993907 -0.00124073 -5.46041e-19)
(0.990651 -0.000890596 5.31227e-20)
(1.0016 0.00040917 -1.00904e-19)
(1.00259 -4.43272e-05 -1.2803e-20)
(1.00413 -0.000199203 -1.59588e-19)
(1.00642 -0.000551878 8.98334e-20)
(1.00919 -0.000716003 1.34848e-19)
)
;

boundaryField
{
    inlet
    {
        type            uniformFixedValue;
        uniformValue    constant (1 0 0);
        value           uniform (1 0 0);
    }
    outlet
    {
        type            pressureInletOutletVelocity;
        value           nonuniform 0();
    }
    polygon
    {
        type            fixedValue;
        value           nonuniform 0();
    }
    top
    {
        type            symmetryPlane;
    }
    bottom
    {
        type            symmetryPlane;
    }
    outside
    {
        type            zeroGradient;
    }
    procBoundary0to1
    {
        type            processor;
        value           nonuniform List<vector> 4((1.15375 -0.122037 -6.76638e-18) (1.1358 -0.164315 -7.55524e-17) (1.12045 -0.179437 3.31688e-17) (1.09151 -0.215226 -3.48382e-18));
    }
    procBoundary0to4
    {
        type            processor;
        value           nonuniform List<vector> 10((0.968686 -0.222268 -1.19142e-18) (0.986254 -0.101452 2.01404e-18) (0.962851 -0.0607091 1.01487e-17) (1.00456 -0.0270929 7.41546e-18) (0.976362 -0.0171266 -2.67253e-18) (1.01187 -0.0084669 -1.20687e-17) (0.983501 -0.00561068 -1.53486e-18) (1.01366 -0.00154411 -1.23311e-17) (0.986833 -0.000643839 1.81439e-18) (1.01241 -0.000856921 -4.28364e-19));
    }
    procBoundary0to5
    {
        type            processor;
        value           uniform (1.06101 -0.245149 9.28631e-18);
    }
}


// ************************************************************************* //
