/*--------------------------------*- C++ -*----------------------------------*\
  =========                 |
  \\      /  F ield         | OpenFOAM: The Open Source CFD Toolbox
   \\    /   O peration     | Website:  https://openfoam.org
    \\  /    A nd           | Version:  7
     \\/     M anipulation  |
\*---------------------------------------------------------------------------*/
FoamFile
{
    version     2.0;
    format      ascii;
    class       volVectorField;
    location    "10";
    object      U;
}
// * * * * * * * * * * * * * * * * * * * * * * * * * * * * * * * * * * * * * //

dimensions      [0 1 -1 0 0 0 0];

internalField   nonuniform List<vector> 
225
(
(1.08505 -0.0029182 -5.59012e-20)
(1.01316 -0.00444781 5.52064e-21)
(0.976485 -0.0061199 8.8058e-20)
(0.862416 -0.00623589 -1.83701e-18)
(0.8252 -0.00875532 1.36138e-18)
(0.646609 -0.00695455 -2.86424e-18)
(0.657689 -0.0110835 -4.7972e-18)
(0.371841 -0.00608426 6.46856e-18)
(0.510858 -0.00743218 7.74937e-18)
(1.08489 -0.00261381 -1.19101e-19)
(1.01278 -0.00398473 5.51773e-20)
(0.975906 -0.00548307 3.39931e-20)
(0.861477 -0.00558829 -1.72838e-18)
(0.82389 -0.00784602 1.55603e-18)
(0.644769 -0.00623334 -3.28279e-18)
(0.655456 -0.00993001 -4.26225e-18)
(0.369111 -0.00544734 5.589e-18)
(0.508255 -0.0065587 6.96873e-18)
(1.08475 -0.00230836 -1.20618e-19)
(1.01244 -0.00352014 1.14349e-19)
(0.975388 -0.00484301 -1.23191e-19)
(0.860639 -0.00493832 -2.36338e-18)
(0.822719 -0.00693067 1.83047e-18)
(0.643126 -0.00550995 -2.83666e-18)
(0.653462 -0.00876881 -3.90513e-18)
(0.36668 -0.00481258 6.36041e-18)
(0.505953 -0.0057134 8.2837e-18)
(1.08463 -0.00200214 -1.28327e-19)
(1.01215 -0.00305398 1.62793e-19)
(0.974934 -0.00420108 -1.61552e-19)
(0.859902 -0.00428558 -1.79638e-18)
(0.821691 -0.0060125 1.84383e-18)
(0.641683 -0.00478294 -2.46792e-18)
(0.65171 -0.00760519 -3.83427e-18)
(0.36455 -0.00417575 5.85694e-18)
(0.503948 -0.00489472 7.86469e-18)
(1.08452 -0.00169525 -1.42904e-19)
(1.01189 -0.00258648 2.27334e-19)
(0.974544 -0.00355751 -2.02125e-19)
(0.859268 -0.00363049 -1.34094e-18)
(0.820806 -0.00509182 1.96351e-18)
(0.640442 -0.00405284 -2.15474e-18)
(0.650203 -0.00643932 -3.78639e-18)
(0.362721 -0.00353728 6.89003e-18)
(0.502236 -0.00409996 6.2268e-18)
(1.08443 -0.00138777 -1.00737e-19)
(1.01168 -0.00211786 3.18246e-19)
(0.974217 -0.00291244 -1.3226e-19)
(0.858739 -0.00297344 -9.32417e-19)
(0.820066 -0.00416873 2.11279e-18)
(0.639404 -0.00332029 -1.84658e-18)
(0.648944 -0.00527107 -4.00988e-18)
(0.361195 -0.00289778 6.8862e-18)
(0.500815 -0.0033257 4.70495e-18)
(1.08436 -0.0010798 -6.47434e-20)
(1.01151 -0.00164832 4.23319e-19)
(0.973955 -0.00226612 -6.55516e-20)
(0.858314 -0.00231482 -5.48343e-19)
(0.819472 -0.00324361 1.98225e-18)
(0.638572 -0.00258579 -1.58475e-18)
(0.647933 -0.00410077 -4.31447e-18)
(0.359973 -0.0022575 5.82266e-18)
(0.49968 -0.00256848 5.16248e-18)
(1.0843 -0.000771426 -2.88718e-20)
(1.01138 -0.00117809 5.44598e-19)
(0.973759 -0.0016187 -1.14254e-19)
(0.857995 -0.00165508 -2.22839e-19)
(0.819026 -0.0023167 1.90108e-18)
(0.637947 -0.00185006 -3.68979e-19)
(0.647174 -0.00292866 -4.02567e-18)
(0.359056 -0.00161707 3.62344e-18)
(0.498831 -0.00182486 7.79996e-18)
(1.08426 -0.000462738 3.63221e-21)
(1.01129 -0.000707385 6.65753e-19)
(0.973628 -0.000970428 -4.58791e-20)
(0.857781 -0.000994595 9.08686e-20)
(0.818729 -0.00138834 1.97242e-18)
(0.63753 -0.0011136 9.21139e-19)
(0.646668 -0.00175495 -2.93984e-18)
(0.358444 -0.000976934 1.43152e-18)
(0.498265 -0.00109119 1.06445e-17)
(1.08425 -0.000154056 2.77023e-20)
(1.01125 -0.000236102 5.81723e-19)
(0.973562 -0.000322496 2.1758e-20)
(0.857675 -0.000332568 4.51598e-19)
(0.81858 -0.000460654 1.74318e-18)
(0.637321 -0.000373897 3.28467e-18)
(0.646414 -0.000581934 -2.03301e-18)
(0.358138 -0.000331584 -5.55992e-19)
(0.497983 -0.000362764 1.38149e-17)
(1.08743 -0.00578684 9.2393e-20)
(1.01877 -0.00878761 3.94858e-19)
(0.985044 -0.0120943 -1.03448e-18)
(0.876296 -0.0122665 -1.22154e-18)
(0.84456 -0.0172523 -1.09205e-18)
(0.673979 -0.0136391 3.64966e-18)
(0.69103 -0.0219108 -3.35841e-18)
(0.413695 -0.0120376 1.41082e-17)
(0.552957 -0.0181907 1.25227e-17)
(1.08713 -0.00550717 1.16363e-19)
(1.01806 -0.00836704 3.38406e-19)
(0.983967 -0.0115151 -9.84373e-19)
(0.874551 -0.0116866 -7.42124e-19)
(0.842133 -0.0164329 -9.08247e-19)
(0.670538 -0.013001 3.22178e-18)
(0.686841 -0.0208637 -4.60747e-18)
(0.408345 -0.0114646 1.20971e-17)
(0.547392 -0.0169162 1.20184e-17)
(1.08684 -0.0052257 1.50424e-19)
(1.01738 -0.00794341 3.0189e-19)
(0.982935 -0.0109307 -9.69176e-19)
(0.872881 -0.0111014 -2.60528e-19)
(0.839807 -0.0156037 -4.50155e-19)
(0.667243 -0.0123559 2.86725e-18)
(0.682827 -0.0198027 -5.36962e-18)
(0.403244 -0.0108871 1.04987e-17)
(0.542132 -0.0156829 1.2083e-17)
(1.08657 -0.00494266 1.82885e-19)
(1.01673 -0.0075167 2.81219e-19)
(0.981951 -0.0103424 -7.77061e-19)
(0.871286 -0.0105107 -3.90917e-19)
(0.837585 -0.0147685 -3.20796e-19)
(0.664097 -0.0117036 1.70834e-18)
(0.678996 -0.0187357 -6.21762e-18)
(0.398395 -0.010304 9.12408e-18)
(0.537176 -0.0144985 1.25229e-17)
(1.08631 -0.00465811 2.22201e-19)
(1.01612 -0.0070871 2.82776e-19)
(0.981016 -0.00975049 -5.90111e-19)
(0.86977 -0.00991513 -5.76909e-19)
(0.83547 -0.0139275 -2.1681e-19)
(0.661106 -0.011045 5.75401e-19)
(0.675352 -0.0176625 -7.26521e-18)
(0.393804 -0.00971645 8.2489e-18)
(0.532523 -0.0133626 1.15366e-17)
(1.08606 -0.00437212 2.13937e-19)
(1.01554 -0.00665477 2.86164e-19)
(0.98013 -0.00915486 -4.30296e-19)
(0.868334 -0.00931482 -7.85403e-19)
(0.833467 -0.0130803 -1.41634e-19)
(0.658273 -0.0103803 -5.91803e-19)
(0.671901 -0.0165826 -7.80809e-18)
(0.389474 -0.00912489 7.48567e-18)
(0.528172 -0.0122727 9.15885e-18)
(1.08583 -0.00408476 1.53227e-19)
(1.015 -0.00621987 7.73132e-20)
(0.979296 -0.00855573 -2.88214e-19)
(0.866981 -0.00871007 -1.0299e-18)
(0.831578 -0.0122275 -4.11519e-20)
(0.655604 -0.00970987 -1.76886e-18)
(0.668648 -0.0154964 -7.86429e-18)
(0.385409 -0.00852978 6.95554e-18)
(0.52412 -0.0112269 6.69159e-18)
(1.08562 -0.00379608 9.79955e-20)
(1.01448 -0.00578258 1.01129e-19)
(0.978515 -0.00795323 -1.48638e-19)
(0.865712 -0.00810131 -1.27908e-18)
(0.829806 -0.0113692 4.87473e-20)
(0.653101 -0.00903461 -1.91539e-18)
(0.665598 -0.0144044 -7.37375e-18)
(0.381612 -0.00793243 6.42875e-18)
(0.520366 -0.0102237 6.53388e-18)
(1.08541 -0.00350614 4.44886e-20)
(1.01401 -0.00534306 1.71872e-19)
(0.977787 -0.00734746 -1.26406e-20)
(0.86453 -0.00748881 -1.6164e-18)
(0.828154 -0.0105055 4.73951e-19)
(0.65077 -0.00835495 -2.13957e-18)
(0.662756 -0.0133068 -6.35416e-18)
(0.378086 -0.00733383 6.17215e-18)
(0.516907 -0.00926028 6.78324e-18)
(1.08523 -0.00321525 -6.29238e-21)
(1.01357 -0.00490114 -4.9486e-20)
(0.977114 -0.00673933 3.74929e-20)
(0.863437 -0.00687133 -1.96817e-18)
(0.826625 -0.00963742 9.05713e-19)
(0.648612 -0.00766702 -2.47616e-18)
(0.660125 -0.0122028 -5.50278e-18)
(0.374834 -0.00672552 6.25239e-18)
(0.51374 -0.00833107 7.07761e-18)
(0.591289 -0.0265337 1.15779e-17)
(1.02244 -0.0107005 -4.04975e-20)
(0.990635 -0.0147287 -8.83456e-19)
(0.885375 -0.014893 -2.6184e-18)
(0.857237 -0.020963 -2.11527e-18)
(0.69214 -0.0165213 2.77855e-18)
(0.713311 -0.0266581 3.23021e-19)
(0.442853 -0.0146246 1.48286e-17)
(0.584291 -0.025026 1.21836e-17)
(1.08867 -0.00681363 4.53154e-21)
(1.02167 -0.0103276 8.28588e-20)
(0.989458 -0.0142142 -9.2679e-19)
(0.883465 -0.0143835 -2.98913e-18)
(0.854572 -0.0202404 -1.9644e-18)
(0.688314 -0.0159658 3.64566e-18)
(0.708616 -0.0257334 -1.13003e-18)
(0.436644 -0.0141286 1.54451e-17)
(0.577532 -0.0235683 1.31465e-17)
(1.08835 -0.0065619 2.68547e-20)
(1.02091 -0.00995142 1.98536e-19)
(0.988313 -0.0136952 -9.88882e-19)
(0.881605 -0.0138687 -2.8561e-18)
(0.851977 -0.0195106 -1.88343e-18)
(0.684588 -0.0154034 4.58406e-18)
(0.704043 -0.0248 -1.90222e-18)
(0.430626 -0.0136268 1.53306e-17)
(0.571019 -0.0221614 1.29522e-17)
(1.08804 -0.00630845 4.33466e-20)
(1.02018 -0.00957221 3.19236e-19)
(0.987201 -0.0131719 -1.07754e-18)
(0.879799 -0.0133487 -2.26474e-18)
(0.849452 -0.0187733 -1.57663e-18)
(0.680969 -0.0148347 4.82371e-18)
(0.699598 -0.0238577 -2.01896e-18)
(0.424803 -0.0131209 1.57397e-17)
(0.564755 -0.0208039 1.28767e-17)
(1.08774 -0.0060535 6.75817e-20)
(1.01948 -0.00918971 4.72492e-19)
(0.986125 -0.0126444 -1.0929e-18)
(0.878048 -0.012822 -1.70961e-18)
(0.847003 -0.0180278 -1.30713e-18)
(0.67746 -0.0142549 4.15105e-18)
(0.695286 -0.0229022 -2.17139e-18)
(0.419182 -0.0126016 1.53327e-17)
(0.558745 -0.0194851 1.16248e-17)
)
;

boundaryField
{
    inlet
    {
        type            uniformFixedValue;
        uniformValue    constant (1 0 0);
        value           nonuniform 0();
    }
    outlet
    {
        type            pressureInletOutletVelocity;
        value           nonuniform List<vector> 
24
(
(1.08505 -0.0029182 -5.59012e-20)
(1.08489 -0.00261381 -1.19101e-19)
(1.08475 -0.00230836 -1.20618e-19)
(1.08463 -0.00200214 -1.28327e-19)
(1.08452 -0.00169525 -1.42904e-19)
(1.08443 -0.00138777 -1.00737e-19)
(1.08436 -0.0010798 -6.47434e-20)
(1.0843 -0.000771426 -2.88718e-20)
(1.08426 -0.000462738 3.63221e-21)
(1.08425 -0.000154056 2.77023e-20)
(1.08743 -0.00578684 9.2393e-20)
(1.08713 -0.00550717 1.16363e-19)
(1.08684 -0.0052257 1.50424e-19)
(1.08657 -0.00494266 1.82885e-19)
(1.08631 -0.00465811 2.22201e-19)
(1.08606 -0.00437212 2.13937e-19)
(1.08583 -0.00408476 1.53227e-19)
(1.08562 -0.00379608 9.79955e-20)
(1.08541 -0.00350614 4.44886e-20)
(1.08523 -0.00321525 -6.29238e-21)
(1.08867 -0.00681363 4.53154e-21)
(1.08835 -0.0065619 2.68547e-20)
(1.08804 -0.00630845 4.33466e-20)
(1.08774 -0.0060535 6.75817e-20)
)
;
    }
    polygon
    {
        type            fixedValue;
        value           nonuniform 0();
    }
    top
    {
        type            symmetryPlane;
    }
    bottom
    {
        type            symmetryPlane;
    }
    outside
    {
        type            zeroGradient;
    }
    procBoundary11to7
    {
        type            processor;
        value           nonuniform List<vector> 9((1.08425 0.000154067 5.45648e-20) (1.01125 0.000236111 5.15824e-19) (0.973562 0.000322498 -2.0398e-20) (0.857675 0.00033256 1.32768e-19) (0.81858 0.000460639 1.56872e-18) (0.637321 0.000373878 4.63104e-18) (0.646414 0.000581921 -1.97824e-18) (0.358138 0.000331581 -2.43694e-18) (0.497983 0.000362759 1.5762e-17));
    }
    procBoundary11to10
    {
        type            processor;
        value           nonuniform List<vector> 
26
(
(0.1604 -0.027262 -2.52671e-18)
(0.164947 -0.024437 -1.84624e-18)
(0.169076 -0.0215779 -1.6629e-19)
(0.172758 -0.0187159 1.55023e-18)
(0.175966 -0.015849 3.34928e-18)
(0.178676 -0.0129745 4.3285e-18)
(0.18087 -0.010093 3.69139e-18)
(0.182529 -0.00720448 3.19667e-18)
(0.183642 -0.00430875 1.83248e-18)
(0.1842 -0.00141783 1.51696e-18)
(0.100242 -0.0535504 -2.87426e-18)
(0.106947 -0.050995 -3.57108e-18)
(0.113592 -0.0483963 -4.27922e-18)
(0.120142 -0.0457976 -5.19233e-18)
(0.126562 -0.0431922 -5.50349e-18)
(0.132818 -0.0405735 -5.02527e-18)
(0.138875 -0.0379409 -4.64521e-18)
(0.144697 -0.035295 -3.42025e-18)
(0.15025 -0.0326354 -3.32592e-18)
(0.1555 -0.0299559 -3.32487e-18)
(0.0608188 -0.0672444 1.12184e-18)
(0.0671992 -0.0649967 8.48005e-19)
(0.0736855 -0.0627411 5.16375e-19)
(0.0802571 -0.0604803 2.09654e-19)
(0.0868919 -0.0582141 -1.01617e-18)
(0.0935665 -0.0559163 -2.34256e-18)
)
;
    }
    procBoundary11to15
    {
        type            processor;
        value           nonuniform List<vector> 
11
(
(0.598521 -0.0280917 1.15155e-17)
(1.02324 -0.0110702 -1.77593e-19)
(0.991842 -0.0152388 -8.53592e-19)
(0.887334 -0.0153968 -2.36434e-18)
(0.859966 -0.0216781 -1.78218e-18)
(0.696064 -0.0170691 1.96405e-18)
(0.718122 -0.0275731 1.83233e-18)
(0.449246 -0.0151135 1.45851e-17)
(0.449246 -0.0151135 1.45851e-17)
(1.089 -0.00706361 -1.72184e-20)
(1.089 -0.00706361 -1.72184e-20)
)
;
    }
}


// ************************************************************************* //
