/*--------------------------------*- C++ -*----------------------------------*\
  =========                 |
  \\      /  F ield         | OpenFOAM: The Open Source CFD Toolbox
   \\    /   O peration     | Website:  https://openfoam.org
    \\  /    A nd           | Version:  7
     \\/     M anipulation  |
\*---------------------------------------------------------------------------*/
FoamFile
{
    version     2.0;
    format      ascii;
    class       volVectorField;
    location    "26";
    object      U;
}
// * * * * * * * * * * * * * * * * * * * * * * * * * * * * * * * * * * * * * //

dimensions      [0 1 -1 0 0 0 0];

internalField   nonuniform List<vector> 
175
(
(0.603902 -0.417766 -2.38574e-19)
(0.59319 -0.431188 -6.47346e-18)
(0.583572 -0.443343 -1.59252e-17)
(0.575406 -0.453826 -2.73436e-17)
(0.569086 -0.462214 -2.40213e-18)
(0.565148 -0.468094 -1.98265e-17)
(0.564595 -0.471258 1.56308e-17)
(0.568506 -0.471777 5.215e-18)
(0.576793 -0.469316 7.38382e-18)
(0.589314 -0.462699 4.92629e-18)
(0.606745 -0.45116 3.5985e-18)
(0.629622 -0.434267 1.59151e-18)
(0.658423 -0.411666 1.87009e-19)
(0.69354 -0.383281 -1.25586e-18)
(0.735139 -0.349146 -1.8156e-18)
(0.783105 -0.309461 -8.91358e-19)
(0.836345 -0.264799 1.59754e-18)
(0.892429 -0.215956 5.66553e-18)
(0.60296 -0.409367 -7.78369e-18)
(0.592052 -0.423718 -2.14189e-17)
(0.582242 -0.437038 -8.96942e-18)
(0.573902 -0.448963 -1.46902e-17)
(0.567454 -0.459114 -3.59482e-18)
(0.563383 -0.467099 -1.50667e-17)
(0.562429 -0.472681 -1.14867e-17)
(0.565456 -0.476003 -1.63709e-17)
(0.572581 -0.476947 -1.25147e-17)
(0.583853 -0.474425 -1.24285e-17)
(0.599922 -0.467778 -1.04933e-17)
(0.621352 -0.456659 -7.87959e-18)
(0.648651 -0.440709 -3.99165e-18)
(0.682336 -0.419628 1.5493e-18)
(0.722675 -0.393091 9.20084e-18)
(0.769265 -0.360585 1.94481e-17)
(0.820275 -0.321565 3.20492e-17)
(0.872355 -0.275748 4.6048e-17)
(0.601258 -0.400125 1.02771e-17)
(0.589874 -0.415175 -1.2186e-17)
(0.57954 -0.429481 1.77748e-19)
(0.570629 -0.442749 1.08202e-17)
(0.563573 -0.454701 -2.86739e-18)
(0.558855 -0.465053 8.63352e-18)
(0.557042 -0.473519 -9.86168e-18)
(0.558759 -0.47995 -8.65155e-18)
(0.564275 -0.484064 -7.12503e-18)
(0.573828 -0.484905 -6.68345e-18)
(0.588053 -0.48186 -5.36309e-18)
(0.6076 -0.474578 -3.56183e-18)
(0.633122 -0.462605 -9.85324e-19)
(0.665108 -0.445317 2.72066e-18)
(0.703435 -0.421827 7.51832e-18)
(0.746918 -0.390768 1.28052e-17)
(0.792724 -0.350758 1.83897e-17)
(0.836978 -0.301341 2.30571e-17)
(0.598854 -0.391514 2.67177e-18)
(0.586764 -0.407137 1.05717e-18)
(0.575639 -0.42225 2.05688e-17)
(0.565833 -0.436612 4.2737e-18)
(0.557766 -0.450004 1.5972e-17)
(0.551902 -0.462215 -2.84841e-18)
(0.548737 -0.472993 -5.33445e-18)
(0.54876 -0.482014 -4.78936e-18)
(0.552281 -0.488824 -4.05599e-18)
(0.559654 -0.492634 -3.772e-18)
(0.571517 -0.492901 -2.62131e-18)
(0.588532 -0.489281 -1.52864e-18)
(0.61129 -0.481264 1.3685e-19)
(0.640048 -0.468029 2.30212e-18)
(0.67415 -0.448042 5.24609e-18)
(0.711579 -0.419055 7.92144e-18)
(0.749058 -0.379142 9.88221e-18)
(0.783384 -0.328279 1.15052e-17)
(0.595709 -0.382641 2.13983e-17)
(0.582713 -0.398803 1.47577e-18)
(0.570568 -0.414665 1.59931e-17)
(0.559606 -0.430024 2.20529e-17)
(0.550209 -0.444692 8.19177e-18)
(0.542801 -0.458486 1.41501e-17)
(0.537819 -0.471173 -5.60767e-18)
(0.535682 -0.482402 -2.19647e-18)
(0.536719 -0.491672 -2.10071e-18)
(0.541331 -0.498322 -2.25491e-18)
(0.550135 -0.50188 -1.45593e-18)
(0.563729 -0.501971 -6.5772e-19)
(0.582528 -0.497892 3.23337e-19)
(0.606475 -0.488328 1.64419e-18)
(0.634496 -0.470967 3.19926e-18)
(0.664285 -0.442793 4.73143e-18)
(0.692891 -0.401606 5.39717e-18)
(0.718239 -0.348149 5.15545e-18)
(0.591809 -0.372979 5.28007e-18)
(0.577714 -0.389616 3.91668e-18)
(0.564327 -0.406156 1.26628e-17)
(0.551953 -0.422429 1.27362e-17)
(0.54093 -0.438272 4.8634e-18)
(0.531625 -0.453505 6.78394e-18)
(0.524413 -0.467891 -5.42342e-18)
(0.519659 -0.481082 -1.13463e-18)
(0.517702 -0.492602 -1.7419e-18)
(0.518951 -0.501888 -1.32963e-18)
(0.523962 -0.508499 -9.47018e-19)
(0.533227 -0.511964 -1.22473e-19)
(0.546964 -0.511278 9.31699e-19)
(0.564854 -0.504534 2.10002e-18)
(0.585636 -0.488721 3.10356e-18)
(0.607164 -0.460416 4.07831e-18)
(0.627249 -0.417727 3.24127e-18)
(0.644924 -0.362465 3.55778e-18)
(0.587176 -0.362447 2.66935e-18)
(0.571799 -0.379452 2.28788e-18)
(0.556957 -0.396547 -1.89637e-18)
(0.542921 -0.413592 -1.67117e-17)
(0.529982 -0.430442 5.48492e-19)
(0.518451 -0.446921 -1.6272e-17)
(0.508639 -0.462784 4.6614e-18)
(0.500861 -0.477686 2.92281e-18)
(0.495443 -0.491183 2.06577e-18)
(0.492774 -0.502783 1.68481e-18)
(0.493319 -0.512039 7.74471e-19)
(0.49744 -0.518327 -3.60613e-19)
(0.505194 -0.520324 -1.47972e-18)
(0.516128 -0.515614 -2.69309e-18)
(0.529048 -0.500713 -4.54701e-18)
(0.54229 -0.47211 -5.42571e-18)
(0.554558 -0.428441 -6.49523e-18)
(0.56573 -0.372431 -4.45174e-18)
(0.581849 -0.351008 -6.11939e-18)
(0.565024 -0.368253 -2.1477e-17)
(0.548533 -0.385751 2.31127e-18)
(0.532607 -0.403384 -5.98497e-18)
(0.517489 -0.42102 -2.33605e-18)
(0.503433 -0.438488 -1.1662e-17)
(0.490695 -0.455543 -2.40201e-17)
(0.479539 -0.471846 -1.93426e-17)
(0.470256 -0.486984 -1.64653e-17)
(0.463186 -0.500505 -1.17971e-17)
(0.458692 -0.51192 -6.58833e-18)
(0.457009 -0.520441 -1.70391e-19)
(0.458093 -0.524459 7.46369e-18)
(0.461507 -0.521199 1.64844e-17)
(0.466338 -0.506949 2.68636e-17)
(0.471569 -0.47832 3.79766e-17)
(0.476737 -0.434463 5.04003e-17)
(0.482245 -0.378684 6.5875e-17)
(0.575869 -0.338568 -3.32338e-18)
(0.557451 -0.355914 -9.36618e-18)
(0.539144 -0.373649 -8.14883e-18)
(0.521134 -0.391667 -3.00368e-17)
(0.503613 -0.409848 -5.45892e-18)
(0.486783 -0.428022 -2.9827e-17)
(0.470845 -0.445949 -5.73743e-18)
(0.456016 -0.463306 -6.78854e-18)
(0.442537 -0.479703 -5.25077e-18)
(0.430681 -0.494701 -3.40179e-18)
(0.420707 -0.507756 -1.43623e-18)
(0.412749 -0.517924 6.74959e-19)
(0.406738 -0.523388 3.34569e-18)
(0.402368 -0.52118 6.78395e-18)
(0.399132 -0.507568 1.08451e-17)
(0.396697 -0.479405 1.40302e-17)
(0.395293 -0.436229 2.04817e-17)
(0.395606 -0.38157 2.52661e-17)
(0.569284 -0.325028 -7.39018e-18)
(0.549154 -0.342323 -3.11398e-17)
(0.528891 -0.360113 -1.82734e-18)
(0.508638 -0.378303 -1.24419e-17)
(0.488538 -0.396776 -6.25274e-18)
(0.468741 -0.415366 -1.99243e-17)
(0.449399 -0.433838 -3.26124e-17)
(0.430677 -0.451884 -2.84623e-17)
(0.412762 -0.469131 -2.29469e-17)
(0.395853 -0.485137 -1.71092e-17)
(0.380117 -0.499297 -9.92511e-18)
(0.365625 -0.510553 -1.45798e-18)
(0.35234 -0.516973 8.73399e-18)
)
;

boundaryField
{
    inlet
    {
        type            uniformFixedValue;
        uniformValue    constant (1 0 0);
        value           nonuniform 0();
    }
    outlet
    {
        type            pressureInletOutletVelocity;
        value           nonuniform 0();
    }
    polygon
    {
        type            fixedValue;
        value           nonuniform 0();
    }
    top
    {
        type            symmetryPlane;
    }
    bottom
    {
        type            symmetryPlane;
    }
    outside
    {
        type            zeroGradient;
    }
    procBoundary62to54
    {
        type            processor;
        value           nonuniform List<vector> 
19
(
(0.340157 -0.515561 2.08897e-17)
(0.329012 -0.502727 3.43956e-17)
(0.319199 -0.475603 4.88412e-17)
(0.311501 -0.433956 6.55967e-17)
(0.306762 -0.381216 8.03146e-17)
(0.562148 -0.310312 -5.13759e-18)
(0.540213 -0.327392 -1.41069e-17)
(0.517888 -0.345045 -1.06615e-17)
(0.495275 -0.363182 -3.60347e-17)
(0.47247 -0.381689 -8.46807e-18)
(0.449577 -0.4004 -3.69117e-17)
(0.426698 -0.419087 -9.55135e-18)
(0.403951 -0.437454 -1.05828e-17)
(0.381466 -0.455135 -8.9598e-18)
(0.359372 -0.471677 -6.49533e-18)
(0.337768 -0.486425 -3.05687e-18)
(0.316691 -0.498254 4.35419e-19)
(0.340157 -0.515561 2.08897e-17)
(0.296175 -0.50522 4.69596e-18)
)
;
    }
    procBoundary62to61
    {
        type            processor;
        value           nonuniform List<vector> 9((0.948707 -0.164101 1.09634e-17) (0.922115 -0.223898 5.92246e-17) (0.876929 -0.244208 2.61216e-17) (0.81334 -0.269485 1.25001e-17) (0.740466 -0.286782 3.57799e-18) (0.661053 -0.30006 1.11738e-18) (0.57687 -0.310091 -3.1173e-18) (0.489009 -0.317162 7.91881e-17) (0.398249 -0.321461 3.29939e-17));
    }
    procBoundary62to63
    {
        type            processor;
        value           nonuniform List<vector> 10((0.615419 -0.403443 -7.65649e-18) (0.614671 -0.394319 -7.95498e-18) (0.613402 -0.384607 -1.42276e-19) (0.61163 -0.37561 5.98188e-19) (0.609292 -0.366371 6.63109e-18) (0.606368 -0.356403 2.17797e-17) (0.602871 -0.34566 3.38978e-18) (0.598823 -0.334117 -2.96741e-18) (0.594246 -0.321692 -7.05072e-18) (0.589169 -0.308296 -2.78789e-17));
    }
}


// ************************************************************************* //
