/*--------------------------------*- C++ -*----------------------------------*\
  =========                 |
  \\      /  F ield         | OpenFOAM: The Open Source CFD Toolbox
   \\    /   O peration     | Website:  https://openfoam.org
    \\  /    A nd           | Version:  7
     \\/     M anipulation  |
\*---------------------------------------------------------------------------*/
FoamFile
{
    version     2.0;
    format      ascii;
    class       volScalarField;
    location    "74";
    object      p;
}
// * * * * * * * * * * * * * * * * * * * * * * * * * * * * * * * * * * * * * //

dimensions      [0 2 -2 0 0 0 0];

internalField   nonuniform List<scalar> 
115
(
-0.0610473
-0.0618106
-0.0623963
-0.0627627
-0.0628649
-0.0626624
-0.0621244
-0.0612112
-0.0598515
-0.0580694
-0.056382
-0.0559043
-0.0562428
-0.0573252
-0.058325
-0.0592167
-0.0599703
-0.0605499
-0.0609129
-0.0610094
-0.0607861
-0.0601962
-0.0591975
-0.0577183
-0.0556363
-0.0529428
-0.050114
-0.0479682
-0.0555594
-0.0565387
-0.0574121
-0.0581494
-0.0587151
-0.059067
-0.0591552
-0.0589223
-0.0583089
-0.057263
-0.0557311
-0.0536176
-0.0507756
-0.0471722
-0.0431717
-0.0393345
-0.0548186
-0.0556764
-0.0564017
-0.0569599
-0.0573109
-0.0574077
-0.0571957
-0.0566131
-0.0555981
-0.0540939
-0.0520353
-0.0493106
-0.0457643
-0.0413426
-0.0362918
-0.0309516
-0.0540349
-0.0547604
-0.0553273
-0.055698
-0.0558293
-0.0556714
-0.0551668
-0.0542519
-0.0528625
-0.0509365
-0.0483969
-0.0451214
-0.0409545
-0.0358271
-0.0298847
-0.023277
-0.0152907
-0.0532362
-0.0538303
-0.054243
-0.0544347
-0.0543603
-0.0539679
-0.0531982
-0.0519864
-0.0502661
-0.0479685
-0.0450063
-0.0412516
-0.0365538
-0.0308333
-0.0241525
-0.0165059
-0.00714478
-0.0524582
-0.0529315
-0.0532044
-0.053236
-0.0529795
-0.0523817
-0.051382
-0.0499145
-0.0479102
-0.0452941
-0.0419708
-0.0378107
-0.0326709
-0.0264647
-0.0191857
-0.0107105
-0.000321112
-0.051733
-0.0521014
-0.052254
-0.0521486
)
;

boundaryField
{
    inlet
    {
        type            zeroGradient;
    }
    outlet
    {
        type            fixedValue;
        value           nonuniform 0();
    }
    polygon
    {
        type            zeroGradient;
    }
    top
    {
        type            symmetryPlane;
    }
    bottom
    {
        type            symmetryPlane;
    }
    outside
    {
        type            slip;
    }
    procBoundary10to2
    {
        type            processor;
        value           nonuniform List<scalar> 
18
(
-0.0517375
-0.0509662
-0.0497733
-0.048092
-0.0458506
-0.042969
-0.0393463
-0.0348545
-0.0293601
-0.0227698
-0.0150224
-0.00591432
0.00519018
-0.0510836
-0.0513653
-0.0514187
-0.0517375
-0.0512011
)
;
    }
    procBoundary10to3
    {
        type            processor;
        value           nonuniform List<scalar> 2(-0.0518202 -0.0511853);
    }
    procBoundary10to9
    {
        type            processor;
        value           nonuniform List<scalar> 3(-0.00313885 0.00605181 0.0134739);
    }
    procBoundary10to11
    {
        type            processor;
        value           nonuniform List<scalar> 5(-0.0550987 -0.0544994 -0.0538575 -0.0531832 -0.0524951);
    }
    procBoundary10to17
    {
        type            processor;
        value           nonuniform List<scalar> 5(-0.0562646 -0.0459369 -0.0350943 -0.0246902 -0.0246902);
    }
    procBoundary10to18
    {
        type            processor;
        value           nonuniform List<scalar> 
17
(
-0.0619346
-0.0628404
-0.0635974
-0.0641692
-0.0645158
-0.0645989
-0.0643914
-0.0638775
-0.0630448
-0.0619647
-0.0611231
-0.0616455
-0.0568556
-0.0580227
-0.0591254
-0.0601421
-0.0601421
)
;
    }
}


// ************************************************************************* //
