/*--------------------------------*- C++ -*----------------------------------*\
  =========                 |
  \\      /  F ield         | OpenFOAM: The Open Source CFD Toolbox
   \\    /   O peration     | Website:  https://openfoam.org
    \\  /    A nd           | Version:  7
     \\/     M anipulation  |
\*---------------------------------------------------------------------------*/
FoamFile
{
    version     2.0;
    format      ascii;
    class       surfaceScalarField;
    location    "10";
    object      phi;
}
// * * * * * * * * * * * * * * * * * * * * * * * * * * * * * * * * * * * * * //

dimensions      [0 3 -1 0 0 0 0];

internalField   nonuniform List<scalar> 
403
(
1.7923e-05
-0.0178289
0.0177643
8.1575e-05
-0.0181613
0.0180977
0.000145836
-0.0182801
0.0182158
0.000209182
-0.0186931
0.0186297
-0.0188517
0.0187894
1.74909e-05
-0.0178933
8.09174e-05
-0.0182247
0.000144912
-0.0183441
0.000207902
-0.0187561
-0.0189135
1.70622e-05
-0.0179577
8.02542e-05
-0.0182879
0.000143985
-0.0184078
0.000206611
-0.0188187
-0.0189746
1.66363e-05
-0.0180219
7.95905e-05
-0.0183509
0.000143054
-0.0184713
0.000205313
-0.0188809
-0.0190351
1.62138e-05
-0.018086
7.89271e-05
-0.0184136
0.000142121
-0.0185345
0.00020401
-0.0189428
-0.0190951
1.57953e-05
-0.01815
7.82656e-05
-0.0184761
0.000141189
-0.0185974
0.000202706
-0.0190043
-0.0191545
1.53822e-05
-0.0182138
7.76096e-05
-0.0185383
0.000140267
-0.0186601
0.000201418
-0.0190655
-0.0192133
1.49738e-05
-0.0182776
7.69586e-05
-0.0186003
0.000139354
-0.0187225
0.000200149
-0.0191263
-0.0192716
1.45617e-05
-0.0183412
7.62899e-05
-0.018662
0.000138399
-0.0187846
0.000198812
-0.0191867
-0.0193293
1.42451e-05
-0.0184049
7.51844e-05
-0.0187229
0.000137305
-0.0188467
0.000196276
-0.0192457
-0.0193868
-1.89848e-06
-0.0173471
0.0173002
4.45773e-05
-0.017691
0.0176446
9.13478e-05
-0.0178083
0.0177615
0.000137003
-0.0182372
0.0181915
-0.0184051
0.0183592
-2.47982e-06
-0.0173939
4.37422e-05
-0.0177373
9.02189e-05
-0.0178547
0.00013547
-0.0182824
-0.0184505
-3.06021e-06
-0.0174406
4.29037e-05
-0.0177832
8.90877e-05
-0.0179009
0.000133929
-0.0183272
-0.0184951
-3.63808e-06
-0.0174872
4.20663e-05
-0.0178289
8.79554e-05
-0.0179468
0.000132387
-0.0183717
-0.0185391
-4.21234e-06
-0.0175337
4.12314e-05
-0.0178744
8.68238e-05
-0.0179924
0.000130846
-0.0184157
-0.0185825
-4.78235e-06
-0.0175801
4.03993e-05
-0.0179196
8.56935e-05
-0.0180377
0.000129306
-0.0184593
-0.0186252
-5.34771e-06
-0.0176263
3.95701e-05
-0.0179645
8.45648e-05
-0.0180827
0.000127769
-0.0185025
-0.0186672
-5.9081e-06
-0.0176725
3.87441e-05
-0.0180091
8.34378e-05
-0.0181274
0.000126233
-0.0185453
-0.0187086
-6.46304e-06
-0.0177184
3.79221e-05
-0.0180535
8.23152e-05
-0.0181718
0.000124704
-0.0185877
-0.0187493
-7.01739e-06
3.71162e-05
8.11918e-05
0.00012321
-1.94861e-05
-0.0170571
0.0170296
8.17778e-06
-0.0174064
0.0173788
3.58023e-05
-0.0175269
0.0174993
6.27908e-05
-0.0179693
0.0179423
9.0911e-05
-0.0181355
0.0181074
-0.0187921
0.0187709
-2.02205e-05
-0.0170846
7.20295e-06
-0.0174339
3.45276e-05
-0.0175542
6.10521e-05
-0.0179958
8.85301e-05
-0.018163
-0.0188123
-2.09508e-05
-0.0171119
6.22803e-06
-0.0174611
3.32501e-05
-0.0175813
5.93093e-05
-0.0180218
8.61391e-05
-0.0181898
-0.0188313
-2.16768e-05
-0.0171391
5.25661e-06
-0.017488
3.19718e-05
-0.017608
5.75679e-05
-0.0180474
8.37447e-05
-0.018216
-0.0188494
-2.2398e-05
-0.0171662
4.29027e-06
-0.0175147
3.06941e-05
-0.0176344
5.58302e-05
-0.0180726
8.13506e-05
-0.0182415
-0.0188664
-2.3114e-05
-0.0171933
3.3306e-06
-0.0175411
2.94178e-05
-0.0176605
5.40971e-05
-0.0180973
7.89584e-05
-0.0182663
-0.0188824
-2.38246e-05
-0.0172202
2.37987e-06
-0.0175673
2.81433e-05
-0.0176862
5.2369e-05
-0.0181215
7.6569e-05
-0.0182905
-0.0188975
-2.45294e-05
-0.017247
1.4428e-06
-0.0175933
2.68712e-05
-0.0177117
5.06467e-05
-0.0181453
7.41844e-05
-0.0183141
-0.0189117
-2.52279e-05
-0.0172736
5.34135e-07
-0.0176191
2.56035e-05
-0.0177367
4.89341e-05
-0.0181686
7.18126e-05
-0.018337
-0.018925
-2.59267e-05
-4.13578e-07
2.43341e-05
4.72505e-05
6.94512e-05
-3.49578e-05
-0.016972
-2.72685e-05
-0.0173205
-1.98127e-05
-0.0174447
-1.15502e-05
-0.0178921
-3.45974e-06
-0.0180586
-0.0187607
-3.57755e-05
-0.0169788
-2.83237e-05
-0.017328
-2.11407e-05
-0.0174519
-1.34316e-05
-0.0178998
-5.81769e-06
-0.0180662
-0.0187677
-3.65919e-05
-0.0169854
-2.93808e-05
-0.0173352
-2.24727e-05
-0.0174588
-1.53122e-05
-0.017907
-8.21249e-06
-0.0180733
-0.018773
-3.74059e-05
-0.016992
-3.04376e-05
-0.0173421
-2.38066e-05
-0.0174654
-1.71892e-05
-0.0179136
-1.06258e-05
-0.0180799
-0.0187768
-3.82173e-05
-0.0169985
-3.14934e-05
-0.0173489
-2.51412e-05
-0.0174718
-1.90609e-05
-0.0179197
-1.3049e-05
-0.0180859
-0.0187791
-3.90255e-05
-0.0170049
-3.25474e-05
-0.0173553
-2.64758e-05
-0.0174778
-2.09266e-05
-0.0179252
-1.54771e-05
-0.0180913
-0.0187801
-3.98302e-05
-0.0170112
-3.35993e-05
-0.0173616
-2.78097e-05
-0.0174836
-2.27855e-05
-0.0179303
-1.79066e-05
-0.0180962
-0.0187797
-4.06309e-05
-0.0170174
-3.46484e-05
-0.0173676
-2.91421e-05
-0.0174891
-2.46366e-05
-0.0179348
-2.03341e-05
-0.0181005
-0.018778
-4.14274e-05
-0.0170236
-3.56941e-05
-0.0173733
-3.04719e-05
-0.0174944
-2.64776e-05
-0.0179388
-2.2755e-05
-0.0181042
-0.0187751
-4.22237e-05
-3.67302e-05
-3.18039e-05
-2.82987e-05
-2.51723e-05
-0.00525174
-0.00651968
-0.00801383
-0.0100376
)
;

boundaryField
{
    inlet
    {
        type            calculated;
        value           nonuniform 0();
    }
    outlet
    {
        type            calculated;
        value           nonuniform 0();
    }
    polygon
    {
        type            calculated;
        value           nonuniform 0();
    }
    top
    {
        type            symmetryPlane;
        value           uniform 0;
    }
    bottom
    {
        type            symmetryPlane;
        value           uniform 0;
    }
    outside
    {
        type            calculated;
        value           nonuniform List<scalar> 
41
(
4.66493e-05
4.6963e-05
4.72757e-05
4.75836e-05
4.7886e-05
4.81828e-05
4.8474e-05
4.87597e-05
4.90398e-05
4.95464e-05
4.88244e-05
4.93008e-05
4.97741e-05
5.02405e-05
5.06997e-05
5.11513e-05
5.15952e-05
5.20312e-05
5.24592e-05
5.28698e-05
4.70237e-05
4.76564e-05
4.82849e-05
4.89066e-05
4.95209e-05
5.01276e-05
5.07264e-05
5.13172e-05
5.18998e-05
5.24656e-05
4.17786e-05
4.25177e-05
4.32537e-05
4.39851e-05
4.47113e-05
4.5432e-05
4.61467e-05
4.68551e-05
4.75569e-05
4.8247e-05
0.00436809
)
;
    }
    procBoundary1to0
    {
        type            processor;
        value           nonuniform List<scalar> 5(-0.0175213 -0.017455 -0.0173526 -0.0172219 -0.0170329);
    }
    procBoundary1to2
    {
        type            processor;
        value           nonuniform List<scalar> 6(0.0169652 0.0173128 0.0174372 0.0178839 0.0180505 0.0187527);
    }
    procBoundary1to5
    {
        type            processor;
        value           nonuniform List<scalar> 
42
(
0.000271511
0.000269636
0.000267753
0.000265865
0.000263973
0.000262084
0.000260228
0.000258417
0.000256503
0.000253797
0.000182984
-0.0189374
0.000180797
0.000178599
0.000176398
0.000174197
0.000171998
0.000169802
0.000167609
0.000165431
0.000163275
0.000112101
0.000108651
0.000105208
0.000101783
9.83819e-05
9.50075e-05
9.16615e-05
8.83476e-05
8.5081e-05
8.1902e-05
4.57377e-06
1.13218e-06
-2.84384e-06
-6.84923e-06
-1.07289e-05
-1.45419e-05
-1.8304e-05
-2.20201e-05
-2.56862e-05
-2.92843e-05
-0.0123915
)
;
    }
}


// ************************************************************************* //
