/*--------------------------------*- C++ -*----------------------------------*\
  =========                 |
  \\      /  F ield         | OpenFOAM: The Open Source CFD Toolbox
   \\    /   O peration     | Website:  https://openfoam.org
    \\  /    A nd           | Version:  7
     \\/     M anipulation  |
\*---------------------------------------------------------------------------*/
FoamFile
{
    version     2.0;
    format      ascii;
    class       volVectorField;
    location    "10";
    object      U;
}
// * * * * * * * * * * * * * * * * * * * * * * * * * * * * * * * * * * * * * //

dimensions      [0 1 -1 0 0 0 0];

internalField   nonuniform List<vector> 
225
(
(1.12115 -0.0613723 -5.07368e-19)
(1.14213 -0.0773573 -8.55688e-19)
(1.14967 -0.0830026 -2.35005e-18)
(1.17575 -0.104959 2.15273e-18)
(1.18594 -0.117246 1.28353e-18)
(1.12082 -0.0617929 -4.59051e-19)
(1.14167 -0.077999 -7.67802e-19)
(1.14921 -0.0839582 -2.3091e-18)
(1.17513 -0.106153 2.14047e-18)
(1.18521 -0.118996 6.68102e-19)
(1.12049 -0.0622086 -4.05623e-19)
(1.14119 -0.0786405 -7.5321e-19)
(1.14873 -0.0849186 -1.87065e-18)
(1.17449 -0.107354 2.24413e-18)
(1.18444 -0.120752 -4.45508e-19)
(1.12016 -0.0626179 -4.14318e-19)
(1.1407 -0.0792795 -7.68002e-19)
(1.14825 -0.0858785 -1.68263e-18)
(1.17383 -0.108555 2.25984e-18)
(1.18365 -0.122506 -7.6628e-19)
(1.11982 -0.0630202 -4.21225e-19)
(1.14019 -0.079915 -7.69659e-19)
(1.14774 -0.0868358 -1.72687e-18)
(1.17315 -0.109753 2.32028e-18)
(1.18282 -0.124254 -9.25992e-19)
(1.11947 -0.0634151 -3.93796e-19)
(1.13967 -0.0805465 -7.95953e-19)
(1.14722 -0.0877894 -1.75036e-18)
(1.17245 -0.110948 1.68526e-18)
(1.18194 -0.125993 -1.07851e-18)
(1.11912 -0.0638024 -4.17625e-19)
(1.13915 -0.0811737 -7.99087e-19)
(1.14669 -0.0887387 -1.7462e-18)
(1.17173 -0.112138 1.51826e-18)
(1.18104 -0.127723 -1.0948e-18)
(1.11879 -0.0641823 -4.0657e-19)
(1.13866 -0.0817965 -4.40972e-19)
(1.14621 -0.0896839 -2.21453e-18)
(1.17108 -0.113323 7.33409e-19)
(1.18022 -0.129444 -1.13425e-18)
(1.11846 -0.0645551 -1.94768e-19)
(1.13817 -0.0824161 -3.08806e-19)
(1.14576 -0.0906265 -2.40532e-18)
(1.17048 -0.114505 4.40561e-19)
(1.17952 -0.131158 -1.13495e-18)
(1.118 -0.0649204 -8.10863e-20)
(1.13744 -0.0830328 -2.69175e-19)
(1.14504 -0.091567 -2.42355e-18)
(1.16946 -0.115686 3.47275e-19)
(1.17835 -0.132868 -1.92455e-18)
(1.12466 -0.0561929 -5.71941e-19)
(1.14701 -0.0699518 1.86721e-19)
(1.15467 -0.0722927 -7.53421e-19)
(1.18257 -0.0918353 2.15075e-18)
(1.19362 -0.0980433 1.55666e-18)
(1.12433 -0.0567503 -6.95673e-19)
(1.14658 -0.0707145 2.42714e-19)
(1.15424 -0.0733859 -1.36429e-18)
(1.18199 -0.0931645 2.33377e-18)
(1.19301 -0.100024 1.66815e-18)
(1.12399 -0.0573015 -4.03739e-19)
(1.14614 -0.0714753 -2.27445e-19)
(1.15379 -0.0744809 -2.14363e-18)
(1.18137 -0.0944976 2.41284e-18)
(1.19236 -0.102003 1.76922e-18)
(1.12365 -0.0578448 -3.37005e-19)
(1.14568 -0.0722327 -3.9586e-19)
(1.15332 -0.075573 -3.01537e-18)
(1.18073 -0.09583 2.3841e-18)
(1.19167 -0.103972 1.65857e-18)
(1.12331 -0.0583798 -3.0594e-19)
(1.14521 -0.072986 -4.36587e-19)
(1.15283 -0.0766604 -3.32457e-18)
(1.18007 -0.0971595 3.29523e-18)
(1.19094 -0.105927 1.77102e-18)
(1.12296 -0.0589061 -3.08733e-19)
(1.14472 -0.0737347 -5.02692e-19)
(1.15233 -0.0777426 -2.9063e-18)
(1.17939 -0.0984852 3.63271e-18)
(1.19017 -0.107869 7.70671e-19)
(1.1226 -0.0594236 -3.1777e-19)
(1.14422 -0.0744787 -5.51227e-19)
(1.15182 -0.0788192 -2.80496e-18)
(1.17868 -0.0998063 3.743e-18)
(1.18936 -0.109795 5.08386e-19)
(1.12224 -0.059932 -6.24257e-19)
(1.14371 -0.0752176 -1.00131e-18)
(1.15128 -0.0798899 -2.79371e-18)
(1.17795 -0.101122 3.11773e-18)
(1.18851 -0.111706 1.33152e-18)
(1.12187 -0.0604313 -7.39084e-19)
(1.14318 -0.075951 -1.22348e-18)
(1.15073 -0.0809543 -2.87271e-18)
(1.17719 -0.102432 3.13744e-18)
(1.18761 -0.113602 7.11378e-19)
(1.1215 -0.0609212 -7.5502e-19)
(1.14264 -0.0766787 -1.23111e-18)
(1.15016 -0.0820122 -2.49543e-18)
(1.17642 -0.103735 2.31512e-18)
(1.18671 -0.11548 5.0041e-19)
(1.12794 -0.0497656 -1.52896e-18)
(1.15106 -0.0615497 7.27178e-19)
(1.15907 -0.0604769 7.22877e-19)
(1.18838 -0.0777585 -1.2642e-18)
(1.19945 -0.0766304 4.32067e-20)
(1.24319 -0.101678 8.55704e-19)
(1.12764 -0.0504446 -1.19802e-18)
(1.15072 -0.0624091 1.65411e-19)
(1.15872 -0.0616804 7.27452e-19)
(1.18793 -0.079175 1.47565e-19)
(1.19905 -0.0788436 9.95611e-19)
(1.24224 -0.104274 8.52443e-19)
(1.12733 -0.0511178 -7.19811e-19)
(1.15036 -0.0632667 6.08978e-19)
(1.15834 -0.0628849 7.98952e-19)
(1.18743 -0.0805949 1.40959e-18)
(1.1986 -0.0810513 1.34063e-18)
(1.24121 -0.106881 1.0096e-18)
(1.12701 -0.0517839 -6.23329e-19)
(1.14999 -0.0641213 7.62338e-19)
(1.15794 -0.0640862 8.20805e-19)
(1.18691 -0.0820151 8.75527e-19)
(1.19809 -0.0832461 1.4451e-18)
(1.2401 -0.109493 2.78274e-18)
(1.12669 -0.0524423 -6.08804e-19)
(1.1496 -0.0649724 7.83299e-19)
(1.15752 -0.065283 8.26258e-19)
(1.18636 -0.0834344 7.48632e-19)
(1.19755 -0.0854256 1.49461e-18)
(1.23894 -0.112105 3.23588e-18)
(1.12636 -0.0530927 -5.89153e-19)
(1.1492 -0.0658196 8.06565e-19)
(1.15708 -0.0664744 8.4985e-19)
(1.18578 -0.0848519 1.67195e-18)
(1.19697 -0.0875882 1.50046e-18)
(1.23771 -0.114715 3.3416e-18)
(1.12603 -0.0537347 -6.16961e-19)
(1.14878 -0.0666626 8.29401e-19)
(1.15662 -0.0676601 2.28653e-19)
(1.18517 -0.0862668 1.96863e-18)
(1.19634 -0.0897329 1.51441e-18)
(1.23643 -0.11732 5.22333e-18)
(1.12569 -0.0543683 -6.67503e-19)
(1.14835 -0.0675009 8.86589e-19)
(1.15614 -0.0688395 -4.28463e-19)
(1.18453 -0.0876782 1.07249e-18)
(1.19567 -0.0918587 5.97812e-19)
(1.23507 -0.119919 5.75541e-18)
(1.12535 -0.0549932 -3.56472e-19)
(1.1479 -0.068334 3.40693e-19)
(1.15563 -0.0700121 -6.28148e-19)
(1.18386 -0.0890853 1.82952e-18)
(1.19495 -0.0939641 2.6527e-19)
(1.23365 -0.122509 4.58855e-18)
(1.125 -0.0556093 -2.95481e-19)
(1.14745 -0.0691613 2.73905e-19)
(1.15512 -0.0711774 -7.05805e-19)
(1.18319 -0.0904876 1.99577e-18)
(1.19423 -0.0960487 1.17453e-18)
(1.23225 -0.125087 4.25997e-18)
(1.13088 -0.042416 -1.38609e-18)
(1.15408 -0.0525472 7.02409e-19)
(1.16238 -0.0480436 5.2814e-19)
(1.19217 -0.0632063 -3.10698e-18)
(1.2033 -0.0535749 -2.85856e-18)
(1.25011 -0.0753673 -9.76367e-19)
(1.13061 -0.0431751 -1.44966e-18)
(1.15385 -0.0534553 1.12407e-19)
(1.16213 -0.0492926 4.50346e-19)
(1.19195 -0.0646678 -2.96032e-18)
(1.20308 -0.055914 -1.65181e-18)
(1.24985 -0.0780319 -1.05455e-18)
(1.13033 -0.0439311 -7.54443e-19)
(1.1536 -0.0543631 5.77904e-19)
(1.16186 -0.0505457 4.65821e-19)
(1.19169 -0.0661298 -2.97567e-18)
(1.2028 -0.0582575 -1.30362e-18)
(1.24946 -0.0806921 -1.11653e-18)
(1.13005 -0.0446826 -6.27414e-19)
(1.15333 -0.0552701 7.49194e-19)
(1.16156 -0.0517991 5.347e-19)
(1.19138 -0.067592 -3.08129e-18)
(1.20249 -0.0605978 -1.24455e-18)
(1.24896 -0.0833464 -7.20961e-19)
(1.12977 -0.0454291 -1.01192e-18)
(1.15305 -0.0561761 7.29366e-19)
(1.16125 -0.0530514 -1.32061e-19)
(1.19104 -0.069054 -3.06816e-18)
(1.20214 -0.0629311 -1.22332e-18)
(1.24837 -0.0859951 -6.90757e-19)
(1.12947 -0.04617 -1.2125e-18)
(1.15276 -0.0570805 1.49533e-19)
(1.16093 -0.0543016 -2.27068e-19)
(1.19067 -0.070515 -3.07481e-18)
(1.20175 -0.0652551 -1.21536e-18)
(1.24768 -0.0886378 -8.02373e-19)
(1.12918 -0.046905 -1.60966e-18)
(1.15244 -0.057983 -4.99789e-20)
(1.16058 -0.055549 -2.94337e-19)
(1.19026 -0.0719745 -3.43442e-18)
(1.20133 -0.0675678 -1.35312e-18)
(1.2469 -0.0912734 -1.11304e-18)
(1.12887 -0.0476337 -1.78778e-18)
(1.15211 -0.0588832 5.27346e-19)
(1.16021 -0.0567931 -2.74133e-19)
(1.18981 -0.0734319 -3.53877e-18)
(1.20085 -0.0698671 -1.45469e-18)
(1.24602 -0.0939004 -1.16384e-18)
(1.12856 -0.0483559 -1.86592e-18)
(1.15176 -0.0597806 6.79283e-19)
(1.15982 -0.0580331 3.61494e-19)
(1.18933 -0.0748859 -2.5192e-18)
(1.20034 -0.0721509 -3.42262e-19)
(1.24506 -0.0965168 4.38485e-19)
(1.12825 -0.049071 -1.56101e-18)
(1.15141 -0.0606749 6.84544e-19)
(1.15943 -0.0592685 5.78755e-19)
(1.18884 -0.0763362 -2.31049e-18)
(1.19984 -0.074418 -9.02259e-20)
(1.24408 -0.0991219 7.52215e-19)
(1.08867 -0.0783013 1.42698e-18)
(1.09329 -0.105858 4.66886e-19)
(1.09516 -0.126168 1.09483e-17)
(1.10053 -0.158648 -1.806e-19)
(1.09642 -0.194088 -1.33111e-17)
)
;

boundaryField
{
    inlet
    {
        type            uniformFixedValue;
        uniformValue    constant (1 0 0);
        value           nonuniform 0();
    }
    outlet
    {
        type            pressureInletOutletVelocity;
        value           nonuniform 0();
    }
    polygon
    {
        type            fixedValue;
        value           nonuniform 0();
    }
    top
    {
        type            symmetryPlane;
    }
    bottom
    {
        type            symmetryPlane;
    }
    outside
    {
        type            zeroGradient;
    }
    procBoundary1to0
    {
        type            processor;
        value           nonuniform List<vector> 5((1.04918 -0.0101668 5.98449e-18) (1.03875 -0.0156302 -6.96719e-18) (1.02498 -0.0174463 2.93794e-18) (1.00533 -0.0210365 1.25009e-17) (0.986754 -0.0265003 -1.99151e-18));
    }
    procBoundary1to2
    {
        type            processor;
        value           nonuniform List<vector> 6((1.13115 -0.0416573 -1.3653e-18) (1.15431 -0.0516396 7.33287e-19) (1.16262 -0.046812 1.12516e-18) (1.19239 -0.0617478 -4.0636e-18) (1.20349 -0.0512672 -3.86285e-18) (1.25037 -0.0727111 -7.36976e-19));
    }
    procBoundary1to5
    {
        type            processor;
        value           nonuniform List<vector> 
42
(
(1.2169 -0.152475 9.84618e-18)
(1.21562 -0.154812 1.01636e-17)
(1.21431 -0.157151 1.17158e-17)
(1.21298 -0.15948 1.25537e-17)
(1.2116 -0.161791 1.30045e-17)
(1.21018 -0.164082 1.33273e-17)
(1.20873 -0.166349 1.3767e-17)
(1.20741 -0.168591 1.42003e-17)
(1.20626 -0.170809 1.4595e-17)
(1.2045 -0.173003 1.50801e-17)
(1.231 -0.127575 4.27863e-18)
(1.231 -0.127575 4.27863e-18)
(1.22976 -0.130102 2.88706e-18)
(1.22846 -0.132642 2.6195e-18)
(1.22711 -0.13518 2.55206e-18)
(1.22573 -0.137711 4.32448e-18)
(1.22431 -0.140232 6.11729e-18)
(1.22284 -0.14274 8.21965e-18)
(1.22133 -0.145232 8.95445e-18)
(1.21977 -0.147706 9.25174e-18)
(1.21823 -0.150159 9.6354e-18)
(1.25206 -0.110643 4.26601e-18)
(1.25143 -0.115195 6.5122e-18)
(1.25066 -0.11969 7.04941e-18)
(1.24978 -0.124111 5.66562e-18)
(1.24881 -0.128454 5.39568e-18)
(1.24774 -0.132712 5.67378e-18)
(1.24658 -0.136881 5.72303e-18)
(1.24531 -0.140956 6.01508e-18)
(1.24393 -0.144932 6.21904e-18)
(1.24258 -0.148805 4.54163e-18)
(1.25932 -0.0619956 2.26869e-18)
(1.25894 -0.0670332 2.0259e-18)
(1.25836 -0.0720653 1.88494e-18)
(1.25771 -0.0770727 -4.08146e-20)
(1.25703 -0.0820451 -6.05773e-19)
(1.25629 -0.0869739 1.22464e-18)
(1.25547 -0.0918517 -5.92544e-20)
(1.25455 -0.096671 1.53841e-18)
(1.25356 -0.101424 1.94924e-18)
(1.25265 -0.106104 3.87484e-18)
(1.09335 -0.249483 -1.22483e-17)
)
;
    }
}


// ************************************************************************* //
