/*--------------------------------*- C++ -*----------------------------------*\
  =========                 |
  \\      /  F ield         | OpenFOAM: The Open Source CFD Toolbox
   \\    /   O peration     | Website:  https://openfoam.org
    \\  /    A nd           | Version:  7
     \\/     M anipulation  |
\*---------------------------------------------------------------------------*/
FoamFile
{
    version     2.0;
    format      ascii;
    class       surfaceScalarField;
    location    "28";
    object      phi;
}
// * * * * * * * * * * * * * * * * * * * * * * * * * * * * * * * * * * * * * //

dimensions      [0 3 -1 0 0 0 0];

internalField   nonuniform List<scalar> 
321
(
-0.00158252
-0.000477938
-0.00153255
-0.000499177
-0.00148408
-0.000489941
-0.00143161
-0.000525316
-0.00137984
-0.000521579
-0.000558797
-0.000867162
0.00120682
-0.000806436
0.00127198
-0.000742816
0.0013314
-0.000675969
0.00140025
-0.000605863
0.001468
-0.000532301
0.0015409
0.00161408
-0.0013497
0.000794417
-0.00130593
0.000847249
-0.00126593
0.000814043
-0.00122103
0.000885997
-0.00117751
0.00087188
-0.00113021
0.000939509
-0.00108252
0.000949976
-0.00103163
0.00101221
-0.000979195
0.0010429
-0.000923738
0.00110339
-0.000865955
0.00114904
-0.000805087
0.00121112
-0.000741359
0.00126767
-0.000674362
0.00133326
-0.000604112
0.00139775
-0.00053038
0.00146717
-0.000453126
0.00153683
0.0016085
-0.00134908
0.000755347
-0.00130538
0.000803556
-0.00126526
0.000773916
-0.0012203
0.000841035
-0.00117671
0.000828296
-0.00112933
0.000892126
-0.00108158
0.000902225
-0.00103061
0.000961237
-0.000978096
0.000990393
-0.000922542
0.00104783
-0.000864669
0.00109117
-0.00080369
0.00115014
-0.000739849
0.00120383
-0.00067272
0.00126613
-0.000602333
0.00132737
-0.00052845
0.00139328
-0.000451038
0.00145941
0.00152745
-0.00134836
0.000716112
-0.00130474
0.000759928
-0.00126449
0.00073367
-0.00121948
0.000796021
-0.00117583
0.000784652
-0.00112838
0.000844669
-0.00108057
0.00085442
-0.00102952
0.000910186
-0.000976945
0.000937818
-0.000921304
0.000992194
-0.00086335
0.00103321
-0.000802272
0.00108906
-0.00073833
0.00113989
-0.000671086
0.00119888
-0.000600577
0.00125686
-0.000526562
0.00131927
-0.000449011
0.00138186
0.00144626
-0.00134757
0.000676724
-0.001304
0.000716359
-0.00126364
0.000693309
-0.00121858
0.000750966
-0.00117488
0.000740948
-0.00112736
0.000797148
-0.0010795
0.000806565
-0.00102838
0.000859064
-0.000975747
0.000885185
-0.000920028
0.000936475
-0.000862002
0.000975187
-0.000800837
0.00102789
-0.000736805
0.00107586
-0.00066946
0.00113154
-0.000598844
0.00118624
-0.000524713
0.00124514
-0.000447041
0.00130419
0.00136494
-0.0013467
0.000637198
-0.00130319
0.00067284
-0.00126271
0.000652838
-0.00121763
0.000705876
-0.00117386
0.000697187
-0.00112628
0.000749568
-0.00107838
0.000758662
-0.00102719
0.000807877
-0.000974508
0.000832499
-0.000918721
0.000880688
-0.00086063
0.000917097
-0.000799387
0.000966651
-0.000735277
0.00101175
-0.000667842
0.0010641
-0.000597134
0.00111553
-0.000522901
0.0011709
-0.000445125
0.00122642
0.00128352
-0.00134578
0.000597549
-0.0013023
0.000629362
-0.00126173
0.000612266
-0.00121661
0.000660758
-0.0011728
0.000653371
-0.00112516
0.000701935
-0.00107722
0.000710715
-0.00102597
0.000756631
-0.000973238
0.000779766
-0.000917387
0.000824837
-0.00085924
0.000858949
-0.000797927
0.000905338
-0.000733749
0.000947568
-0.000666235
0.00099659
-0.000595446
0.00104474
-0.000521125
0.00109658
-0.000443259
0.00114855
0.001202
-0.00134481
0.000557789
-0.00130137
0.000585917
-0.0012607
0.000571598
-0.00121556
0.000615615
-0.00117169
0.000609501
-0.00112401
0.000654256
-0.00107602
0.000662727
-0.00102472
0.000705333
-0.000971946
0.000726989
-0.000916039
0.000768931
-0.000857841
0.000800751
-0.000796466
0.000843964
-0.000732226
0.000883328
-0.000664643
0.000929007
-0.000593782
0.000973882
-0.000519385
0.00102219
-0.000441442
0.00107061
0.0011204
-0.00134382
0.000517932
-0.00130039
0.000542495
-0.00125964
0.000530841
-0.00121448
0.000570452
-0.00117055
0.00056558
-0.00112283
0.000606535
-0.00107481
0.000614701
-0.00102346
0.000653987
-0.000970644
0.000674173
-0.000914686
0.000712973
-0.000856442
0.000742506
-0.000795011
0.000782533
-0.000730716
0.000819033
-0.000663071
0.000861362
-0.000592147
0.000902958
-0.000517682
0.000947722
-0.00043967
0.000992594
0.00103873
-0.00134275
-0.00129944
-0.00125854
-0.0012134
-0.0011694
-0.00112166
-0.00107358
-0.0010222
-0.000969342
-0.000913342
-0.000855051
-0.000793571
-0.000729224
-0.000661523
-0.00059054
-0.000516015
-0.000437941
)
;

boundaryField
{
    inlet
    {
        type            calculated;
        value           nonuniform 0();
    }
    outlet
    {
        type            calculated;
        value           nonuniform List<scalar> 10(0.00162987 0.00138859 0.00138815 0.0013876 0.00138696 0.00138623 0.00138543 0.00138457 0.00138367 0.00138275);
    }
    polygon
    {
        type            calculated;
        value           nonuniform 0();
    }
    top
    {
        type            symmetryPlane;
        value           uniform 0;
    }
    bottom
    {
        type            symmetryPlane;
        value           uniform 0;
    }
    outside
    {
        type            calculated;
        value           nonuniform 0();
    }
    procBoundary47to39
    {
        type            processor;
        value           nonuniform List<scalar> 
19
(
0.000430594
0.0004492
0.000441473
0.000472852
0.000469804
-0.00132417
0.000503128
0.000566623
0.000602606
0.000621313
0.000656972
0.000684215
0.000721053
0.000754685
0.000793661
0.000831976
0.000873196
0.00091452
0.000957007
)
;
    }
    procBoundary47to46
    {
        type            processor;
        value           nonuniform List<scalar> 
11
(
-0.00045522
-0.00168937
-0.000372248
-0.000369992
-0.000367819
-0.000365723
-0.000363699
-0.000361741
-0.000359845
-0.000358004
-0.000356213
)
;
    }
    procBoundary47to55
    {
        type            processor;
        value           nonuniform List<scalar> 
18
(
-0.000833309
-0.000891022
-0.000854036
-0.000930902
-0.000915399
-0.00098681
-0.000997667
-0.00106309
-0.00109534
0.000924881
-0.00115885
-0.00126454
-0.00133271
-0.00139502
-0.0014671
-0.00153811
-0.00161446
-0.00169116
)
;
    }
}


// ************************************************************************* //
