/*--------------------------------*- C++ -*----------------------------------*\
  =========                 |
  \\      /  F ield         | OpenFOAM: The Open Source CFD Toolbox
   \\    /   O peration     | Website:  https://openfoam.org
    \\  /    A nd           | Version:  7
     \\/     M anipulation  |
\*---------------------------------------------------------------------------*/
FoamFile
{
    version     2.0;
    format      ascii;
    class       volScalarField;
    location    "20";
    object      p;
}
// * * * * * * * * * * * * * * * * * * * * * * * * * * * * * * * * * * * * * //

dimensions      [0 2 -2 0 0 0 0];

internalField   nonuniform List<scalar> 
7360
(
0.00293651
0.00594416
0.0101278
0.0133807
0.0171823
0.0205654
0.0242011
0.0276564
0.031237
0.0347501
0.0383344
0.0419039
0.04552
0.0491429
0.0527973
0.0564621
0.0601431
0.0638249
0.0675022
0.0711586
0.0747801
0.0783457
0.0818325
0.0852116
0.0884494
0.0915058
0.0943334
0.0968763
0.0990688
0.100834
0.10208
0.102702
0.102575
0.101561
0.0994931
0.0961825
0.0914117
0.0849346
0.0764751
0.0657293
0.0523724
0.0360427
0.0164131
-0.00680358
-0.0338889
-0.0650837
-0.100396
-0.139714
-0.182705
-0.228805
-0.277215
-0.326931
-0.376793
-0.425562
-0.472001
-0.514954
-0.553418
-0.586584
-0.61387
-0.634916
-0.649582
-0.657921
-0.660136
-0.656658
-0.647935
-0.634534
-0.617091
-0.596281
-0.572796
-0.547319
-0.520507
-0.492977
-0.465296
-0.437977
-0.411471
-0.386167
-0.362391
-0.340401
-0.320393
-0.302495
-0.286774
-0.273234
-0.261825
-0.252444
-0.244951
-0.239169
-0.234904
-0.231939
-0.230058
-0.229027
-0.228636
-0.22862
-0.22887
-0.228931
-0.229222
-0.228279
-0.228605
-0.225808
-0.226522
-0.222783
0.0029393
0.00595023
0.0101365
0.0133907
0.0171949
0.0205793
0.0242172
0.0276739
0.0312562
0.0347707
0.0383564
0.0419272
0.0455446
0.0491689
0.0528247
0.056491
0.0601737
0.0638573
0.0675366
0.0711953
0.0748195
0.0783882
0.0818787
0.0852621
0.0885051
0.0915675
0.0944022
0.0969535
0.0991561
0.100933
0.102194
0.102832
0.102725
0.101732
0.0996902
0.0964104
0.0916761
0.0852422
0.0768339
0.0661487
0.0528627
0.0366138
0.0170992
-0.00601881
-0.0329737
-0.0640183
-0.0991677
-0.138309
-0.181119
-0.227039
-0.275282
-0.324853
-0.374605
-0.423305
-0.469722
-0.512702
-0.551239
-0.58452
-0.611956
-0.633176
-0.648036
-0.656586
-0.659076
-0.655779
-0.647249
-0.634043
-0.616783
-0.596142
-0.57281
-0.547468
-0.520772
-0.493339
-0.46574
-0.438485
-0.412028
-0.38676
-0.363007
-0.341029
-0.321021
-0.303113
-0.287372
-0.273803
-0.262355
-0.252929
-0.245381
-0.239541
-0.235211
-0.232181
-0.230234
-0.22914
-0.228692
-0.228626
-0.228831
-0.228852
-0.229082
-0.228129
-0.228294
-0.225565
-0.226057
-0.222165
0.00292203
0.00591572
0.0100869
0.0133334
0.0171227
0.0204987
0.0241246
0.0275728
0.0311454
0.0346519
0.0382293
0.0417924
0.045402
0.0490183
0.0526659
0.0563233
0.0599963
0.0636691
0.0673362
0.0709809
0.0745889
0.0781388
0.0816071
0.0849645
0.0881768
0.091203
0.093995
0.0964957
0.0986384
0.100344
0.101521
0.102061
0.101839
0.100712
0.0985107
0.0950428
0.0900862
0.0833897
0.0746715
0.0636202
0.0499084
0.0331675
0.0129966
-0.0107386
-0.0384663
-0.0703949
-0.106497
-0.146659
-0.190513
-0.237452
-0.28663
-0.336988
-0.387319
-0.436345
-0.482806
-0.525545
-0.563572
-0.596106
-0.6226
-0.642736
-0.656406
-0.663709
-0.664852
-0.660371
-0.650656
-0.636313
-0.617995
-0.596392
-0.572204
-0.546117
-0.518789
-0.490834
-0.462814
-0.435237
-0.408546
-0.383125
-0.359292
-0.337301
-0.317341
-0.299539
-0.283956
-0.270594
-0.259398
-0.250262
-0.243038
-0.237544
-0.233575
-0.230909
-0.229317
-0.228559
-0.228412
-0.228611
-0.229059
-0.229282
-0.229818
-0.22889
-0.229959
-0.226774
-0.229103
-0.226533
0.00293159
0.00593122
0.0101118
0.0133605
0.0171581
0.0205375
0.0241697
0.0276216
0.0311991
0.0347092
0.0382907
0.0418573
0.0454707
0.0490907
0.0527422
0.0564037
0.0600813
0.0637592
0.0674321
0.0710835
0.0746993
0.0782582
0.0817373
0.0851073
0.0883345
0.0913784
0.0941915
0.0967172
0.0988896
0.100631
0.10185
0.102439
0.102273
0.101211
0.099088
0.0957119
0.0908639
0.0842956
0.0757287
0.0648564
0.0513538
0.0348565
0.0149995
-0.00842781
-0.0357717
-0.0672642
-0.102893
-0.142546
-0.185878
-0.232306
-0.281012
-0.33097
-0.381002
-0.429854
-0.47628
-0.519127
-0.557395
-0.590289
-0.61724
-0.637904
-0.652155
-0.660082
-0.661988
-0.658043
-0.648909
-0.635133
-0.617347
-0.59623
-0.572476
-0.546768
-0.519763
-0.492077
-0.464276
-0.436868
-0.410303
-0.384967
-0.361182
-0.339205
-0.319228
-0.301379
-0.285721
-0.272258
-0.260936
-0.251652
-0.244262
-0.238586
-0.234426
-0.231566
-0.229783
-0.228846
-0.228542
-0.228607
-0.228932
-0.229049
-0.229433
-0.228481
-0.229085
-0.226175
-0.227591
-0.225001
0.002888
0.00587528
0.0100205
0.0132599
0.0170278
0.020393
0.0240029
0.0274399
0.031
0.0344958
0.0380624
0.0416154
0.0452147
0.0488206
0.0524572
0.0561028
0.0597629
0.0634211
0.0670715
0.070697
0.0742826
0.0778061
0.0812436
0.0845644
0.0877335
0.0907085
0.0934399
0.0958688
0.0979262
0.0995309
0.100587
0.100982
0.100594
0.0992713
0.0968396
0.0930982
0.0878179
0.0807386
0.0715684
0.0599837
0.045645
0.0281754
0.00711663
-0.0175722
-0.0464265
-0.0796116
-0.117071
-0.158667
-0.203968
-0.252292
-0.302704
-0.354055
-0.405056
-0.454371
-0.500712
-0.542925
-0.580054
-0.611372
-0.636399
-0.654891
-0.666803
-0.672397
-0.671678
-0.665398
-0.65399
-0.638058
-0.618285
-0.595378
-0.570048
-0.542983
-0.514849
-0.486255
-0.45775
-0.429828
-0.402921
-0.377399
-0.35357
-0.331675
-0.311896
-0.294351
-0.279093
-0.266116
-0.255355
-0.246694
-0.239973
-0.234995
-0.231544
-0.229382
-0.22827
-0.227939
-0.228148
-0.22869
-0.229423
-0.229887
-0.230714
-0.22986
-0.232029
-0.228068
-0.234133
-0.231975
0.00290932
0.0058946
0.0100569
0.0132978
0.0170787
0.0204485
0.0240676
0.02751
0.0310769
0.034578
0.0381504
0.0417084
0.045313
0.0489242
0.0525664
0.0562179
0.0598845
0.0635501
0.0672091
0.0708444
0.0744416
0.0779787
0.0814323
0.0847722
0.0879641
0.0909663
0.09373
0.0961976
0.0983013
0.0999616
0.101085
0.101562
0.101264
0.100045
0.0977346
0.0941373
0.0890278
0.0821508
0.0732204
0.0619195
0.0479173
0.0308425
0.0102434
-0.0139102
-0.0421491
-0.0746418
-0.111345
-0.152136
-0.196617
-0.244149
-0.293846
-0.34461
-0.395201
-0.444318
-0.49069
-0.533165
-0.570768
-0.602744
-0.628574
-0.647975
-0.660855
-0.667357
-0.667834
-0.662544
-0.652091
-0.637068
-0.61813
-0.595975
-0.571308
-0.544815
-0.517149
-0.488928
-0.460709
-0.432989
-0.406211
-0.380752
-0.356925
-0.334978
-0.315099
-0.297409
-0.281966
-0.268768
-0.257755
-0.248816
-0.241798
-0.236511
-0.232745
-0.230271
-0.228859
-0.228269
-0.228274
-0.228612
-0.229177
-0.229488
-0.230174
-0.229228
-0.230802
-0.227335
-0.23139
-0.230389
0.00279895
0.00585866
0.00993418
0.013185
0.0169164
0.0202766
0.0238647
0.0272923
0.0308374
0.0343231
0.0378779
0.0414206
0.0450089
0.0486039
0.0522284
0.0558607
0.0595054
0.0631459
0.0667754
0.070376
0.0739319
0.0774197
0.0808143
0.0840838
0.0871912
0.0900925
0.0927358
0.0950599
0.0969929
0.0984505
0.099335
0.0995338
0.0989031
0.0972848
0.0944994
0.0903364
0.0845549
0.0768814
0.0670093
0.0545997
0.0392926
0.0206964
-0.0016459
-0.0278689
-0.0583721
-0.0933777
-0.132767
-0.176341
-0.223568
-0.27365
-0.325523
-0.377916
-0.429447
-0.478719
-0.524435
-0.565473
-0.600944
-0.630213
-0.652897
-0.668849
-0.678112
-0.681185
-0.677905
-0.669136
-0.655398
-0.637314
-0.615612
-0.591023
-0.564262
-0.536017
-0.506947
-0.477673
-0.448721
-0.420551
-0.393582
-0.368165
-0.344588
-0.323078
-0.303797
-0.286849
-0.27227
-0.260034
-0.250055
-0.242194
-0.236266
-0.23205
-0.229307
-0.227779
-0.227207
-0.227364
-0.227979
-0.228822
-0.22974
-0.23039
-0.231447
-0.230754
-0.234033
-0.229835
-0.242846
-0.23705
0.00285741
0.00585602
0.00998666
0.0132201
0.0169787
0.020336
0.023939
0.0273688
0.0309233
0.0344129
0.0379745
0.0415218
0.045116
0.0487163
0.0523472
0.0559863
0.0596391
0.0632889
0.0669296
0.0705435
0.0741153
0.0776224
0.0810401
0.0843373
0.087478
0.0904188
0.0931091
0.0954885
0.0974866
0.0990199
0.0999906
0.100285
0.099777
0.098313
0.0957154
0.0917797
0.0862723
0.0789283
0.0694505
0.0575099
0.0427605
0.024825
0.00319647
-0.0221003
-0.0516325
-0.0855547
-0.12379
-0.166178
-0.212247
-0.261274
-0.312271
-0.364042
-0.415264
-0.464576
-0.510688
-0.552459
-0.588959
-0.619501
-0.643643
-0.661182
-0.672091
-0.676584
-0.674967
-0.667754
-0.655461
-0.638704
-0.618181
-0.594608
-0.568716
-0.541186
-0.512659
-0.483748
-0.455003
-0.426912
-0.399903
-0.374339
-0.350522
-0.32869
-0.309019
-0.291624
-0.276555
-0.263801
-0.253291
-0.2449
-0.238461
-0.233768
-0.230593
-0.228687
-0.2278
-0.227678
-0.228075
-0.228758
-0.229573
-0.230112
-0.231032
-0.230201
-0.232909
-0.228603
-0.238155
-0.236066
-0.132796
-0.128971
-0.128141
-0.127575
-0.128389
-0.130242
-0.13341
-0.137979
-0.14415
-0.152128
-0.162144
-0.174515
-0.189726
-0.207542
-0.227964
-0.253789
-0.283605
-0.298344
-0.317744
-0.296358
-0.137564
-0.133955
-0.133288
-0.132925
-0.13394
-0.136019
-0.139435
-0.144271
-0.150728
-0.159018
-0.16941
-0.182306
-0.19839
-0.217546
-0.238879
-0.263903
-0.290876
-0.301599
-0.302993
-0.264954
-0.121323
-0.117206
-0.115967
-0.115009
-0.115393
-0.116808
-0.119507
-0.123596
-0.129286
-0.136806
-0.146476
-0.158734
-0.174115
-0.192879
-0.216499
-0.246604
-0.281297
-0.31025
-0.336475
-0.34871
-0.127386
-0.123413
-0.122379
-0.121624
-0.122231
-0.123872
-0.126815
-0.131157
-0.137111
-0.144908
-0.154856
-0.167396
-0.183027
-0.2015
-0.2232
-0.249871
-0.278655
-0.294497
-0.318126
-0.315623
-0.107496
-0.103021
-0.101382
-0.100004
-0.0999038
-0.100831
-0.103008
-0.10656
-0.111701
-0.118683
-0.127883
-0.13975
-0.154971
-0.174246
-0.199291
-0.230917
-0.272821
-0.319193
-0.354313
-0.396754
-0.114697
-0.11042
-0.108977
-0.107817
-0.107967
-0.10915
-0.111602
-0.115442
-0.120886
-0.128181
-0.137691
-0.149854
-0.165209
-0.184148
-0.208067
-0.237499
-0.273395
-0.309749
-0.333541
-0.3581
-0.0917061
-0.0866985
-0.0846501
-0.0828187
-0.08217
-0.0825359
-0.0841164
-0.0870464
-0.0915447
-0.0978754
-0.106443
-0.117711
-0.132527
-0.15156
-0.176913
-0.209628
-0.255562
-0.30868
-0.369847
-0.423913
-0.0998347
-0.095117
-0.0932722
-0.0916886
-0.0913184
-0.0919789
-0.0938708
-0.0971288
-0.10197
-0.108657
-0.11758
-0.129187
-0.144215
-0.163325
-0.188208
-0.219851
-0.26299
-0.311187
-0.353723
-0.393675
-0.0744979
-0.0687536
-0.0662545
-0.0637958
-0.0625319
-0.0622059
-0.0630681
-0.0652683
-0.0690044
-0.0744963
-0.0822013
-0.0925201
-0.106483
-0.124345
-0.149508
-0.18057
-0.228047
-0.281669
-0.363969
-0.419537
-0.0832498
-0.0778958
-0.0756266
-0.0735043
-0.0725658
-0.0726123
-0.0738622
-0.0764534
-0.0806021
-0.0865636
-0.0947589
-0.105627
-0.120101
-0.138661
-0.163987
-0.195993
-0.242095
-0.294349
-0.361468
-0.400769
-0.0569729
-0.0502882
-0.0473827
-0.0442137
-0.0423632
-0.0412088
-0.0411622
-0.042336
-0.0449222
-0.0490617
-0.0552915
-0.0638913
-0.0761612
-0.0913417
-0.114769
-0.139359
-0.186863
-0.228051
-0.324445
-0.363138
-0.0656923
-0.0594964
-0.0567838
-0.0539535
-0.0523711
-0.0516246
-0.0520408
-0.0537779
-0.0570194
-0.0619185
-0.0690163
-0.0786256
-0.0919598
-0.108626
-0.133251
-0.160864
-0.208197
-0.253002
-0.338082
-0.366036
-0.0401038
-0.0322467
-0.0292333
-0.02542
-0.0232404
-0.0216044
-0.0210535
-0.0215167
-0.0231266
-0.026424
-0.0314271
-0.0383122
-0.0482387
-0.0599961
-0.0791548
-0.095561
-0.138206
-0.150182
-0.251616
-0.213023
-0.0485416
-0.0412883
-0.0383041
-0.0348278
-0.0328445
-0.0314048
-0.0310511
-0.0317256
-0.0336569
-0.0371691
-0.0425774
-0.0501109
-0.0611333
-0.0744846
-0.0962088
-0.116294
-0.162197
-0.184296
-0.280862
-0.255045
-0.0220511
-0.0132444
-0.0095924
-0.0045046
-0.000689507
0.00241725
0.00471336
0.00611711
0.00647288
0.00545077
0.00298619
-0.00104866
-0.00717479
-0.0145581
-0.0251629
-0.0327534
-0.0476005
-0.0353054
-0.0606339
0.0702323
-0.0312269
-0.0227698
-0.0196747
-0.0152899
-0.0124769
-0.0103965
-0.00935854
-0.00942712
-0.0108131
-0.0139062
-0.0187181
-0.0254026
-0.0346954
-0.0456062
-0.0614804
-0.0742642
-0.102464
-0.0977197
-0.158574
-0.0439014
0.240799
0.239975
0.241264
0.240372
0.242248
0.241233
0.244298
0.243234
0.248354
0.247539
0.256403
0.25656
0.272561
0.275293
0.305702
0.314005
0.375468
0.38826
0.513156
0.39195
0.240787
0.239956
0.241235
0.240366
0.242206
0.241234
0.244241
0.243257
0.248297
0.247629
0.256384
0.256823
0.272669
0.275944
0.306018
0.315183
0.374845
0.386594
0.497033
0.338896
0.240822
0.240002
0.241305
0.24039
0.242311
0.241255
0.244393
0.243252
0.248499
0.247533
0.256621
0.256487
0.27293
0.275128
0.306645
0.314304
0.379746
0.396177
0.540306
0.500341
0.24081
0.239992
0.241283
0.240385
0.242276
0.241249
0.244338
0.243247
0.248413
0.24754
0.256492
0.256527
0.272714
0.275217
0.306122
0.314183
0.377418
0.392083
0.526374
0.449494
0.240839
0.24002
0.241338
0.240404
0.242359
0.241272
0.244466
0.243267
0.248608
0.247533
0.256786
0.256436
0.273205
0.274982
0.307305
0.314359
0.382447
0.401624
0.555832
0.585674
0.24083
0.240015
0.241323
0.2404
0.242335
0.241267
0.244428
0.243262
0.248548
0.247531
0.256686
0.256445
0.27302
0.274997
0.306844
0.314167
0.380688
0.398416
0.547481
0.549212
0.240847
0.240029
0.241352
0.240411
0.24238
0.241281
0.244499
0.243276
0.248659
0.247535
0.256863
0.256414
0.273331
0.274913
0.307599
0.314359
0.383551
0.404117
0.561728
0.626026
0.240844
0.240027
0.241347
0.240409
0.242372
0.241279
0.244486
0.243274
0.248637
0.247533
0.256826
0.256416
0.273262
0.274916
0.307425
0.314284
0.382922
0.402921
0.558975
0.612927
0.240844
0.240027
0.241347
0.240409
0.242372
0.241279
0.244486
0.243274
0.248637
0.247533
0.256826
0.256416
0.273262
0.274916
0.307425
0.314284
0.382922
0.402921
0.558975
0.612927
0.240847
0.240029
0.241352
0.240411
0.24238
0.241281
0.244499
0.243276
0.248659
0.247535
0.256863
0.256414
0.273331
0.274913
0.307599
0.314359
0.383551
0.404117
0.561728
0.626026
0.24083
0.240015
0.241323
0.2404
0.242335
0.241267
0.244428
0.243262
0.248548
0.247531
0.256686
0.256445
0.27302
0.274997
0.306844
0.314167
0.380688
0.398416
0.547481
0.549212
0.240839
0.24002
0.241338
0.240404
0.242359
0.241272
0.244466
0.243267
0.248608
0.247533
0.256786
0.256436
0.273205
0.274982
0.307305
0.314359
0.382447
0.401624
0.555832
0.585674
0.24081
0.239992
0.241283
0.240385
0.242276
0.241249
0.244338
0.243247
0.248413
0.24754
0.256492
0.256527
0.272714
0.275217
0.306122
0.314183
0.377418
0.392083
0.526374
0.449494
0.240822
0.240002
0.241305
0.24039
0.242311
0.241255
0.244393
0.243252
0.248499
0.247533
0.256621
0.256487
0.27293
0.275128
0.306645
0.314304
0.379746
0.396177
0.540306
0.500341
0.240787
0.239956
0.241235
0.240366
0.242206
0.241234
0.244241
0.243257
0.248297
0.247629
0.256384
0.256823
0.272669
0.275944
0.306018
0.315183
0.374845
0.386594
0.497033
0.338896
0.240799
0.239975
0.241264
0.240372
0.242248
0.241233
0.244298
0.243234
0.248354
0.247539
0.256403
0.25656
0.272561
0.275293
0.305702
0.314005
0.375468
0.38826
0.513156
0.39195
-0.0312269
-0.0227698
-0.0196747
-0.0152899
-0.0124769
-0.0103965
-0.00935854
-0.00942712
-0.0108131
-0.0139062
-0.0187181
-0.0254026
-0.0346954
-0.0456062
-0.0614804
-0.0742642
-0.102464
-0.0977197
-0.158574
-0.0439014
-0.0220511
-0.0132444
-0.00959241
-0.0045046
-0.000689512
0.00241724
0.00471335
0.00611711
0.00647287
0.00545077
0.00298619
-0.00104867
-0.0071748
-0.0145581
-0.0251629
-0.0327534
-0.0476005
-0.0353054
-0.0606339
0.0702323
-0.0485416
-0.0412883
-0.0383041
-0.0348278
-0.0328445
-0.0314048
-0.0310511
-0.0317257
-0.0336569
-0.0371691
-0.0425774
-0.0501109
-0.0611333
-0.0744846
-0.0962088
-0.116294
-0.162197
-0.184296
-0.280862
-0.255045
-0.0401038
-0.0322467
-0.0292333
-0.02542
-0.0232404
-0.0216045
-0.0210535
-0.0215167
-0.0231266
-0.026424
-0.0314271
-0.0383123
-0.0482387
-0.0599961
-0.0791548
-0.095561
-0.138206
-0.150182
-0.251616
-0.213023
-0.0656923
-0.0594964
-0.0567838
-0.0539536
-0.0523711
-0.0516246
-0.0520408
-0.0537779
-0.0570194
-0.0619185
-0.0690163
-0.0786256
-0.0919598
-0.108626
-0.133251
-0.160864
-0.208197
-0.253002
-0.338082
-0.366036
-0.0569729
-0.0502882
-0.0473827
-0.0442137
-0.0423633
-0.0412088
-0.0411622
-0.042336
-0.0449222
-0.0490617
-0.0552915
-0.0638913
-0.0761612
-0.0913417
-0.114769
-0.139359
-0.186863
-0.228051
-0.324445
-0.363138
-0.0832498
-0.0778958
-0.0756266
-0.0735043
-0.0725658
-0.0726123
-0.0738622
-0.0764534
-0.0806021
-0.0865636
-0.0947589
-0.105627
-0.120101
-0.138661
-0.163987
-0.195993
-0.242095
-0.294349
-0.361468
-0.400769
-0.0744979
-0.0687536
-0.0662545
-0.0637958
-0.0625319
-0.0622059
-0.0630681
-0.0652683
-0.0690044
-0.0744963
-0.0822013
-0.0925201
-0.106483
-0.124345
-0.149508
-0.18057
-0.228047
-0.281669
-0.363969
-0.419537
-0.0998347
-0.095117
-0.0932722
-0.0916886
-0.0913185
-0.0919789
-0.0938708
-0.0971288
-0.10197
-0.108657
-0.11758
-0.129187
-0.144215
-0.163325
-0.188208
-0.219851
-0.26299
-0.311187
-0.353723
-0.393675
-0.0917061
-0.0866985
-0.0846501
-0.0828187
-0.08217
-0.0825359
-0.0841164
-0.0870464
-0.0915447
-0.0978755
-0.106443
-0.117711
-0.132527
-0.15156
-0.176913
-0.209628
-0.255562
-0.30868
-0.369847
-0.423913
-0.114697
-0.11042
-0.108977
-0.107817
-0.107967
-0.10915
-0.111602
-0.115442
-0.120886
-0.128181
-0.137691
-0.149854
-0.165209
-0.184148
-0.208067
-0.237499
-0.273395
-0.309749
-0.333541
-0.3581
-0.107496
-0.103021
-0.101382
-0.100004
-0.0999038
-0.100831
-0.103008
-0.10656
-0.111701
-0.118683
-0.127883
-0.13975
-0.154971
-0.174246
-0.199291
-0.230917
-0.272821
-0.319193
-0.354313
-0.396754
-0.127386
-0.123413
-0.122379
-0.121624
-0.122231
-0.123872
-0.126815
-0.131157
-0.137111
-0.144908
-0.154856
-0.167396
-0.183027
-0.2015
-0.2232
-0.249871
-0.278655
-0.294497
-0.318126
-0.315623
-0.121323
-0.117206
-0.115967
-0.115009
-0.115393
-0.116808
-0.119507
-0.123596
-0.129286
-0.136806
-0.146476
-0.158734
-0.174115
-0.192879
-0.216499
-0.246604
-0.281297
-0.31025
-0.336475
-0.34871
-0.137564
-0.133955
-0.133288
-0.132925
-0.13394
-0.136019
-0.139435
-0.144271
-0.150728
-0.159018
-0.16941
-0.182306
-0.19839
-0.217546
-0.238879
-0.263903
-0.290876
-0.301599
-0.302993
-0.264954
-0.132796
-0.128971
-0.128141
-0.127575
-0.128389
-0.130242
-0.13341
-0.137979
-0.14415
-0.152128
-0.162144
-0.174515
-0.189726
-0.207542
-0.227964
-0.253789
-0.283605
-0.298344
-0.317744
-0.296358
0.00285741
0.00585602
0.00998666
0.0132201
0.0169787
0.020336
0.023939
0.0273688
0.0309233
0.0344129
0.0379745
0.0415218
0.045116
0.0487163
0.0523472
0.0559863
0.0596391
0.0632889
0.0669296
0.0705435
0.0741153
0.0776224
0.0810401
0.0843373
0.087478
0.0904188
0.0931091
0.0954885
0.0974866
0.0990199
0.0999906
0.100285
0.099777
0.098313
0.0957154
0.0917797
0.0862723
0.0789283
0.0694505
0.0575099
0.0427605
0.024825
0.00319647
-0.0221003
-0.0516325
-0.0855547
-0.12379
-0.166178
-0.212248
-0.261274
-0.312271
-0.364042
-0.415264
-0.464576
-0.510688
-0.552459
-0.588959
-0.619501
-0.643643
-0.661182
-0.672091
-0.676584
-0.674967
-0.667754
-0.655461
-0.638704
-0.618181
-0.594608
-0.568716
-0.541186
-0.512659
-0.483748
-0.455003
-0.426912
-0.399903
-0.374339
-0.350522
-0.32869
-0.309019
-0.291624
-0.276555
-0.263801
-0.253291
-0.2449
-0.238461
-0.233768
-0.230593
-0.228687
-0.2278
-0.227678
-0.228075
-0.228758
-0.229573
-0.230112
-0.231032
-0.230201
-0.232909
-0.228603
-0.238155
-0.236066
0.00279895
0.00585866
0.00993418
0.013185
0.0169164
0.0202766
0.0238647
0.0272923
0.0308374
0.0343231
0.0378779
0.0414206
0.0450089
0.0486039
0.0522284
0.0558607
0.0595054
0.0631459
0.0667754
0.070376
0.0739319
0.0774197
0.0808143
0.0840838
0.0871912
0.0900925
0.0927358
0.0950599
0.0969929
0.0984505
0.099335
0.0995338
0.0989031
0.0972847
0.0944994
0.0903364
0.0845549
0.0768814
0.0670093
0.0545997
0.0392926
0.0206964
-0.0016459
-0.0278689
-0.0583721
-0.0933777
-0.132767
-0.176341
-0.223568
-0.27365
-0.325523
-0.377916
-0.429447
-0.478719
-0.524435
-0.565473
-0.600944
-0.630213
-0.652897
-0.668849
-0.678112
-0.681185
-0.677905
-0.669136
-0.655398
-0.637314
-0.615612
-0.591023
-0.564262
-0.536017
-0.506947
-0.477673
-0.448721
-0.420551
-0.393582
-0.368165
-0.344588
-0.323078
-0.303797
-0.286849
-0.27227
-0.260034
-0.250055
-0.242194
-0.236266
-0.23205
-0.229307
-0.227779
-0.227207
-0.227364
-0.227979
-0.228822
-0.22974
-0.23039
-0.231447
-0.230754
-0.234033
-0.229835
-0.242846
-0.23705
0.00290932
0.0058946
0.0100569
0.0132978
0.0170787
0.0204485
0.0240676
0.02751
0.0310769
0.034578
0.0381504
0.0417084
0.045313
0.0489242
0.0525664
0.0562179
0.0598845
0.0635501
0.0672091
0.0708444
0.0744416
0.0779787
0.0814323
0.0847722
0.0879641
0.0909663
0.09373
0.0961976
0.0983013
0.0999616
0.101085
0.101562
0.101264
0.100045
0.0977346
0.0941373
0.0890278
0.0821508
0.0732204
0.0619195
0.0479173
0.0308425
0.0102434
-0.0139102
-0.0421491
-0.0746418
-0.111345
-0.152136
-0.196617
-0.244149
-0.293846
-0.34461
-0.395201
-0.444318
-0.49069
-0.533165
-0.570768
-0.602744
-0.628574
-0.647975
-0.660855
-0.667357
-0.667834
-0.662544
-0.652091
-0.637068
-0.61813
-0.595975
-0.571308
-0.544815
-0.517149
-0.488928
-0.460709
-0.432989
-0.406211
-0.380752
-0.356925
-0.334978
-0.315099
-0.297409
-0.281966
-0.268768
-0.257755
-0.248816
-0.241798
-0.236511
-0.232745
-0.230271
-0.228859
-0.228269
-0.228274
-0.228612
-0.229177
-0.229488
-0.230174
-0.229228
-0.230802
-0.227335
-0.23139
-0.230389
0.002888
0.00587528
0.0100205
0.0132599
0.0170278
0.020393
0.0240029
0.0274399
0.031
0.0344958
0.0380624
0.0416154
0.0452147
0.0488206
0.0524572
0.0561028
0.0597629
0.0634211
0.0670715
0.070697
0.0742826
0.0778061
0.0812436
0.0845644
0.0877335
0.0907085
0.0934399
0.0958688
0.0979262
0.0995309
0.100587
0.100982
0.100594
0.0992713
0.0968396
0.0930982
0.0878179
0.0807386
0.0715684
0.0599837
0.045645
0.0281754
0.00711663
-0.0175722
-0.0464265
-0.0796116
-0.117071
-0.158667
-0.203968
-0.252292
-0.302704
-0.354055
-0.405056
-0.454371
-0.500712
-0.542925
-0.580054
-0.611372
-0.636399
-0.654891
-0.666803
-0.672397
-0.671678
-0.665398
-0.65399
-0.638058
-0.618285
-0.595378
-0.570048
-0.542983
-0.514849
-0.486255
-0.45775
-0.429828
-0.402921
-0.377399
-0.35357
-0.331675
-0.311896
-0.294351
-0.279093
-0.266116
-0.255355
-0.246694
-0.239973
-0.234995
-0.231544
-0.229382
-0.22827
-0.227939
-0.228148
-0.22869
-0.229423
-0.229887
-0.230714
-0.22986
-0.232029
-0.228068
-0.234133
-0.231975
0.00293159
0.00593122
0.0101118
0.0133605
0.0171581
0.0205375
0.0241697
0.0276216
0.0311991
0.0347092
0.0382907
0.0418573
0.0454707
0.0490907
0.0527422
0.0564037
0.0600813
0.0637592
0.0674321
0.0710835
0.0746993
0.0782582
0.0817373
0.0851073
0.0883345
0.0913784
0.0941915
0.0967172
0.0988896
0.100631
0.10185
0.102439
0.102273
0.101211
0.099088
0.0957119
0.0908639
0.0842956
0.0757287
0.0648564
0.0513538
0.0348565
0.0149995
-0.00842781
-0.0357717
-0.0672642
-0.102893
-0.142546
-0.185878
-0.232306
-0.281012
-0.33097
-0.381002
-0.429854
-0.47628
-0.519127
-0.557395
-0.590289
-0.61724
-0.637904
-0.652155
-0.660082
-0.661988
-0.658043
-0.648909
-0.635133
-0.617347
-0.59623
-0.572476
-0.546768
-0.519763
-0.492077
-0.464276
-0.436868
-0.410303
-0.384967
-0.361182
-0.339205
-0.319228
-0.301379
-0.285721
-0.272258
-0.260936
-0.251652
-0.244262
-0.238586
-0.234426
-0.231566
-0.229783
-0.228846
-0.228542
-0.228607
-0.228932
-0.229049
-0.229433
-0.228481
-0.229085
-0.226175
-0.227591
-0.225001
0.00292203
0.00591572
0.0100869
0.0133334
0.0171227
0.0204987
0.0241246
0.0275728
0.0311454
0.0346519
0.0382293
0.0417924
0.045402
0.0490183
0.0526659
0.0563233
0.0599963
0.0636691
0.0673362
0.0709809
0.0745889
0.0781388
0.0816071
0.0849645
0.0881768
0.091203
0.093995
0.0964957
0.0986384
0.100344
0.101521
0.102061
0.101839
0.100712
0.0985107
0.0950428
0.0900862
0.0833897
0.0746715
0.0636202
0.0499084
0.0331675
0.0129966
-0.0107386
-0.0384663
-0.0703949
-0.106497
-0.146659
-0.190513
-0.237452
-0.28663
-0.336988
-0.387319
-0.436345
-0.482806
-0.525545
-0.563572
-0.596106
-0.6226
-0.642736
-0.656406
-0.663709
-0.664852
-0.660371
-0.650656
-0.636313
-0.617995
-0.596392
-0.572204
-0.546117
-0.518789
-0.490834
-0.462814
-0.435237
-0.408546
-0.383125
-0.359292
-0.337301
-0.317341
-0.299539
-0.283956
-0.270594
-0.259398
-0.250262
-0.243038
-0.237544
-0.233575
-0.230909
-0.229317
-0.228559
-0.228412
-0.228611
-0.229059
-0.229282
-0.229818
-0.22889
-0.229959
-0.226774
-0.229103
-0.226533
0.0029393
0.00595023
0.0101365
0.0133907
0.0171949
0.0205793
0.0242172
0.0276739
0.0312562
0.0347707
0.0383564
0.0419272
0.0455446
0.0491689
0.0528247
0.056491
0.0601737
0.0638573
0.0675366
0.0711953
0.0748195
0.0783882
0.0818787
0.0852621
0.0885051
0.0915675
0.0944022
0.0969535
0.0991561
0.100933
0.102194
0.102832
0.102725
0.101732
0.0996902
0.0964104
0.0916761
0.0852422
0.0768339
0.0661487
0.0528627
0.0366138
0.0170992
-0.00601881
-0.0329737
-0.0640183
-0.0991677
-0.138309
-0.181119
-0.227039
-0.275282
-0.324853
-0.374605
-0.423305
-0.469722
-0.512702
-0.551239
-0.58452
-0.611956
-0.633176
-0.648036
-0.656586
-0.659076
-0.655779
-0.647249
-0.634043
-0.616783
-0.596142
-0.57281
-0.547468
-0.520772
-0.493339
-0.46574
-0.438485
-0.412028
-0.38676
-0.363007
-0.341029
-0.321021
-0.303113
-0.287372
-0.273803
-0.262355
-0.252929
-0.245381
-0.239541
-0.235211
-0.232181
-0.230234
-0.22914
-0.228692
-0.228626
-0.228831
-0.228852
-0.229082
-0.228129
-0.228294
-0.225565
-0.226057
-0.222165
0.00293651
0.00594416
0.0101278
0.0133807
0.0171823
0.0205654
0.0242011
0.0276564
0.031237
0.0347501
0.0383344
0.0419039
0.04552
0.0491429
0.0527973
0.0564621
0.0601431
0.0638249
0.0675022
0.0711586
0.0747801
0.0783457
0.0818325
0.0852116
0.0884494
0.0915058
0.0943334
0.0968763
0.0990688
0.100834
0.10208
0.102702
0.102575
0.101561
0.0994931
0.0961825
0.0914117
0.0849346
0.0764751
0.0657293
0.0523724
0.0360427
0.0164131
-0.00680358
-0.0338889
-0.0650837
-0.100396
-0.139714
-0.182705
-0.228805
-0.277215
-0.326931
-0.376793
-0.425562
-0.472001
-0.514954
-0.553418
-0.586584
-0.61387
-0.634916
-0.649582
-0.657921
-0.660136
-0.656658
-0.647935
-0.634534
-0.617091
-0.596281
-0.572796
-0.547319
-0.520507
-0.492977
-0.465296
-0.437977
-0.411471
-0.386167
-0.362391
-0.340401
-0.320393
-0.302495
-0.286774
-0.273234
-0.261825
-0.252444
-0.244951
-0.239169
-0.234904
-0.231939
-0.230058
-0.229027
-0.228636
-0.22862
-0.22887
-0.228931
-0.229222
-0.228279
-0.228605
-0.225808
-0.226522
-0.222783
0.239333
0.239078
0.238963
0.238579
0.238145
0.237363
0.236403
0.235
0.233062
0.230638
0.226873
0.221896
0.214161
0.204443
0.189054
0.170992
0.141703
0.111105
0.0609904
0.0159553
0.239391
0.239088
0.239071
0.238644
0.238358
0.237545
0.236848
0.235437
0.23394
0.231479
0.228304
0.223593
0.216661
0.207761
0.193274
0.176968
0.148018
0.120285
0.0684284
0.0260183
0.239446
0.239107
0.239162
0.238713
0.238524
0.237705
0.237147
0.235785
0.234494
0.23218
0.22937
0.224989
0.218637
0.210416
0.196712
0.181577
0.153196
0.127076
0.0740459
0.0329722
0.239512
0.239132
0.239267
0.238791
0.238721
0.237886
0.23755
0.23618
0.235253
0.232975
0.230703
0.226572
0.221037
0.213439
0.200829
0.186859
0.15933
0.134867
0.0804673
0.040848
0.239585
0.239163
0.239381
0.238879
0.23893
0.238084
0.23795
0.236606
0.236024
0.23383
0.232135
0.228273
0.223669
0.216681
0.205388
0.192493
0.166169
0.1431
0.0873978
0.0489856
0.239665
0.2392
0.239503
0.238975
0.239152
0.238294
0.238381
0.237054
0.236845
0.234734
0.23367
0.230064
0.226526
0.220108
0.210372
0.198455
0.173721
0.151802
0.0949377
0.0574108
0.239751
0.239242
0.23963
0.239078
0.239384
0.238515
0.238829
0.237521
0.237705
0.235678
0.235298
0.231933
0.229591
0.223706
0.215786
0.204744
0.18205
0.161017
0.103248
0.0662335
0.239841
0.239289
0.239761
0.239186
0.239622
0.238744
0.239289
0.238003
0.238593
0.236654
0.237001
0.233871
0.232841
0.227444
0.221636
0.211352
0.191207
0.170775
0.112527
0.075504
0.239933
0.239339
0.239896
0.239298
0.239864
0.238979
0.239757
0.238496
0.239501
0.237655
0.238757
0.235863
0.23624
0.2313
0.227905
0.218287
0.201246
0.181105
0.123023
0.0852276
0.240028
0.239393
0.240032
0.239412
0.240108
0.239218
0.240228
0.238994
0.240417
0.23867
0.240548
0.237897
0.239752
0.235261
0.23455
0.225562
0.212233
0.192045
0.135037
0.0953762
0.240123
0.239448
0.240168
0.239528
0.240351
0.239457
0.240697
0.239494
0.241333
0.239692
0.242352
0.239957
0.243334
0.239317
0.241517
0.23313
0.224288
0.203647
0.14893
0.105899
0.240217
0.239505
0.240303
0.239642
0.24059
0.239695
0.241159
0.239989
0.242237
0.24071
0.244145
0.242026
0.246942
0.24345
0.248721
0.240978
0.237456
0.216034
0.165147
0.116679
0.240308
0.239563
0.240434
0.239755
0.240823
0.239928
0.241608
0.240476
0.24312
0.241714
0.245907
0.244087
0.250528
0.247633
0.256072
0.249109
0.25169
0.229466
0.184221
0.127537
0.240396
0.239621
0.240562
0.239865
0.241047
0.240154
0.24204
0.240948
0.243971
0.242694
0.247616
0.246118
0.254046
0.251834
0.263467
0.257534
0.266896
0.244202
0.206779
0.138302
0.240478
0.239679
0.240683
0.239969
0.241261
0.240369
0.242451
0.2414
0.244782
0.243637
0.249252
0.248097
0.257449
0.256012
0.270795
0.266241
0.282867
0.260323
0.233761
0.149011
0.240554
0.239735
0.240798
0.240068
0.241461
0.240573
0.242837
0.241826
0.245544
0.244533
0.250796
0.249997
0.260692
0.260118
0.277948
0.275174
0.299344
0.278038
0.265892
0.160132
0.240622
0.239789
0.240904
0.240158
0.241646
0.240761
0.243193
0.242221
0.246249
0.245369
0.252231
0.251791
0.263736
0.264087
0.284817
0.28423
0.316066
0.297544
0.303828
0.173004
0.240679
0.239847
0.241002
0.240239
0.241815
0.24093
0.243517
0.242579
0.246892
0.246129
0.253544
0.253443
0.266544
0.267834
0.291298
0.293246
0.332739
0.318977
0.348175
0.190446
0.240727
0.239885
0.24109
0.240305
0.241967
0.241076
0.243807
0.242893
0.247465
0.246807
0.254716
0.254935
0.269079
0.271299
0.297275
0.302049
0.348874
0.34243
0.397826
0.22088
0.240759
0.239965
0.241152
0.240387
0.242085
0.24123
0.244044
0.243197
0.247944
0.247435
0.255719
0.256296
0.271282
0.274481
0.302592
0.310431
0.364007
0.367338
0.451221
0.281869
0.240759
0.239965
0.241152
0.240387
0.242085
0.24123
0.244044
0.243197
0.247944
0.247435
0.255719
0.256296
0.271282
0.274481
0.302592
0.310431
0.364007
0.367338
0.451221
0.281869
0.240727
0.239885
0.24109
0.240305
0.241967
0.241076
0.243807
0.242893
0.247465
0.246807
0.254716
0.254935
0.269079
0.271299
0.297275
0.302049
0.348874
0.34243
0.397826
0.22088
0.240679