/*--------------------------------*- C++ -*----------------------------------*\
  =========                 |
  \\      /  F ield         | OpenFOAM: The Open Source CFD Toolbox
   \\    /   O peration     | Website:  https://openfoam.org
    \\  /    A nd           | Version:  7
     \\/     M anipulation  |
\*---------------------------------------------------------------------------*/
FoamFile
{
    version     2.0;
    format      ascii;
    class       volVectorField;
    location    "10";
    object      U;
}
// * * * * * * * * * * * * * * * * * * * * * * * * * * * * * * * * * * * * * //

dimensions      [0 1 -1 0 0 0 0];

internalField   nonuniform List<vector> 
50
(
(1.0013 -0.00161365 -3.86354e-18)
(1.0022 -0.00115939 -2.30703e-19)
(1.00365 -0.000974891 6.03208e-19)
(1.00584 -0.000648808 -9.96859e-20)
(1.00861 -0.000403134 4.73724e-19)
(0.999553 0.00160687 -5.2257e-18)
(0.998488 0.00144236 3.36543e-19)
(0.996913 0.00113736 -4.63078e-18)
(0.994517 0.000691833 2.67683e-19)
(0.991522 0.000185761 -5.10692e-18)
(1.0026 0.00106357 -1.09912e-18)
(1.00285 0.00234182 -4.8977e-18)
(1.00394 0.00273326 -1.29361e-18)
(1.00593 0.00349113 -5.28948e-18)
(1.00894 0.00379755 -1.10038e-18)
(1.00233 0.00694028 -5.88971e-20)
(1.0004 0.00786774 -6.98994e-20)
(0.997919 0.00763636 4.11174e-20)
(0.99396 0.00768728 -2.1525e-19)
(0.989138 0.00703411 -1.71957e-19)
(1.00728 0.00221739 -2.66191e-19)
(1.00637 0.00479915 -3.94386e-18)
(1.00667 0.00526715 -2.63644e-19)
(1.0075 0.00650482 -4.76508e-18)
(1.0093 0.00690765 -1.69369e-20)
(1.01015 0.0166331 1.62572e-19)
(1.00555 0.0207913 -3.33003e-18)
(1.00083 0.0204388 -5.95268e-19)
(0.994015 0.0214271 -5.17673e-18)
(0.986209 0.0196835 -3.99034e-19)
(1.02231 0.0156978 -4.43147e-19)
(1.01707 0.023313 -4.59055e-19)
(1.01335 0.024531 2.25871e-18)
(1.00905 0.0279887 -7.03778e-19)
(1.00584 0.0290478 1.09259e-18)
(1.0363 0.0404889 -2.10862e-18)
(1.02559 0.0549125 1.85505e-19)
(1.01517 0.0562836 1.84925e-18)
(1.00017 0.0625957 2.4098e-19)
(0.983184 0.0611693 -4.98661e-18)
(1.06809 0.051862 -2.02365e-17)
(1.05433 0.0727135 -1.13957e-18)
(1.04176 0.0775467 -6.78712e-18)
(1.02507 0.089612 -3.17096e-18)
(1.00718 0.0960589 -1.09846e-18)
(1.10952 0.101352 1.61832e-17)
(1.08944 0.141723 2.5657e-20)
(1.0719 0.154384 2.0901e-18)
(1.04509 0.184643 1.46774e-17)
(1.01471 0.201226 7.04555e-18)
)
;

boundaryField
{
    inlet
    {
        type            uniformFixedValue;
        uniformValue    constant (1 0 0);
        value           uniform (1 0 0);
    }
    outlet
    {
        type            pressureInletOutletVelocity;
        value           nonuniform 0();
    }
    polygon
    {
        type            fixedValue;
        value           nonuniform 0();
    }
    top
    {
        type            symmetryPlane;
    }
    bottom
    {
        type            symmetryPlane;
    }
    outside
    {
        type            zeroGradient;
    }
    procBoundary12to8
    {
        type            processor;
        value           nonuniform List<vector> 10((1.01192 -0.000180965 -4.04053e-18) (0.987941 -0.000216631 -5.80871e-18) (1.0129 0.0037825 -1.17139e-18) (0.983356 0.00647447 -3.60563e-20) (1.01195 0.00670756 -4.50684e-20) (0.977114 0.0183067 -1.66859e-18) (1.00356 0.0279687 7.71581e-18) (0.963119 0.060235 8.86299e-18) (0.986861 0.0994024 1.40309e-17) (0.970501 0.221043 5.83223e-18));
    }
    procBoundary12to9
    {
        type            processor;
        value           uniform (1.06299 0.242866 -1.37969e-19);
    }
    procBoundary12to13
    {
        type            processor;
        value           nonuniform List<vector> 4((1.15225 0.119719 -4.41171e-17) (1.13537 0.161202 4.29585e-19) (1.1208 0.176528 -3.40213e-18) (1.09291 0.212299 -2.79427e-17));
    }
}


// ************************************************************************* //
