/*--------------------------------*- C++ -*----------------------------------*\
  =========                 |
  \\      /  F ield         | OpenFOAM: The Open Source CFD Toolbox
   \\    /   O peration     | Website:  https://openfoam.org
    \\  /    A nd           | Version:  7
     \\/     M anipulation  |
\*---------------------------------------------------------------------------*/
FoamFile
{
    version     2.0;
    format      ascii;
    class       volScalarField;
    location    "5";
    object      p;
}
// * * * * * * * * * * * * * * * * * * * * * * * * * * * * * * * * * * * * * //

dimensions      [0 2 -2 0 0 0 0];

internalField   nonuniform List<scalar> 
50
(
-0.232236
-0.215026
-0.21013
-0.189413
-0.240232
-0.224184
-0.220911
-0.20213
-0.247603
-0.233204
-0.231861
-0.216603
-0.20897
-0.254157
-0.241519
-0.241924
-0.230243
-0.228314
-0.260389
-0.249417
-0.251362
-0.242778
-0.245833
-0.266619
-0.257194
-0.260479
-0.254491
-0.262013
-0.272862
-0.26491
-0.269287
-0.265601
-0.276895
-0.279015
-0.272486
-0.277676
-0.276047
-0.290372
-0.284964
-0.279798
-0.285424
-0.285619
-0.301614
-0.306897
-0.290697
-0.286761
-0.292475
-0.294083
-0.310999
-0.318469
)
;

boundaryField
{
    inlet
    {
        type            zeroGradient;
    }
    outlet
    {
        type            fixedValue;
        value           nonuniform 0();
    }
    polygon
    {
        type            zeroGradient;
    }
    top
    {
        type            symmetryPlane;
    }
    bottom
    {
        type            symmetryPlane;
    }
    outside
    {
        type            slip;
    }
    procBoundary13to9
    {
        type            processor;
        value           nonuniform List<scalar> 
12
(
-0.170923
-0.188058
-0.188058
-0.177834
-0.205272
-0.229794
-0.252348
-0.273234
-0.291436
-0.291436
-0.356506
-0.373326
)
;
    }
    procBoundary13to12
    {
        type            processor;
        value           nonuniform List<scalar> 4(-0.185654 -0.16466 -0.154024 -0.133699);
    }
    procBoundary13to14
    {
        type            processor;
        value           nonuniform List<scalar> 6(-0.296173 -0.293094 -0.298328 -0.300424 -0.316315 -0.32348);
    }
}


// ************************************************************************* //
