/*--------------------------------*- C++ -*----------------------------------*\
  =========                 |
  \\      /  F ield         | OpenFOAM: The Open Source CFD Toolbox
   \\    /   O peration     | Website:  https://openfoam.org
    \\  /    A nd           | Version:  7
     \\/     M anipulation  |
\*---------------------------------------------------------------------------*/
FoamFile
{
    version     2.0;
    format      ascii;
    class       surfaceScalarField;
    location    "5";
    object      phi;
}
// * * * * * * * * * * * * * * * * * * * * * * * * * * * * * * * * * * * * * //

dimensions      [0 3 -1 0 0 0 0];

internalField   nonuniform List<scalar> 
222
(
-0.000123348
0.0174891
-0.0175222
-9.54898e-05
0.0176621
-0.01769
-6.9034e-05
0.0177898
-0.0178162
-4.85661e-05
0.0180114
-0.0180318
-3.1241e-05
0.0182674
-0.0182848
0.0187095
-0.0187141
-0.000121521
0.017455
-9.25243e-05
0.0176332
-6.47803e-05
0.017762
-4.26756e-05
0.0179893
-2.3137e-05
0.0182479
0.0187017
-0.000119643
0.0174201
-8.94753e-05
0.017603
-6.04377e-05
0.017733
-3.65956e-05
0.0179654
-1.48069e-05
0.0182261
0.01869
-0.000117702
0.0173843
-8.63612e-05
0.0175716
-5.60144e-05
0.0177027
-3.03821e-05
0.0179398
-6.345e-06
0.0182021
0.0186748
-0.000115702
0.0173476
-8.31921e-05
0.0175391
-5.15344e-05
0.017671
-2.40722e-05
0.0179123
2.18697e-06
0.0181758
0.018656
-0.000113646
0.0173102
-7.99752e-05
0.0175055
-4.70113e-05
0.017638
-1.76784e-05
0.017883
1.10331e-05
0.0181471
0.0186336
-0.000111539
0.0172719
-7.67143e-05
0.0174706
-4.24521e-05
0.0176038
-1.11998e-05
0.0178517
1.98823e-05
0.018116
0.0186074
-0.000109381
0.0172328
-7.34141e-05
0.0174347
-3.78644e-05
0.0175682
-4.6121e-06
0.0178185
2.87622e-05
0.0180826
0.0185773
-0.000107176
0.017193
-7.008e-05
0.0173976
-3.32582e-05
0.0175314
1.96914e-06
0.0177833
3.76536e-05
0.018047
0.0185432
-0.000104926
-6.67119e-05
-2.86322e-05
8.28447e-06
4.65662e-05
-3.04186e-05
0.0185245
-0.0186322
7.02614e-05
0.0186526
-0.0187533
0.000169956
0.0187792
-0.0188789
0.000264151
0.0189611
-0.0190553
0.0192086
-0.0192998
-2.88505e-05
0.0184163
7.36028e-05
0.0185501
0.000175795
0.018677
0.000272945
0.0188639
0.0191141
-2.76528e-05
0.0183071
7.60675e-05
0.0184464
0.000179586
0.0185735
0.000278392
0.0187651
0.0190174
-2.65046e-05
0.0181972
7.83225e-05
0.0183416
0.000182989
0.0184688
0.000283204
0.0186649
0.018919
-2.53393e-05
0.0180866
8.05629e-05
0.0182357
0.000186371
0.018363
0.000288044
0.0185632
0.0188187
-2.41269e-05
0.0179752
8.28627e-05
0.0181287
0.00018985
0.018256
0.000293055
0.01846
0.000395507
0.0187162
0.0191223
-2.28709e-05
0.017863
8.52065e-05
0.0180206
0.000193385
0.0181478
0.000298139
0.0183553
0.000402744
0.0186116
0.0190246
-2.15793e-05
0.0177502
8.75719e-05
0.0179115
0.000196935
0.0180385
0.000303223
0.018249
0.00040999
0.0185049
0.018924
-2.02594e-05
0.0176366
8.99526e-05
0.0178013
0.000200488
0.0179279
0.000308295
0.0181412
0.000417228
0.0183959
0.0188206
-1.89127e-05
9.23503e-05
0.000204061
0.000313409
0.000424576
0.0170609
0.00183249
0.010645
0.0171859
0.00170444
0.00877568
0.0173291
0.00155622
0.00722585
0.0174475
0.00137913
0.00592003
0.0175718
)
;

boundaryField
{
    inlet
    {
        type            calculated;
        value           nonuniform 0();
    }
    outlet
    {
        type            calculated;
        value           nonuniform 0();
    }
    polygon
    {
        type            calculated;
        value           nonuniform 0();
    }
    top
    {
        type            symmetryPlane;
        value           uniform 0;
    }
    bottom
    {
        type            symmetryPlane;
        value           uniform 0;
    }
    outside
    {
        type            calculated;
        value           nonuniform List<scalar> 
22
(
0.000156486
0.000155595
0.000154586
0.000153501
0.000152343
0.000151113
0.000149815
0.00014845
0.000147021
0.000145529
0.000138123
0.000137125
0.000136786
0.000136404
0.000135983
0.000135519
0.000135012
0.000134461
0.000133868
0.000133237
0.00115317
0.00485956
)
;
    }
    procBoundary13to9
    {
        type            processor;
        value           nonuniform List<scalar> 
23
(
-2.66704e-05
-1.53063e-05
-3.0584e-06
8.85601e-06
2.0978e-05
3.34077e-05
4.60512e-05
5.88551e-05
7.17579e-05
8.478e-05
0.0003553
0.000367512
0.000375022
0.000381619
0.000388398
-0.0192172
0.000490361
0.000500451
0.000510562
0.000520674
0.000531044
-0.00202359
-0.0128839
)
;
    }
    procBoundary13to12
    {
        type            processor;
        value           nonuniform List<scalar> 5(-0.0168698 -0.0170579 -0.0171809 -0.0172704 -0.0173458);
    }
    procBoundary13to14
    {
        type            processor;
        value           nonuniform List<scalar> 6(0.0171524 0.0173594 0.0174933 0.0177463 0.0180087 0.018505);
    }
}


// ************************************************************************* //
