/*--------------------------------*- C++ -*----------------------------------*\
  =========                 |
  \\      /  F ield         | OpenFOAM: The Open Source CFD Toolbox
   \\    /   O peration     | Website:  https://openfoam.org
    \\  /    A nd           | Version:  7
     \\/     M anipulation  |
\*---------------------------------------------------------------------------*/
FoamFile
{
    version     2.0;
    format      ascii;
    class       volVectorField;
    location    "5";
    object      U;
}
// * * * * * * * * * * * * * * * * * * * * * * * * * * * * * * * * * * * * * //

dimensions      [0 1 -1 0 0 0 0];

internalField   nonuniform List<vector> 
125
(
(1.1396 0.081383 -2.80861e-18)
(1.15073 0.0933361 -1.8826e-19)
(1.15907 0.0981224 1.27639e-17)
(1.17342 0.113242 -9.12606e-18)
(1.1902 0.125004 -2.35254e-17)
(1.21886 0.147495 -2.72538e-17)
(1.14023 0.0808759 -2.21749e-18)
(1.15171 0.0920285 3.69269e-18)
(1.16012 0.0963485 1.54177e-17)
(1.17482 0.110751 -3.72892e-18)
(1.19174 0.121507 -2.13878e-17)
(1.22112 0.142894 -1.92692e-17)
(1.14082 0.0803298 -2.25827e-18)
(1.15265 0.0906891 3.33505e-18)
(1.16117 0.0945378 1.01688e-17)
(1.17628 0.108212 -3.63176e-18)
(1.19342 0.117926 -1.91381e-17)
(1.22363 0.138186 -1.16727e-17)
(1.14135 0.0797451 -2.14035e-18)
(1.15352 0.089318 7.01253e-18)
(1.16214 0.0926905 8.67226e-18)
(1.17763 0.105623 -7.66212e-18)
(1.19497 0.114264 -1.79227e-17)
(1.22593 0.133369 -1.67515e-17)
(1.14182 0.0791229 -1.64314e-18)
(1.15431 0.0879179 6.35822e-18)
(1.16302 0.0908108 8.01169e-18)
(1.17885 0.102994 -6.16803e-18)
(1.19633 0.110532 -1.14065e-17)
(1.22791 0.128464 -1.59079e-17)
(1.14224 0.0784647 -1.68221e-18)
(1.15503 0.0864915 9.82601e-18)
(1.16381 0.0889028 6.96093e-18)
(1.17993 0.100328 -1.01596e-17)
(1.19752 0.106742 -1.06806e-17)
(1.22962 0.123491 -1.48999e-17)
(1.14261 0.0777715 2.2845e-18)
(1.15567 0.0850405 8.71551e-18)
(1.16451 0.0869696 6.69203e-18)
(1.18089 0.097633 -9.16513e-18)
(1.19855 0.1029 -9.57084e-18)
(1.2311 0.118466 -8.46013e-18)
(1.14293 0.0770445 2.12754e-18)
(1.15624 0.0835669 1.19847e-17)
(1.16513 0.0850145 2.2959e-18)
(1.18173 0.094912 -9.31494e-18)
(1.19944 0.0990138 -1.40228e-17)
(1.23234 0.1134 -1.62844e-18)
(1.1432 0.0762847 -1.68527e-18)
(1.15673 0.0820727 6.92628e-18)
(1.16568 0.0830414 1.87663e-18)
(1.18245 0.0921707 -4.09333e-18)
(1.20018 0.0950934 -1.27819e-17)
(1.23333 0.108312 -1.62879e-18)
(1.14341 0.0754929 -1.37073e-18)
(1.15714 0.0805587 6.48084e-18)
(1.1661 0.0810491 1.64444e-18)
(1.18298 0.0894051 7.6935e-19)
(1.20064 0.0911256 -1.12825e-17)
(1.23384 0.103185 -2.03144e-18)
(1.13137 0.0845244 -7.69239e-18)
(1.13901 0.103907 -4.87143e-18)
(1.14676 0.113487 2.65049e-17)
(1.15796 0.135431 -9.53905e-19)
(1.17355 0.156433 -3.01239e-17)
(1.1332 0.0843274 -1.00344e-17)
(1.14139 0.102947 -7.34139e-18)
(1.14945 0.112033 2.44195e-17)
(1.16118 0.133316 -4.368e-18)
(1.17715 0.153463 -2.79178e-17)
(1.13412 0.0841033 -9.27688e-18)
(1.14268 0.101963 -6.66321e-18)
(1.15072 0.110563 2.2542e-17)
(1.16269 0.131186 -7.587e-18)
(1.17866 0.150468 -2.56034e-17)
(1.1348 0.0838551 -1.17567e-17)
(1.1437 0.100965 -6.1802e-18)
(1.15173 0.109082 1.75172e-17)
(1.16398 0.129039 -1.03995e-17)
(1.18007 0.147439 -2.34677e-17)
(1.13553 0.0835812 -1.06423e-17)
(1.14478 0.0999458 -5.53113e-18)
(1.15287 0.10758 1.6303e-17)
(1.16547 0.12686 -9.35552e-18)
(1.18178 0.144355 -1.75355e-17)
(1.13629 0.0832804 -9.72642e-18)
(1.1459 0.0989033 -5.29482e-18)
(1.15406 0.106054 1.49228e-17)
(1.16702 0.124646 -8.49187e-18)
(1.18355 0.141216 -1.56041e-17)
(1.20945 0.169532 -4.44876e-17)
(1.13703 0.0829531 -8.98945e-18)
(1.14698 0.0978381 -4.49824e-18)
(1.1552 0.104505 1.73284e-17)
(1.16848 0.122402 -7.41754e-18)
(1.18517 0.138029 -1.94549e-17)
(1.21172 0.165204 -4.21499e-17)
(1.13772 0.0825998 -8.56905e-18)
(1.14799 0.096752 -4.03618e-18)
(1.15626 0.102936 1.61458e-17)
(1.16984 0.120134 -6.35379e-18)
(1.18663 0.134801 -1.81223e-17)
(1.21379 0.160796 -3.97087e-17)
(1.13837 0.0822209 -7.9988e-18)
(1.14894 0.0956461 -2.33906e-19)
(1.15724 0.101348 1.48303e-17)
(1.1711 0.117845 -5.85443e-18)
(1.18795 0.131538 -1.71642e-17)
(1.21568 0.156328 -3.71406e-17)
(1.13898 0.0818179 -6.84123e-18)
(1.14982 0.0945217 -1.91598e-19)
(1.15815 0.0997407 1.38891e-17)
(1.17225 0.115524 -9.55421e-18)
(1.1891 0.128204 -2.05246e-17)
(1.2173 0.151726 -2.94476e-17)
(1.02305 0.0341225 2.05754e-18)
(1.06376 0.206447 3.7592e-18)
(1.03573 0.0313861 3.18544e-18)
(1.06564 0.171213 -9.21057e-18)
(1.04672 0.0286171 -2.1625e-19)
(1.07113 0.138024 3.25395e-18)
(1.05547 0.0271601 3.01401e-18)
(1.07596 0.119901 -1.31137e-17)
(1.06285 0.0208987 4.28302e-18)
(1.08223 0.0872944 -1.77826e-17)
)
;

boundaryField
{
    inlet
    {
        type            uniformFixedValue;
        uniformValue    constant (1 0 0);
        value           nonuniform 0();
    }
    outlet
    {
        type            pressureInletOutletVelocity;
        value           nonuniform 0();
    }
    polygon
    {
        type            fixedValue;
        value           nonuniform 0();
    }
    top
    {
        type            symmetryPlane;
    }
    bottom
    {
        type            symmetryPlane;
    }
    outside
    {
        type            zeroGradient;
    }
    procBoundary13to9
    {
        type            processor;
        value           nonuniform List<vector> 
23
(
(1.25198 0.174349 7.33422e-18)
(1.25482 0.167713 6.49387e-18)
(1.25818 0.160723 6.28538e-18)
(1.26129 0.153396 5.95739e-18)
(1.2639 0.14578 5.23464e-18)
(1.26608 0.13793 4.47422e-18)
(1.26788 0.129879 4.55219e-18)
(1.26933 0.121654 -3.16835e-18)
(1.27043 0.113301 -3.23493e-18)
(1.27072 0.104761 -2.94632e-18)
(1.196 0.189457 -4.25027e-17)
(1.20042 0.185706 -4.50279e-17)
(1.2024 0.181851 -4.75776e-17)
(1.20447 0.177874 -4.49327e-17)
(1.20695 0.173763 -4.72544e-17)
(1.20695 0.173763 -4.72544e-17)
(1.23847 0.204493 2.11088e-17)
(1.2421 0.198834 1.96482e-17)
(1.24529 0.192928 1.79774e-17)
(1.24805 0.186802 1.6693e-17)
(1.25019 0.180278 8.59175e-18)
(1.00817 0.0371721 3.32195e-18)
(1.063 0.251639 9.71862e-19)
)
;
    }
    procBoundary13to12
    {
        type            processor;
        value           nonuniform List<vector> 5((1.0257 0.0807246 9.06002e-18) (1.03198 0.0760758 6.23041e-18) (1.03465 0.067047 5.06514e-19) (1.03615 0.062919 1.08588e-18) (1.03802 0.0488409 -2.20693e-19));
    }
    procBoundary13to14
    {
        type            processor;
        value           nonuniform List<vector> 6((1.14359 0.0746831 -1.1931e-18) (1.15749 0.0790441 5.97429e-18) (1.16644 0.0791149 1.46304e-18) (1.1834 0.0867165 3.06441e-19) (1.20085 0.0873329 -1.01373e-17) (1.23413 0.0982628 -1.93292e-18));
    }
}


// ************************************************************************* //
