/*--------------------------------*- C++ -*----------------------------------*\
  =========                 |
  \\      /  F ield         | OpenFOAM: The Open Source CFD Toolbox
   \\    /   O peration     | Website:  https://openfoam.org
    \\  /    A nd           | Version:  7
     \\/     M anipulation  |
\*---------------------------------------------------------------------------*/
FoamFile
{
    version     2.0;
    format      ascii;
    class       volScalarField;
    location    "34";
    object      p;
}
// * * * * * * * * * * * * * * * * * * * * * * * * * * * * * * * * * * * * * //

dimensions      [0 2 -2 0 0 0 0];

internalField   nonuniform List<scalar> 
175
(
-0.1182
-0.126399
-0.136641
-0.149099
-0.164237
-0.18192
-0.202136
-0.115699
-0.123844
-0.134085
-0.146595
-0.161863
-0.179773
-0.200573
-0.113118
-0.121193
-0.13142
-0.143991
-0.159463
-0.177784
-0.199406
-0.110469
-0.118457
-0.12864
-0.141223
-0.156819
-0.175435
-0.197773
-0.107755
-0.115642
-0.125757
-0.138316
-0.153984
-0.17282
-0.195754
-0.104978
-0.112748
-0.122772
-0.135272
-0.150959
-0.169936
-0.193343
-0.218929
-0.10213
-0.109763
-0.119667
-0.132064
-0.147709
-0.16673
-0.190469
-0.216891
-0.0991935
-0.106662
-0.116403
-0.128635
-0.144154
-0.163099
-0.187018
-0.214214
-0.0961804
-0.103466
-0.11302
-0.125053
-0.140393
-0.159171
-0.183131
-0.211016
-0.0931989
-0.100357
-0.109794
-0.121723
-0.136987
-0.155668
-0.17956
-0.207626
-0.191409
-0.192201
-0.192821
-0.193231
-0.193387
-0.193264
-0.192835
-0.192078
-0.191015
-0.190264
-0.191082
-0.19484
-0.182052
-0.19044
-0.191073
-0.191503
-0.191686
-0.191578
-0.191149
-0.190344
-0.189074
-0.187374
-0.185925
-0.185781
-0.185332
-0.17702
-0.189277
-0.189706
-0.189889
-0.189771
-0.189307
-0.188447
-0.187105
-0.185156
-0.18266
-0.1802
-0.178217
-0.174991
-0.167579
-0.187932
-0.188107
-0.187984
-0.187505
-0.186614
-0.185251
-0.183308
-0.180662
-0.177366
-0.173768
-0.169948
-0.164776
-0.156431
-0.186438
-0.186331
-0.18588
-0.185023
-0.1837
-0.181838
-0.179323
-0.176044
-0.172005
-0.167342
-0.161984
-0.15524
-0.145604
-0.184875
-0.18449
-0.183723
-0.182512
-0.180791
-0.178475
-0.175454
-0.171619
-0.166923
-0.161356
-0.154792
-0.14675
-0.135913
-0.183339
-0.1827
-0.181651
-0.180126
-0.178053
-0.175344
-0.171889
-0.167578
-0.162321
-0.156033
-0.148557
-0.139487
-0.127722
-0.181908
-0.181046
-0.179753
-0.177958
-0.175586
-0.172545
-0.168726
-0.164016
-0.158301
)
;

boundaryField
{
    inlet
    {
        type            zeroGradient;
    }
    outlet
    {
        type            fixedValue;
        value           nonuniform 0();
    }
    polygon
    {
        type            zeroGradient;
    }
    top
    {
        type            symmetryPlane;
    }
    bottom
    {
        type            symmetryPlane;
    }
    outside
    {
        type            slip;
    }
    procBoundary10to2
    {
        type            processor;
        value           nonuniform List<scalar> 
24
(
-0.111721
-0.109293
-0.106799
-0.104251
-0.101649
-0.0989936
-0.0962823
-0.0935042
-0.0906618
-0.0878145
-0.151458
-0.143311
-0.133477
-0.121088
-0.18063
-0.179582
-0.178083
-0.176065
-0.173446
-0.170133
-0.166019
-0.160988
-0.151458
-0.154917
)
;
    }
    procBoundary10to3
    {
        type            processor;
        value           nonuniform List<scalar> 4(-0.186259 -0.18494 -0.183631 -0.1824);
    }
    procBoundary10to9
    {
        type            processor;
        value           nonuniform List<scalar> 3(-0.0900793 -0.0971906 -0.106619);
    }
    procBoundary10to11
    {
        type            processor;
        value           nonuniform List<scalar> 4(-0.190485 -0.189646 -0.18865 -0.187514);
    }
    procBoundary10to17
    {
        type            processor;
        value           nonuniform List<scalar> 5(-0.118586 -0.133934 -0.152639 -0.176316 -0.203378);
    }
    procBoundary10to18
    {
        type            processor;
        value           nonuniform List<scalar> 
24
(
-0.222974
-0.222314
-0.222043
-0.221454
-0.220421
-0.220421
-0.249342
-0.249622
-0.249211
-0.248204
-0.245331
-0.192166
-0.193075
-0.193838
-0.194422
-0.194781
-0.194887
-0.194703
-0.194253
-0.193534
-0.193261
-0.193055
-0.202376
-0.181443
)
;
    }
}


// ************************************************************************* //
