/*--------------------------------*- C++ -*----------------------------------*\
  =========                 |
  \\      /  F ield         | OpenFOAM: The Open Source CFD Toolbox
   \\    /   O peration     | Website:  https://openfoam.org
    \\  /    A nd           | Version:  7
     \\/     M anipulation  |
\*---------------------------------------------------------------------------*/
FoamFile
{
    version     2.0;
    format      ascii;
    class       surfaceScalarField;
    location    "94";
    object      phi;
}
// * * * * * * * * * * * * * * * * * * * * * * * * * * * * * * * * * * * * * //

dimensions      [0 3 -1 0 0 0 0];

internalField   nonuniform List<scalar> 
226
(
-0.0102927
-0.00170968
-0.0103654
-0.00175524
-0.0104349
-0.00179846
-0.0105009
-0.00183931
-0.0105634
-0.00187774
-0.0106223
-0.00191374
-0.0106774
-0.00194733
-0.0107289
-0.00197853
-0.0107767
-0.00200738
-0.010821
-0.00203396
-0.0108617
-0.00205832
-0.010899
-0.00208058
-0.010933
-0.00210083
-0.010964
-0.00211918
-0.010992
-0.00213575
-0.00215067
-0.00999426
-0.00161831
-0.0100832
-0.00166628
-0.0101694
-0.00171227
-0.0102525
-0.0017562
-0.0103323
-0.00179798
-0.0104084
-0.00183758
-0.0104808
-0.00187497
-0.0105492
-0.00191011
-0.0106136
-0.00194302
-0.0106738
-0.00197372
-0.0107299
-0.00200223
-0.0107819
-0.00202861
-0.0108298
-0.00205292
-0.0108737
-0.00207523
-0.0109139
-0.00209563
-0.00211422
-0.00954887
-0.00150682
-0.0096588
-0.00155635
-0.00976668
-0.00160439
-0.00987206
-0.00165082
-0.0099745
-0.00169554
-0.0100736
-0.00173847
-0.010169
-0.00177954
-0.0102605
-0.00181869
-0.0103476
-0.00185588
-0.0104303
-0.00189106
-0.0105082
-0.00192424
-0.0105814
-0.00195541
-0.0106498
-0.00198457
-0.0107133
-0.00201176
-0.0107719
-0.00203701
-0.00206037
-0.00897072
-0.00137598
-0.00910124
-0.00142583
-0.00923089
-0.00147475
-0.0093591
-0.00152261
-0.00948534
-0.00156931
-0.00960907
-0.00161474
-0.0097298
-0.00165881
-0.00984707
-0.00170143
-0.00996042
-0.00174252
-0.0100695
-0.00178201
-0.0101739
-0.00181984
-0.0102733
-0.00185596
-0.0103676
-0.00189033
-0.0104564
-0.00192292
-0.0105397
-0.00195372
-0.00198271
-0.00826424
-0.00122975
-0.00841175
-0.00127832
-0.00855996
-0.00132653
-0.0087083
-0.00137427
-0.00885617
-0.00142143
-0.00900298
-0.00146793
-0.00914814
-0.00151365
-0.00929107
-0.00155851
-0.00943119
-0.0016024
-0.00956798
-0.00164523
-0.00970089
-0.00168692
-0.00982947
-0.00172739
-0.00995324
-0.00176655
-0.0100718
-0.00180434
-0.0101848
-0.0018407
-0.00187556
-0.00744547
-0.00107438
-0.00760381
-0.00111998
-0.00776462
-0.00116572
-0.00792738
-0.00121151
-0.00809152
-0.00125729
-0.00825646
-0.00130298
-0.00842163
-0.00134849
-0.0085864
-0.00139373
-0.00875016
-0.00143863
-0.0089123
-0.0014831
-0.00907218
-0.00152704
-0.00922921
-0.00157036
-0.00938278
-0.00161299
-0.0095323
-0.00165482
-0.00967723
-0.00169577
-0.00173575
-0.00654338
-0.00091734
-0.0067049
-0.000958461
-0.00687052
-0.0010001
-0.00703983
-0.00104221
-0.00721238
-0.00108475
-0.00738769
-0.00112767
-0.00756526
-0.00117091
-0.00774457
-0.00121443
-0.00792503
-0.00125816
-0.00810608
-0.00130205
-0.0082871
-0.00134602
-0.00846746
-0.00139
-0.00864651
-0.00143393
-0.00882361
-0.00899807
-0.00559555
-0.00575253
-0.00591481
-0.00608213
-0.0062542
-0.00643069
-0.00661126
-0.00679551
-0.00698303
-0.00717337
-0.00736603
-0.0075605
)
;

boundaryField
{
    inlet
    {
        type            calculated;
        value           nonuniform 0();
    }
    outlet
    {
        type            calculated;
        value           nonuniform 0();
    }
    polygon
    {
        type            calculated;
        value           nonuniform 0();
    }
    top
    {
        type            symmetryPlane;
        value           uniform 0;
    }
    bottom
    {
        type            symmetryPlane;
        value           uniform 0;
    }
    outside
    {
        type            calculated;
        value           nonuniform List<scalar> 
16
(
0.00178548
0.00182796
0.00186793
0.00190535
0.00194023
0.0019726
0.00200251
0.00203001
0.0020552
0.00207817
0.00209902
0.00211788
0.00213488
0.00215015
0.00216382
0.00217603
)
;
    }
    procBoundary60to52
    {
        type            processor;
        value           nonuniform List<scalar> 
17
(
-0.00147772
-0.0015213
-0.00156457
-0.000765905
-0.000801486
-0.000837818
-0.000874888
-0.00091268
-0.000951173
-0.000990347
-0.00103018
-0.00107064
-0.00111171
-0.00115335
-0.00119553
-0.00775622
-0.00123821
)
;
    }
    procBoundary60to53
    {
        type            processor;
        value           uniform 0.00544412;
    }
    procBoundary60to59
    {
        type            processor;
        value           nonuniform List<scalar> 7(-0.0110174 -0.0109503 -0.0108257 -0.0106173 -0.010292 -0.00981704 -0.00916925);
    }
    procBoundary60to61
    {
        type            processor;
        value           nonuniform List<scalar> 7(0.0102169 0.00990289 0.00943737 0.00883988 0.008118 0.00729011 0.00638634);
    }
}


// ************************************************************************* //
