/*--------------------------------*- C++ -*----------------------------------*\
  =========                 |
  \\      /  F ield         | OpenFOAM: The Open Source CFD Toolbox
   \\    /   O peration     | Website:  https://openfoam.org
    \\  /    A nd           | Version:  7
     \\/     M anipulation  |
\*---------------------------------------------------------------------------*/
FoamFile
{
    version     2.0;
    format      ascii;
    class       volScalarField;
    location    "90";
    object      p;
}
// * * * * * * * * * * * * * * * * * * * * * * * * * * * * * * * * * * * * * //

dimensions      [0 2 -2 0 0 0 0];

internalField   nonuniform List<scalar> 
7360
(
-0.000754517
-0.00228047
-0.0038328
-0.00543035
-0.00705087
-0.0086717
-0.0102719
-0.0118313
-0.0133331
-0.0147642
-0.0161148
-0.0173772
-0.0185459
-0.0196194
-0.020597
-0.0214799
-0.0222705
-0.0229721
-0.0235889
-0.0241259
-0.0245883
-0.024982
-0.025313
-0.0255878
-0.0258126
-0.0259941
-0.0261387
-0.0262532
-0.0263437
-0.0264166
-0.0264777
-0.0265328
-0.0265872
-0.0266458
-0.026713
-0.0267931
-0.0268896
-0.0270059
-0.0271446
-0.0273083
-0.027499
-0.0277184
-0.027968
-0.0282488
-0.0285618
-0.0289076
-0.0292867
-0.0296994
-0.0301459
-0.0306262
-0.0311402
-0.0316879
-0.032269
-0.0328834
-0.0335308
-0.0342109
-0.0349234
-0.035668
-0.0364444
-0.0372524
-0.0380916
-0.038962
-0.0398636
-0.040796
-0.0417592
-0.0427506
-0.0437715
-0.044822
-0.0459014
-0.0470081
-0.0481404
-0.0493008
-0.0504883
-0.0517
-0.0529347
-0.0541907
-0.0554655
-0.0567564
-0.0580599
-0.0593716
-0.0606864
-0.061998
-0.0632984
-0.0645785
-0.0658266
-0.0670288
-0.0681685
-0.0692239
-0.070173
-0.0709777
-0.0716203
-0.072011
-0.0722118
-0.071911
-0.0716546
-0.0701097
-0.0698348
-0.0665633
-0.0669636
-0.062999
-0.000757407
-0.0022845
-0.00383717
-0.00543158
-0.0070479
-0.00866436
-0.0102604
-0.0118163
-0.0133152
-0.014744
-0.016093
-0.0173544
-0.0185226
-0.0195958
-0.0205736
-0.0214569
-0.0222481
-0.0229505
-0.0235683
-0.0241063
-0.0245699
-0.0249648
-0.0252972
-0.0255732
-0.0257994
-0.0259823
-0.0261283
-0.0262441
-0.0263359
-0.02641
-0.0264723
-0.0265285
-0.0265838
-0.0266432
-0.0267112
-0.0267919
-0.0268889
-0.0270054
-0.0271444
-0.0273082
-0.0274989
-0.0277181
-0.0279675
-0.028248
-0.0285605
-0.0289058
-0.0292843
-0.0296963
-0.0301421
-0.0306216
-0.0311348
-0.0316816
-0.0322619
-0.0328754
-0.0335218
-0.0342009
-0.0349124
-0.0356559
-0.0364313
-0.0372382
-0.0380762
-0.0389452
-0.0398444
-0.0407747
-0.0417347
-0.0427247
-0.0437443
-0.0447929
-0.0458701
-0.0469757
-0.0481094
-0.0492692
-0.0504554
-0.0516658
-0.0528988
-0.054153
-0.055426
-0.056715
-0.0580165
-0.0593261
-0.0606387
-0.0619479
-0.0632459
-0.0645233
-0.0657686
-0.0669677
-0.0681041
-0.0691558
-0.0701007
-0.0709003
-0.0715369
-0.07192
-0.072109
-0.0717906
-0.0714827
-0.0699344
-0.069503
-0.0663013
-0.0664787
-0.0623446
-0.000738474
-0.00226106
-0.00381184
-0.00542548
-0.00706642
-0.00870798
-0.0103273
-0.011903
-0.0134179
-0.0148591
-0.0162164
-0.0174834
-0.0186546
-0.0197287
-0.0207057
-0.0215866
-0.0223743
-0.0230721
-0.0236845
-0.0242164
-0.0246734
-0.0250614
-0.0253864
-0.025655
-0.0258736
-0.0260488
-0.0261873
-0.0262957
-0.0263804
-0.0264478
-0.0265038
-0.0265542
-0.0266044
-0.0266593
-0.0267235
-0.0268011
-0.0268957
-0.0270106
-0.0271486
-0.0273122
-0.0275033
-0.0277236
-0.0279745
-0.0282572
-0.0285725
-0.0289209
-0.029303
-0.0297191
-0.0301691
-0.0306533
-0.0311715
-0.0317236
-0.0323093
-0.0329285
-0.0335808
-0.034266
-0.0349838
-0.0357339
-0.0365159
-0.0373297
-0.038175
-0.0390515
-0.0399593
-0.0408985
-0.0418676
-0.0428636
-0.0438901
-0.0449476
-0.0460352
-0.0471501
-0.0482882
-0.0494542
-0.0506476
-0.0518661
-0.0531079
-0.0543711
-0.0556534
-0.056952
-0.0582635
-0.0595834
-0.0609067
-0.062227
-0.0635366
-0.0648261
-0.0660844
-0.0672973
-0.0684489
-0.0695179
-0.0704826
-0.0713071
-0.0719738
-0.0723973
-0.0726542
-0.0724107
-0.0723478
-0.0707805
-0.0712494
-0.0675909
-0.0696447
-0.0669382
-0.000748497
-0.00227274
-0.00382446
-0.00542845
-0.00705724
-0.0086865
-0.0102944
-0.0118604
-0.0133674
-0.0148022
-0.0161552
-0.0174198
-0.0185897
-0.0196635
-0.020641
-0.0215231
-0.0223125
-0.0230126
-0.0236277
-0.0241627
-0.0246229
-0.0250143
-0.025343
-0.0256152
-0.0258375
-0.0260165
-0.0261587
-0.0262706
-0.0263588
-0.0264294
-0.0264885
-0.0265417
-0.0265944
-0.0266515
-0.0267175
-0.0267966
-0.0268924
-0.0270081
-0.0271466
-0.0273103
-0.0275013
-0.0277211
-0.0279714
-0.0282531
-0.0285671
-0.0289141
-0.0292946
-0.0297088
-0.030157
-0.030639
-0.0311549
-0.0317046
-0.0322878
-0.0329043
-0.0335538
-0.034236
-0.0349507
-0.0356974
-0.0364759
-0.0372859
-0.0381271
-0.0389992
-0.0399015
-0.0408326
-0.0417938
-0.0427884
-0.0438117
-0.0448629
-0.045942
-0.0470507
-0.0481918
-0.049358
-0.0505474
-0.0517615
-0.0529988
-0.0542573
-0.0555347
-0.0568282
-0.0581342
-0.0594484
-0.0607657
-0.0620797
-0.0633827
-0.0646652
-0.0659159
-0.0671209
-0.0682638
-0.0693232
-0.0702776
-0.0710898
-0.0717439
-0.0721503
-0.0723785
-0.0720885
-0.0718908
-0.0703235
-0.0703402
-0.0669606
-0.0680913
-0.065345
-0.000702588
-0.0022288
-0.00377709
-0.0054203
-0.00709536
-0.00877033
-0.0104198
-0.0120207
-0.0135558
-0.0150124
-0.0163802
-0.0176532
-0.0188277
-0.0199024
-0.0208777
-0.0217553
-0.0225379
-0.0232295
-0.0238346
-0.0243585
-0.0248069
-0.0251857
-0.0255012
-0.02576
-0.0259688
-0.0261342
-0.0262631
-0.0263621
-0.0264379
-0.0264969
-0.0265451
-0.0265885
-0.0266324
-0.026682
-0.0267417
-0.0268158
-0.0269078
-0.0270211
-0.0271584
-0.0273221
-0.0275143
-0.0277365
-0.0279901
-0.0282763
-0.0285957
-0.028949
-0.0293366
-0.0297587
-0.0302154
-0.0307067
-0.0312324
-0.0317925
-0.0323867
-0.0330146
-0.033676
-0.0343706
-0.035098
-0.035858
-0.0366501
-0.0374741
-0.0383298
-0.0392167
-0.0401346
-0.0410833
-0.0420621
-0.0430703
-0.0441081
-0.0451756
-0.0462722
-0.0473969
-0.0485485
-0.0497271
-0.0509321
-0.0521622
-0.0534157
-0.0546908
-0.0559851
-0.0572957
-0.0586192
-0.0599513
-0.0612866
-0.0626189
-0.0639405
-0.065242
-0.0665123
-0.0677379
-0.0689028
-0.0699871
-0.0709697
-0.0718183
-0.0725144
-0.0729828
-0.0732938
-0.0731295
-0.0732901
-0.0717114
-0.0733191
-0.0688805
-0.0747691
-0.0725632
-0.000723687
-0.00224664
-0.00379625
-0.00542312
-0.00707961
-0.00873651
-0.0103696
-0.0119568
-0.0134807
-0.0149278
-0.0162883
-0.0175596
-0.018733
-0.0198078
-0.0207841
-0.0216637
-0.0224491
-0.0231441
-0.0237532
-0.0242816
-0.0247347
-0.0251185
-0.0254392
-0.0257034
-0.0259175
-0.0260883
-0.0262224
-0.0263265
-0.0264071
-0.0264706
-0.026523
-0.0265702
-0.0266175
-0.0266699
-0.026732
-0.026808
-0.0269015
-0.0270157
-0.0271535
-0.0273173
-0.027509
-0.0277304
-0.0279829
-0.0282674
-0.0285849
-0.0289358
-0.0293207
-0.0297398
-0.0301931
-0.0306807
-0.0312025
-0.0317582
-0.0323477
-0.0329706
-0.0336267
-0.0343157
-0.0350371
-0.0357908
-0.0365763
-0.0373933
-0.0382417
-0.039121
-0.0400309
-0.0409709
-0.0419416
-0.0429436
-0.0439752
-0.0450352
-0.0461235
-0.0472408
-0.0483878
-0.0495618
-0.050761
-0.051985
-0.0532322
-0.0545009
-0.0557886
-0.0570925
-0.058409
-0.0597339
-0.0610619
-0.0623866
-0.0637002
-0.0649934
-0.066255
-0.0674711
-0.0686257
-0.0696983
-0.0706679
-0.0715007
-0.0721817
-0.0726305
-0.0729231
-0.0726943
-0.0727037
-0.0711191
-0.072104
-0.0681746
-0.072006
-0.0709595
-0.000637971
-0.00219092
-0.00373832
-0.00542347
-0.00714248
-0.00885803
-0.010543
-0.0121732
-0.0137312
-0.0152049
-0.0165855
-0.0178619
-0.019039
-0.0201137
-0.0210861
-0.0219584
-0.0227341
-0.0234172
-0.0240127
-0.024526
-0.0249631
-0.0253302
-0.0256337
-0.0258803
-0.0260768
-0.0262301
-0.0263472
-0.0264348
-0.0264998
-0.0265487
-0.0265878
-0.026623
-0.0266599
-0.0267037
-0.026759
-0.02683
-0.0269205
-0.0270335
-0.0271719
-0.0273381
-0.027534
-0.0277612
-0.0280209
-0.0283141
-0.0286416
-0.0290038
-0.0294011
-0.0298337
-0.0303014
-0.0308044
-0.0313423
-0.0319149
-0.0325219
-0.033163
-0.0338378
-0.034546
-0.0352872
-0.0360611
-0.0368672
-0.0377053
-0.038575
-0.0394761
-0.0404082
-0.0413709
-0.042364
-0.0433872
-0.0444401
-0.0455225
-0.0466339
-0.0477738
-0.0489414
-0.0501361
-0.0513568
-0.0526024
-0.0538711
-0.0551609
-0.0564695
-0.0577935
-0.0591294
-0.0604725
-0.0618172
-0.0631567
-0.064483
-0.065786
-0.0670542
-0.0682735
-0.0694274
-0.070496
-0.0714578
-0.0722849
-0.0729576
-0.0734308
-0.0737451
-0.0736328
-0.0738578
-0.0725032
-0.0751548
-0.0706082
-0.083504
-0.0777083
-0.000674126
-0.00221191
-0.00375806
-0.00542145
-0.00711714
-0.00881133
-0.0104775
-0.0120918
-0.0136368
-0.0150996
-0.0164714
-0.0177474
-0.0189257
-0.0200018
-0.0209766
-0.0218524
-0.0226322
-0.0233202
-0.0239211
-0.0244403
-0.0248835
-0.0252569
-0.0255668
-0.0258199
-0.0260229
-0.0261826
-0.0263059
-0.0263996
-0.0264703
-0.0265246
-0.0265687
-0.0266084
-0.0266493
-0.0266964
-0.0267544
-0.0268274
-0.026919
-0.0270324
-0.0271705
-0.0273355
-0.0275294
-0.0277538
-0.0280101
-0.0282992
-0.0286218
-0.0289786
-0.0293698
-0.0297957
-0.0302563
-0.0307516
-0.0312814
-0.0318454
-0.0324435
-0.0330753
-0.0337405
-0.0344388
-0.0351698
-0.0359332
-0.0367288
-0.0375561
-0.0384151
-0.0393053
-0.0402266
-0.0411787
-0.0421615
-0.0431749
-0.0442185
-0.0452917
-0.0463942
-0.0475257
-0.0486856
-0.049873
-0.0510868
-0.0523257
-0.0535882
-0.0548725
-0.0561761
-0.057496
-0.0588288
-0.06017
-0.0615142
-0.0628549
-0.0641841
-0.0654924
-0.0667682
-0.0679976
-0.0691642
-0.0702476
-0.0712255
-0.0720665
-0.0727489
-0.0732088
-0.0735186
-0.073367
-0.0735452
-0.0720103
-0.0741595
-0.0693926
-0.0788606
-0.0767323
0.0330785
0.0366016
0.037196
0.0374597
0.0363255
0.0341178
0.0305668
0.0255893
0.0189851
0.0105508
5.86556e-05
-0.0128036
-0.028534
-0.0469071
-0.0678209
-0.0941188
-0.124497
-0.139404
-0.159098
-0.13761
0.0285146
0.0318062
0.0322218
0.0322611
0.0309003
0.0284369
0.0246061
0.0193267
0.012401
0.00361769
-0.00728778
-0.0207088
-0.0373408
-0.0571005
-0.07894
-0.104402
-0.131886
-0.142692
-0.144398
-0.105839
0.0441208
0.0479727
0.0490017
0.0496955
0.0490334
0.0473138
0.0442865
0.039848
0.0337892
0.0258804
0.0158034
0.00312021
-0.0127167
-0.0319634
-0.0560778
-0.0867108
-0.122001
-0.151585
-0.17786
-0.190528
0.0382755
0.0419639
0.0427759
0.0432483
0.0423431
0.0403725
0.0370744
0.0323543
0.0260003
0.0177812
0.00739222
-0.00560692
-0.0217346
-0.0407395
-0.0629549
-0.090151
-0.119477
-0.135676
-0.159422
-0.15697
0.057519
0.0617635
0.0632175
0.0643654
0.0642229
0.0630327
0.060573
0.056721
0.0512651
0.0439516
0.0344032
0.0221707
0.00655771
-0.0131333
-0.0386295
-0.0707566
-0.113275
-0.160286
-0.195861
-0.238639
0.0505304
0.0545594
0.0558053
0.0567187
0.0563088
0.0548425
0.0520857
0.0479218
0.042137
0.0344818
0.0245948
0.0120348
-0.00374739
-0.02314
-0.0475382
-0.0774805
-0.113974
-0.150969
-0.174908
-0.199687
0.0729104
0.0777155
0.0796008
0.0812323
0.0816683
0.0810739
0.0792472
0.0760569
0.0712867
0.0646699
0.0558005
0.0442153
0.029061
0.00966502
-0.0160852
-0.0492505
-0.0957294
-0.149427
-0.211369
-0.265627
0.0649762
0.0694781
0.0711486
0.0725182
0.072661
0.0717555
0.0695998
0.0660626
0.060929
0.0539344
0.0446872
0.0327387
0.0173455
-0.00215393
-0.0274605
-0.0595779
-0.103292
-0.152092
-0.195269
-0.235324
0.089768
0.0953319
0.0976873
0.099969
0.101045
0.101171
0.100088
0.0976526
0.0936864
0.0879464
0.0799777
0.0693845
0.0551274
0.0369538
0.0114433
-0.0200003
-0.0679583
-0.122062
-0.205145
-0.261041
0.081185
0.086348
0.0884639
0.0903983
0.0911368
0.0908765
0.0893944
0.086558
0.0821565
0.0759284
0.0674512
0.0562874
0.0414964
0.0225984
-0.00310125
-0.0355259
-0.0821397
-0.134926
-0.202817
-0.242259
0.107
0.113521
0.116298
0.119306
0.120994
0.121975
0.121812
0.120434
0.117648
0.113297
0.106827
0.0979874
0.0854603
0.07001
0.0462867
0.0213841
-0.0265302
-0.067964
-0.165187
-0.20419
0.0984199
0.104444
0.107021
0.109684
0.111091
0.111651
0.11102
0.109054
0.105607
0.100476
0.0931266
0.0832605
0.0696498
0.0526943
0.0277451
-0.000204715
-0.0479942
-0.0931442
-0.179014
-0.207204
0.123631
0.131333
0.134226
0.13789
0.139916
0.141397
0.141742
0.141179
0.139294
0.135837
0.130617
0.123526
0.113385
0.101388
0.0820143
0.0653048
0.0225017
0.0100291
-0.091843
-0.0531651
0.115306
0.122401
0.125261
0.128581
0.130411
0.131689
0.131831
0.13102
0.128845
0.12515
0.119512
0.111755
0.100496
0.0868863
0.064906
0.0444985
-0.00171549
-0.0241183
-0.1213
-0.0954736
0.141503
0.150165
0.153706
0.158677
0.162322
0.165292
0.167412
0.168687
0.168822
0.167644
0.164985
0.160765
0.154447
0.146862
0.136074
0.128264
0.113288
0.125397
0.10001
0.231218
0.132409
0.140714
0.143692
0.147946
0.150589
0.152522
0.153365
0.15317
0.15153
0.148278
0.143256
0.136375
0.126876
0.115745
0.0996715
0.086641
0.0582881
0.0627215
0.00166176
0.116639
0.403084
0.40225
0.403549
0.402645
0.404533
0.403501
0.40658
0.405491
0.410631
0.409781
0.418672
0.418776
0.434815
0.437464
0.467936
0.476109
0.537696
0.550283
0.675506
0.553816
0.403071
0.402231
0.403521
0.40264
0.40449
0.403502
0.406523
0.405515
0.410574
0.409871
0.418652
0.419039
0.434922
0.438116
0.468249
0.477287
0.537064
0.548613
0.659362
0.500632
0.403106
0.402277
0.403591
0.402663
0.404595
0.403522
0.406676
0.405509
0.410777
0.409774
0.418891
0.418702
0.435186
0.437298
0.468884
0.476407
0.541985
0.55821
0.702694
0.662438
0.403094
0.402267
0.403569
0.402658
0.404561
0.403516
0.40662
0.405505
0.410691
0.409782
0.418761
0.418742
0.43497
0.437388
0.468358
0.476287
0.539651
0.554111
0.688744
0.611482
0.403123
0.402296
0.403623
0.402676
0.404643
0.403539
0.406749
0.405524
0.410887
0.409773
0.419057
0.418649
0.435463
0.437151
0.469547
0.47646
0.544695
0.563667
0.718237
0.747925
0.403115
0.40229
0.403608
0.402673
0.40462
0.403534
0.406711
0.405519
0.410826
0.409772
0.418957
0.418659
0.435277
0.437167
0.469084
0.476269
0.542931
0.560454
0.709876
0.711397
0.403131
0.402304
0.403638
0.402683
0.404665
0.403547
0.406782
0.405532
0.410937
0.409775
0.419134
0.418628
0.43559
0.437082
0.469842
0.476459
0.545802
0.566165
0.724137
0.788342
0.403128
0.402302
0.403633
0.402682
0.404657
0.403546
0.406768
0.405531
0.410915
0.409774
0.419097
0.41863
0.435521
0.437085
0.469668
0.476386
0.545172
0.564967
0.721382
0.775221
0.403128
0.402302
0.403633
0.402682
0.404657
0.403546
0.406768
0.405531
0.410915
0.409774
0.419097
0.41863
0.435521
0.437085
0.469668
0.476386
0.545172
0.564967
0.721382
0.775221
0.403131
0.402304
0.403638
0.402683
0.404665
0.403547
0.406782
0.405532
0.410937
0.409775
0.419134
0.418628
0.43559
0.437082
0.469842
0.476459
0.545802
0.566165
0.724137
0.788342
0.403115
0.40229
0.403608
0.402673
0.40462
0.403534
0.406711
0.405519
0.410826
0.409772
0.418957
0.418659
0.435277
0.437167
0.469084
0.476269
0.542931
0.560454
0.709876
0.711397
0.403123
0.402296
0.403623
0.402676
0.404643
0.403539
0.406749
0.405524
0.410887
0.409773
0.419057
0.418649
0.435463
0.437151
0.469547
0.47646
0.544695
0.563667
0.718237
0.747925
0.403094
0.402267
0.403569
0.402658
0.404561
0.403516
0.40662
0.405505
0.410691
0.409782
0.418761
0.418742
0.43497
0.437388
0.468358
0.476287
0.539651
0.554111
0.688744
0.611482
0.403106
0.402277
0.403591
0.402663
0.404595
0.403522
0.406676
0.405509
0.410777
0.409774
0.418891
0.418702
0.435186
0.437298
0.468884
0.476407
0.541985
0.55821
0.702694
0.662439
0.403071
0.402231
0.403521
0.40264
0.40449
0.403502
0.406523
0.405515
0.410574
0.409871
0.418652
0.419039
0.434922
0.438116
0.468249
0.477287
0.537064
0.548613
0.659362
0.500633
0.403084
0.40225
0.403549
0.402645
0.404533
0.403501
0.40658
0.405491
0.410631
0.409781
0.418672
0.418776
0.434815
0.437464
0.467936
0.476109
0.537696
0.550283
0.675506
0.553817
0.13241
0.140714
0.143693
0.147947
0.150589
0.152523
0.153366
0.15317
0.151531
0.148279
0.143257
0.136376
0.126877
0.115746
0.0996725
0.086642
0.0582891
0.0627226
0.00166292
0.11664
0.141503
0.150165
0.153706
0.158678
0.162323
0.165293
0.167413
0.168687
0.168823
0.167645
0.164986
0.160766
0.154448
0.146862
0.136075
0.128265
0.113289
0.125398
0.100011
0.231219
0.115306
0.122401
0.125262
0.128581
0.130412
0.13169
0.131832
0.131021
0.128846
0.12515
0.119513
0.111756
0.100497
0.0868872
0.064907
0.0444995
-0.0017144
-0.0241171
-0.121299
-0.0954723
0.123631
0.131334
0.134227
0.13789
0.139917
0.141398
0.141743
0.14118
0.139294
0.135838
0.130618
0.123527
0.113385
0.101389
0.0820153
0.0653058
0.0225028
0.0100303
-0.0918417
-0.0531639
0.0984205
0.104445
0.107022
0.109684
0.111091
0.111651
0.111021
0.109055
0.105608
0.100477
0.0931274
0.0832614
0.0696507
0.0526953
0.0277461
-0.000203632
-0.047993
-0.093143
-0.179012
-0.207202
0.107
0.113521
0.116298
0.119306
0.120994
0.121976
0.121813
0.120435
0.117648
0.113298
0.106828
0.0979883
0.0854612
0.0700109
0.0462877
0.0213852
-0.0265291
-0.0679628
-0.165186
-0.204189
0.0811855
0.0863486
0.0884645
0.0903989
0.0911375
0.0908772
0.0893951
0.0865588
0.0821573
0.0759292
0.0674521
0.0562883
0.0414973
0.0225995
-0.00310016
-0.0355248
-0.0821385
-0.134925
-0.202816
-0.242257
0.0897686
0.0953324
0.0976879
0.0999696
0.101046
0.101172
0.100088
0.0976533
0.0936872
0.0879472
0.0799786
0.0693854
0.0551283
0.0369548
0.0114444
-0.0199991
-0.0679571
-0.122061
-0.205144
-0.261039
0.0649768
0.0694787
0.0711492
0.0725189
0.0726617
0.0717562
0.0696005
0.0660634
0.0609298
0.0539353
0.0446882
0.0327397
0.0173465
-0.00215283
-0.0274593
-0.0595767
-0.103291
-0.152091
-0.195267
-0.235322
0.0729109
0.0777161
0.0796014
0.081233
0.0816689
0.0810746
0.0792479
0.0760577
0.0712875
0.0646707
0.0558015
0.0442162
0.029062
0.00966608
-0.0160841
-0.0492493
-0.0957281
-0.149425
-0.211367
-0.265625
0.0505309
0.05456
0.0558058
0.0567193
0.0563094
0.0548432
0.0520865
0.0479226
0.0421378
0.0344828
0.0245958
0.0120359
-0.00374628
-0.0231388
-0.047537
-0.0774792
-0.113972
-0.150967
-0.174907
-0.199686
0.0575195
0.0617641
0.0632181
0.0643661
0.0642236
0.0630334
0.0605737
0.0567218
0.0512659
0.0439525
0.0344042
0.0221718
0.00655878
-0.0131321
-0.0386283
-0.0707554
-0.113274
-0.160285
-0.19586
-0.238638
0.038276
0.0419645
0.0427764
0.0432489
0.0423438
0.0403732
0.0370752
0.0323552
0.0260012
0.0177822
0.00739327
-0.0056058
-0.0217334
-0.0407382
-0.0629536
-0.0901496
-0.119476
-0.135675
-0.159421
-0.156969
0.0441213
0.0479732
0.0490023
0.0496961
0.049034
0.0473145
0.0442872
0.0398488
0.0337901
0.0258814
0.0158044
0.00312129
-0.0127156
-0.0319622
-0.0560765
-0.0867095
-0.122
-0.151584
-0.177859
-0.190526
0.028515
0.0318067
0.0322224
0.0322617
0.0309009
0.0284377
0.0246069
0.0193275
0.012402
0.00361873
-0.00728666
-0.0207075
-0.0373396
-0.0570992
-0.0789386
-0.1044
-0.131884
-0.14269
-0.144396
-0.105838
0.0330789
0.0366021
0.0371965
0.0374603
0.0363261
0.0341185
0.0305675
0.0255902
0.0189861
0.0105518
5.97422e-05
-0.0128024
-0.0285328
-0.0469058
-0.0678196
-0.0941175
-0.124496
-0.139402
-0.159097
-0.137609
-0.000674239
-0.00221221
-0.00375842
-0.00542175
-0.00711723
-0.00881107
-0.0104768
-0.0120905
-0.0136349
-0.0150971
-0.0164684
-0.0177436
-0.0189213
-0.0199968
-0.0209713
-0.0218468
-0.0226265
-0.0233145
-0.0239155
-0.024435
-0.0248786
-0.0252526
-0.0255632
-0.0258171
-0.0260209
-0.0261816
-0.0263059
-0.0264005
-0.0264722
-0.0265274
-0.0265723
-0.0266128
-0.0266544
-0.026702
-0.0267604
-0.0268337
-0.0269254
-0.0270388
-0.0271766
-0.0273413
-0.0275347
-0.0277586
-0.0280141
-0.0283023
-0.0286241
-0.0289799
-0.0293701
-0.0297949
-0.0302545
-0.0307487
-0.0312775
-0.0318407
-0.032438
-0.0330691
-0.0337337
-0.0344316
-0.0351624
-0.0359258
-0.0367214
-0.037549
-0.0384084
-0.0392992
-0.0402212
-0.0411741
-0.0421583
-0.0431731
-0.0442179
-0.0452922
-0.0463958
-0.0475281
-0.0486889
-0.0498772
-0.0510918
-0.0523313
-0.0535943
-0.0548788
-0.0561825
-0.0575023
-0.0588348
-0.0601754
-0.061519
-0.0628589
-0.0641873
-0.0654948
-0.0667697
-0.0679983
-0.0691641
-0.0702468
-0.0712242
-0.0720649
-0.072747
-0.0732068
-0.0735165
-0.073365
-0.0735434
-0.0720087
-0.0741581
-0.0693914
-0.0788594
-0.076731
-0.000638106
-0.00219126
-0.00373873
-0.00542382
-0.00714259
-0.00885775
-0.0105422
-0.0121718
-0.0137291
-0.015202
-0.0165818
-0.0178575
-0.0190341
-0.0201082
-0.0210801
-0.0219521
-0.0227276
-0.0234107
-0.0240064
-0.02452
-0.0249576
-0.0253253
-0.0256296
-0.0258771
-0.0260746
-0.026229
-0.0263472
-0.0264359
-0.026502
-0.0265519
-0.026592
-0.0266281
-0.0266657
-0.0267101
-0.0267659
-0.0268372
-0.0269277
-0.0270407
-0.0271789
-0.0273447
-0.02754
-0.0277664
-0.0280253
-0.0283176
-0.028644
-0.0290051
-0.0294012
-0.0298325
-0.0302991
-0.0308009
-0.0313377
-0.0319093
-0.0325155
-0.0331558
-0.0338301
-0.0345379
-0.0352789
-0.0360527
-0.0368591
-0.0376976
-0.0385679
-0.0394698
-0.0404028
-0.0413666
-0.0423608
-0.0433851
-0.0444393
-0.045523
-0.0466357
-0.0477768
-0.0489456
-0.0501413
-0.0513628
-0.0526089
-0.0538781
-0.0551681
-0.0564766
-0.0578004
-0.0591359
-0.0604784
-0.0618223
-0.063161
-0.0644862
-0.0657884
-0.0670556
-0.068274
-0.069427
-0.070495
-0.0714562
-0.072283
-0.0729554
-0.0734284
-0.0737428
-0.0736307
-0.0738558
-0.0725015
-0.0751533
-0.0706069
-0.0835028
-0.0777069
-0.000723761
-0.00224684
-0.00379649
-0.00542332
-0.00707967
-0.00873632
-0.0103691
-0.0119559
-0.0134793
-0.014926
-0.0162861
-0.0175569
-0.0187298
-0.0198042
-0.0207803
-0.0216596
-0.022445
-0.02314
-0.0237492
-0.0242777
-0.0247311
-0.0251153
-0.0254366
-0.0257013
-0.025916
-0.0260874
-0.0262222
-0.0263271
-0.0264084
-0.0264725
-0.0265256
-0.0265733
-0.0266211
-0.0266739
-0.0267363
-0.0268125
-0.026906
-0.0270203
-0.0271579
-0.0273215
-0.0275129
-0.0277339
-0.0279858
-0.0282698
-0.0285866
-0.0289369
-0.029321
-0.0297393
-0.0301919
-0.0306788
-0.0311998
-0.0317549
-0.0323438
-0.0329663
-0.033622
-0.0343106
-0.0350319
-0.0357855
-0.036571
-0.0373883
-0.0382369
-0.0391165
-0.0400266
-0.0409671
-0.0419406
-0.0429444
-0.043977
-0.0450377
-0.0461264
-0.0472434
-0.0483899
-0.0495646
-0.0507645
-0.0519888
-0.0532364
-0.0545053
-0.0557931
-0.0570969
-0.0584133
-0.0597379
-0.0610655
-0.0623896
-0.0637027
-0.0649953
-0.0662563
-0.0674718
-0.0686258
-0.0696979
-0.0706671
-0.0714996
-0.0721804
-0.0726291
-0.0729216
-0.0726929
-0.0727023
-0.0711179
-0.0721029
-0.0681737
-0.0720051
-0.0709584
-0.000702682
-0.00222904
-0.0037774
-0.00542055
-0.00709543
-0.0087701
-0.0104191
-0.0120196
-0.0135542
-0.0150101
-0.0163772
-0.0176499
-0.0188238
-0.0198981
-0.0208731
-0.0217504
-0.0225329
-0.0232245
-0.0238298
-0.0243539
-0.0248026
-0.0251819
-0.025498
-0.0257575
-0.025967
-0.0261333
-0.026263
-0.0263628
-0.0264395
-0.0264992
-0.0265482
-0.0265923
-0.0266368
-0.0266868
-0.0267469
-0.0268212
-0.0269134
-0.0270266
-0.0271638
-0.0273272
-0.027519
-0.0277407
-0.0279937
-0.0282791
-0.0285977
-0.0289502
-0.0293369
-0.0297581
-0.0302139
-0.0307043
-0.0312292
-0.0317885
-0.0323819
-0.0330092
-0.0336702
-0.0343644
-0.0350916
-0.0358515
-0.0366437
-0.037468
-0.0383241
-0.0392116
-0.0401303
-0.0410798
-0.0420586
-0.0430672
-0.0441059
-0.0451745
-0.0462724
-0.0473986
-0.0485517
-0.0497311
-0.0509367
-0.0521673
-0.0534212
-0.0546964
-0.0559907
-0.0573013
-0.0586245
-0.0599561
-0.0612909
-0.0626225
-0.0639434
-0.0652441
-0.0665137
-0.0677385
-0.0689028
-0.0699865
-0.0709686
-0.0718168
-0.0725127
-0.072981
-0.073292
-0.0731277
-0.0732885
-0.07171
-0.0733179
-0.0688795
-0.0747681
-0.072562
-0.000748535
-0.00227285
-0.00382459
-0.00542856
-0.00705727
-0.00868639
-0.0102941
-0.0118599
-0.0133666
-0.0148011
-0.0161539
-0.0174182
-0.0185879
-0.0196615
-0.0206388
-0.0215208
-0.0223102
-0.0230103
-0.0236254
-0.0241605
-0.0246209
-0.0250125
-0.0253415
-0.025614
-0.0258367
-0.026016
-0.0261586
-0.026271
-0.0263595
-0.0264305
-0.0264899
-0.0265435
-0.0265964
-0.0266537
-0.0267199
-0.0267991
-0.026895
-0.0270107
-0.0271492
-0.0273127
-0.0275035
-0.0277231
-0.0279731
-0.0282545
-0.0285681
-0.0289148
-0.0292948
-0.0297086
-0.0301563
-0.030638
-0.0311535
-0.0317028
-0.0322856
-0.0329018
-0.0335511
-0.0342332
-0.0349477
-0.0356944
-0.036473
-0.0372831
-0.0381244
-0.0389965
-0.0398988
-0.0408284
-0.0417951
-0.0427908
-0.0438146
-0.0448662
-0.0459454
-0.0470526
-0.0481915
-0.04936
-0.0505493
-0.0517634
-0.053001
-0.0542597
-0.0555372
-0.0568307
-0.0581366
-0.0594507
-0.0607678
-0.0620816
-0.0633842
-0.0646664
-0.0659167
-0.0671214
-0.068264
-0.0693231
-0.0702772
-0.0710893
-0.0717431
-0.0721495
-0.0723776
-0.0720877
-0.07189
-0.0703228
-0.0703396
-0.0669601
-0.0680907
-0.0653444
-0.00073853
-0.00226121
-0.00381203
-0.00542564
-0.00706647
-0.00870784
-0.0103269
-0.0119022
-0.0134169
-0.0148577
-0.0162146
-0.0174812
-0.0186521
-0.0197259
-0.0207026
-0.0215835
-0.022371
-0.0230688
-0.0236813
-0.0242134
-0.0246706
-0.0250589
-0.0253843
-0.0256533
-0.0258724
-0.0260482
-0.0261872
-0.0262961
-0.0263814
-0.0264493
-0.0265058
-0.0265567
-0.0266072
-0.0266625
-0.0267269
-0.0268046
-0.0268993
-0.0270143
-0.0271522
-0.0273155
-0.0275064
-0.0277264
-0.0279769
-0.0282591
-0.0285739
-0.0289218
-0.0293033
-0.0297188
-0.0301682
-0.0306518
-0.0311695
-0.031721
-0.0323063
-0.032925
-0.033577
-0.034262
-0.0349796
-0.0357296
-0.0365117
-0.0373256
-0.0381712
-0.0390481
-0.0399566
-0.0408974
-0.0418621
-0.0428577
-0.0438849
-0.0449432
-0.0460319
-0.0471496
-0.0482911
-0.0494569
-0.0506506
-0.0518695
-0.0531115
-0.0543748
-0.0556572
-0.0569557
-0.058267
-0.0595867
-0.0609097
-0.0622295
-0.0635387
-0.0648277
-0.0660854
-0.0672979
-0.068449
-0.0695176
-0.070482
-0.0713062
-0.0719728
-0.0723961
-0.072653
-0.0724095
-0.0723467
-0.0707795
-0.0712485
-0.0675902
-0.069644
-0.0669374
-0.000757414
-0.00228452
-0.0038372
-0.0054316
-0.0070479
-0.00866433
-0.0102603
-0.0118162
-0.013315
-0.0147437
-0.0160928
-0.0173541
-0.0185222
-0.0195954
-0.0205731
-0.0214564
-0.0222476
-0.02295
-0.0235678
-0.0241058
-0.0245695
-0.0249645
-0.0252969
-0.025573
-0.0257993
-0.0259822
-0.0261283
-0.0262442
-0.0263361
-0.0264102
-0.0264726
-0.0265288
-0.0265842
-0.0266436
-0.0267117
-0.0267924
-0.0268894
-0.027006
-0.0271449
-0.0273087
-0.0274993
-0.0277186
-0.0279678
-0.0282483
-0.0285607
-0.0289059
-0.0292844
-0.0296963
-0.030142
-0.0306214
-0.0311345
-0.0316813
-0.0322615
-0.0328749
-0.0335213
-0.0342004
-0.0349118
-0.0356553
-0.0364306
-0.0372374
-0.0380753
-0.0389442
-0.039845
-0.040775
-0.0417359
-0.0427267
-0.0437465
-0.0447951
-0.0458721
-0.0469771
-0.0481103
-0.0492707
-0.050455
-0.0516655
-0.0528989
-0.0541533
-0.0554264
-0.0567155
-0.058017
-0.0593266
-0.0606392
-0.0619483
-0.0632463
-0.0645236
-0.0657688
-0.0669679
-0.0681042
-0.0691558
-0.0701006
-0.0709002
-0.0715368
-0.0719198
-0.0721088
-0.0717904
-0.0714826
-0.0699342
-0.0695029
-0.0663011
-0.0664785
-0.0623445
-0.00075454
-0.00228054
-0.00383288
-0.00543041
-0.00705089
-0.00867163
-0.0102717
-0.0118309
-0.0133327
-0.0147636
-0.016114
-0.0173762
-0.0185448
-0.0196181
-0.0205957
-0.0214785
-0.022269
-0.0229706
-0.0235875
-0.0241245
-0.0245871
-0.0249809
-0.0253121
-0.025587
-0.0258121
-0.0259938
-0.0261387
-0.0262533
-0.0263441
-0.0264172
-0.0264786
-0.0265339
-0.0265884
-0.0266471
-0.0267145
-0.0267947
-0.0268912
-0.0270075
-0.0271462
-0.0273098
-0.0275004
-0.0277197
-0.0279691
-0.0282497
-0.0285625
-0.028908
-0.0292869
-0.0296993
-0.0301455
-0.0306255
-0.0311393
-0.0316868
-0.0322677
-0.0328819
-0.0335292
-0.0342091
-0.0349215
-0.0356661
-0.0364426
-0.0372506
-0.0380901
-0.0389607
-0.0398613
-0.0407953
-0.0417566
-0.0427474
-0.0437684
-0.0448193
-0.0458994
-0.0470076
-0.0481414
-0.0493006
-0.0504901
-0.051702
-0.0529366
-0.0541925
-0.0554673
-0.0567581
-0.0580615
-0.0593731
-0.0606877
-0.0619991
-0.0632994
-0.0645791
-0.0658271
-0.067029
-0.0681685
-0.0692238
-0.0701728
-0.0709773
-0.0716199
-0.0720104
-0.0722113
-0.0719105
-0.0716541
-0.0701093
-0.0698344
-0.066563
-0.0669633
-0.0629986
0.40162
0.401364
0.401252
0.400869
0.400438
0.399656
0.398696
0.397287
0.395344
0.392923
0.389163
0.384206
0.376484
0.3668
0.351438
0.333446
0.304221
0.273785
0.223852
0.179199
0.401677
0.401373
0.401359
0.400932
0.400649
0.399835
0.399137
0.397724
0.396224
0.393764
0.390594
0.3859
0.378978
0.370109
0.355641
0.339404
0.3105
0.282924
0.231213
0.189161
0.401732
0.401392
0.40145
0.401
0.400814
0.399994
0.399438
0.398071
0.396775
0.394465
0.391657
0.387293
0.380947
0.372757
0.359066
0.343998
0.315651
0.289683
0.236769
0.19604
0.401798
0.401416
0.401555
0.401078
0.40101
0.400174
0.399837
0.398465
0.397536
0.395259
0.392989
0.388873
0.383341
0.375773
0.36317
0.349264
0.321753
0.297437
0.243118
0.203829
0.401871
0.401447
0.401669
0.401165
0.401219
0.40037
0.400237
0.39889
0.398306
0.396113
0.394418
0.390569
0.385967
0.379005
0.367714
0.354878
0.328559
0.30563
0.249973
0.211872
0.401951
0.401483
0.40179
0.40126
0.40144
0.400579
0.400668
0.399336
0.399127
0.397015
0.395952
0.392355
0.388817
0.382423
0.372684
0.360821
0.336079
0.31429
0.257433
0.220202
0.402037
0.401525
0.401916
0.401362
0.401671
0.400798
0.401114
0.399801
0.399986
0.397957
0.397579
0.39422
0.391877
0.386011
0.378085
0.367089
0.344375
0.323461
0.265661
0.228929
0.402126
0.401571
0.402048
0.401469
0.401909
0.401026
0.401574
0.400282
0.400874
0.39893
0.39928
0.396151
0.395122
0.389738
0.383921
0.373674
0.3535
0.333173
0.274859
0.2381
0.402219
0.40162
0.402182
0.40158
0.402151
0.40126
0.402042
0.400772
0.401781
0.399928
0.401035
0.398138
0.398517
0.393582
0.390178
0.380586
0.36351
0.343456
0.285276
0.24772
0.402313
0.401673
0.402318
0.401693
0.402394
0.401497
0.402512
0.401269
0.402697
0.400941
0.402825
0.400166
0.402025
0.397531
0.396812
0.387837
0.37447
0.354348
0.297214
0.257765
0.402408
0.401728
0.402454
0.401808
0.402637
0.401735
0.402981
0.401767
0.403613
0.401959
0.404627
0.402219
0.405604
0.401574
0.403771
0.395382
0.386501
0.365901
0.311038
0.268184
0.402502
0.401785
0.402588
0.401922
0.402876
0.401971
0.403442
0.40226
0.404516
0.402974
0.40642
0.404283
0.409209
0.405695
0.41097
0.403206
0.399651
0.378238
0.327195
0.27886
0.402593
0.401842
0.40272
0.402034
0.403108
0.402203
0.403891
0.402745
0.405399
0.403975
0.408181
0.406337
0.412793
0.409867
0.418316
0.411314
0.413873
0.39162
0.346221
0.28961
0.402681
0.401899
0.402847
0.402142
0.403332
0.402428
0.404323
0.403215
0.40625
0.404952
0.409889
0.408362
0.416309
0.414056
0.425707
0.419717
0.429073
0.40631
0.368745
0.300264
0.402763
0.401956
0.402969
0.402246
0.403546
0.402642
0.404734
0.403665
0.40706
0.405892
0.411524
0.410335
0.41971
0.418224
0.433033
0.428403
0.445044
0.422392
0.395714