/*--------------------------------*- C++ -*----------------------------------*\
  =========                 |
  \\      /  F ield         | OpenFOAM: The Open Source CFD Toolbox
   \\    /   O peration     | Website:  https://openfoam.org
    \\  /    A nd           | Version:  7
     \\/     M anipulation  |
\*---------------------------------------------------------------------------*/
FoamFile
{
    version     2.0;
    format      ascii;
    class       volVectorField;
    location    "90";
    object      U;
}
// * * * * * * * * * * * * * * * * * * * * * * * * * * * * * * * * * * * * * //

dimensions      [0 1 -1 0 0 0 0];

internalField   nonuniform List<vector> 
7360
(
(-0.316681 -1.9558e-05 5.22885e-20)
(-0.31676 -8.44051e-05 1.80064e-19)
(-0.316981 -0.000185801 2.42296e-19)
(-0.317382 -0.000271149 1.0065e-18)
(-0.317899 -0.000322461 -3.83633e-19)
(-0.318467 -0.00033371 9.77172e-19)
(-0.319019 -0.00030486 7.75703e-19)
(-0.319495 -0.000240424 -6.70782e-19)
(-0.319842 -0.00014673 1.80599e-18)
(-0.320023 -3.01795e-05 2.67567e-18)
(-0.320006 0.000101308 3.07292e-19)
(-0.319769 0.000244895 1.91557e-18)
(-0.319299 0.000395089 2.05801e-18)
(-0.318589 0.000548064 2.8559e-18)
(-0.317639 0.000700781 5.59012e-19)
(-0.316451 0.000850729 2.85018e-18)
(-0.315033 0.000995883 6.84057e-18)
(-0.313392 0.00113463 -1.31841e-18)
(-0.311542 0.00126569 4.33311e-18)
(-0.309494 0.00138803 8.3155e-18)
(-0.307263 0.00150082 -9.2265e-19)
(-0.304864 0.0016034 5.90745e-19)
(-0.302314 0.00169519 5.62467e-18)
(-0.29963 0.00177574 -1.58587e-18)
(-0.296829 0.00184466 1.66078e-18)
(-0.29393 0.00190166 6.90063e-18)
(-0.290951 0.00194652 1.17615e-18)
(-0.28791 0.00197916 5.41623e-18)
(-0.284827 0.00199958 1.05035e-17)
(-0.281721 0.00200794 -4.6573e-19)
(-0.278608 0.00200451 3.08309e-18)
(-0.275508 0.00198971 2.34703e-18)
(-0.272437 0.00196408 -8.40732e-19)
(-0.269412 0.00192827 4.09734e-18)
(-0.266446 0.00188306 1.18694e-18)
(-0.263555 0.00182926 2.13997e-19)
(-0.26075 0.0017678 3.22505e-18)
(-0.258043 0.0016996 1.08994e-18)
(-0.255444 0.00162563 4.04538e-18)
(-0.252961 0.00154685 1.90097e-18)
(-0.2506 0.00146421 1.94074e-18)
(-0.248368 0.00137864 9.42401e-18)
(-0.246269 0.00129103 3.70973e-18)
(-0.244304 0.00120224 1.553e-18)
(-0.242476 0.00111307 2.95616e-19)
(-0.240786 0.00102426 -3.94809e-18)
(-0.239231 0.000936522 7.47107e-18)
(-0.237812 0.000850485 3.04684e-19)
(-0.236524 0.000766727 -2.59445e-18)
(-0.235364 0.000685762 9.22687e-18)
(-0.234329 0.000608039 3.66297e-18)
(-0.233412 0.000533943 -2.20107e-18)
(-0.232609 0.000463799 -6.4962e-19)
(-0.231914 0.000397872 3.41443e-18)
(-0.231319 0.000336371 3.21822e-19)
(-0.230819 0.000279452 2.41205e-18)
(-0.230406 0.000227226 1.57929e-18)
(-0.230072 0.000179753 7.62613e-18)
(-0.229811 0.000137086 4.46209e-18)
(-0.229616 9.92318e-05 9.11611e-19)
(-0.229477 6.61981e-05 7.07979e-18)
(-0.229389 3.79622e-05 8.23579e-18)
(-0.229344 1.44067e-05 3.4253e-18)
(-0.229334 -7.14602e-06 -6.78962e-20)
(-0.22935 -2.46176e-05 -3.89724e-18)
(-0.229386 -3.51996e-05 -6.81924e-18)
(-0.229434 -4.11048e-05 -9.90939e-19)
(-0.229485 -4.26323e-05 1.34032e-18)
(-0.229532 -3.94729e-05 2.67956e-18)
(-0.229566 -3.01704e-05 -6.98091e-19)
(-0.229579 -1.22296e-05 -5.46036e-18)
(-0.229561 1.11812e-05 -4.26723e-18)
(-0.229502 3.76737e-05 -2.28736e-18)
(-0.229389 7.09198e-05 -6.86887e-18)
(-0.229211 0.000112632 1.95845e-18)
(-0.228954 0.000163764 -9.34331e-19)
(-0.228603 0.000225583 -3.80495e-18)
(-0.228139 0.000299679 -4.45622e-19)
(-0.227542 0.000388021 1.01606e-18)
(-0.226789 0.000492974 -1.86958e-18)
(-0.225851 0.000617468 -9.86705e-19)
(-0.224696 0.000765111 7.48308e-19)
(-0.223286 0.000940376 -1.08922e-17)
(-0.221573 0.00114888 -5.09671e-18)
(-0.219503 0.00139773 -5.45392e-18)
(-0.217008 0.00169605 9.15189e-19)
(-0.214003 0.00205564 -1.82665e-18)
(-0.210391 0.00249202 8.58349e-18)
(-0.206027 0.00302618 1.25134e-17)
(-0.200781 0.0036846 4.0319e-19)
(-0.194364 0.00451099 2.1273e-17)
(-0.186685 0.00553687 5.9562e-18)
(-0.176972 0.0068999 8.87135e-18)
(-0.165656 0.00850083 6.41949e-18)
(-0.15024 0.0109497 -2.90284e-18)
(-0.133277 0.013202 -5.07323e-20)
(-0.108493 0.0177852 1.02051e-17)
(-0.0813504 0.0197752 -1.04957e-17)
(-0.0465203 0.0235506 1.47379e-17)
(-0.0106307 0.0173673 -7.99621e-19)
(-0.319875 -6.20543e-06 -4.01729e-20)
(-0.319939 -2.78138e-05 8.01729e-20)
(-0.320137 -6.14968e-05 -2.32719e-19)
(-0.3205 -9.03133e-05 -5.50301e-20)
(-0.320975 -0.000108087 2.66872e-20)
(-0.321498 -0.000112655 -9.6033e-19)
(-0.322006 -0.000103847 5.54906e-19)
(-0.322439 -8.30347e-05 -1.31539e-19)
(-0.322745 -5.22215e-05 1.24842e-18)
(-0.322885 -1.34366e-05 -2.2076e-19)
(-0.32283 3.037e-05 1.68829e-19)
(-0.322556 7.8435e-05 -5.14028e-19)
(-0.322047 0.000128953 -4.36007e-19)
(-0.321299 0.000180612 -3.51356e-19)
(-0.320311 0.000232352 -1.32568e-18)
(-0.319084 0.000283293 -1.22275e-18)
(-0.317626 0.000332717 -1.08905e-18)
(-0.315946 0.000380052 -3.72891e-18)
(-0.314055 0.000424832 3.48689e-18)
(-0.311965 0.000466683 4.3821e-18)
(-0.309693 0.000505298 -1.34806e-18)
(-0.307252 0.000540424 1.32906e-18)
(-0.304659 0.000571848 1.23501e-18)
(-0.301933 0.000599394 9.99353e-19)
(-0.299089 0.000622916 -3.71176e-18)
(-0.296148 0.000642299 6.98217e-18)
(-0.293127 0.000657463 5.14057e-18)
(-0.290045 0.000668368 4.84067e-18)
(-0.286921 0.000675015 5.19008e-18)
(-0.283775 0.000677454 8.71005e-19)
(-0.280623 0.000675784 -7.03955e-19)
(-0.277485 0.00067015 -4.33245e-18)
(-0.274378 0.000660744 -1.61673e-18)
(-0.271316 0.000647801 3.94677e-18)
(-0.268317 0.000631591 7.02616e-18)
(-0.265393 0.000612414 -2.52922e-19)
(-0.262557 0.000590591 1.27423e-18)
(-0.259821 0.000566456 -1.28556e-18)
(-0.257194 0.000540354 -2.05265e-18)
(-0.254686 0.00051263 3.29012e-19)
(-0.252302 0.000483624 3.16706e-18)
(-0.250049 0.000453667 6.26323e-18)
(-0.24793 0.000423078 6.8822e-18)
(-0.24595 0.00039216 -1.22681e-19)
(-0.244108 0.000361197 -1.35124e-19)
(-0.242407 0.000330451 -5.26718e-18)
(-0.240844 0.000300166 4.03276e-18)
(-0.239419 0.000270561 -2.03911e-18)
(-0.238128 0.000241833 -1.34979e-18)
(-0.236969 0.000214154 2.87827e-18)
(-0.235937 0.000187671 8.69084e-19)
(-0.235027 0.000162506 -2.64938e-18)
(-0.234234 0.000138759 -5.8292e-18)
(-0.233551 0.000116507 6.54537e-18)
(-0.232972 9.58054e-05 7.10361e-18)
(-0.232491 7.6692e-05 6.60265e-18)
(-0.2321 5.91864e-05 1.911e-18)
(-0.231792 4.33105e-05 9.08586e-18)
(-0.23156 2.90484e-05 -4.04229e-18)
(-0.231396 1.64075e-05 -4.9688e-18)
(-0.231293 5.43795e-06 6.168e-18)
(-0.231243 -3.85047e-06 1.17232e-17)
(-0.23124 -1.20257e-05 4.51825e-18)
(-0.231274 -1.88413e-05 -7.08839e-18)
(-0.231339 -2.43637e-05 -4.24744e-18)
(-0.231426 -2.89381e-05 -4.01209e-18)
(-0.231527 -3.20223e-05 -9.86874e-18)
(-0.231636 -3.32114e-05 3.65073e-18)
(-0.231743 -3.26323e-05 2.34333e-18)
(-0.23184 -3.08018e-05 4.08856e-19)
(-0.231919 -2.82075e-05 -7.49951e-19)
(-0.23197 -2.31789e-05 -7.22e-18)
(-0.231983 -1.5316e-05 -1.76395e-18)
(-0.231944 -6.35075e-06 -1.67299e-18)
(-0.231843 5.26566e-06 -5.84309e-18)
(-0.231666 2.01185e-05 -6.88495e-18)
(-0.231396 3.86638e-05 -8.89375e-18)
(-0.231016 6.14621e-05 -7.3126e-19)
(-0.230505 8.921e-05 1.30603e-18)
(-0.229838 0.000122778 1.26514e-19)
(-0.228989 0.000163199 -2.66415e-19)
(-0.227922 0.000211739 8.63473e-18)
(-0.226599 0.000269963 -1.10004e-18)
(-0.224973 0.000339821 -9.32261e-18)
(-0.222986 0.00042377 -3.96768e-18)
(-0.22057 0.000524943 7.77021e-18)
(-0.217636 0.000647404 1.36518e-18)
(-0.214083 0.000796416 7.12411e-18)
(-0.209764 0.000979227 7.9546e-18)
(-0.204541 0.0012046 1.46426e-18)
(-0.198113 0.00148782 7.16738e-18)
(-0.190381 0.00183821 1.49275e-17)
(-0.18055 0.00230566 3.51008e-18)
(-0.169012 0.00285535 1.19356e-17)
(-0.153286 0.00370652 -5.39116e-18)
(-0.135719 0.00447672 -8.80633e-19)
(-0.11029 0.00604681 1.10915e-17)
(-0.0819922 0.00673007 -4.92239e-18)
(-0.0458511 0.00794789 -1.32577e-18)
(-0.0101158 0.00578675 -2.85853e-19)
(-0.301387 -6.56315e-05 -3.82247e-20)
(-0.301553 -0.000239572 5.48207e-19)
(-0.301907 -0.000504472 3.84982e-20)
(-0.302501 -0.000718604 1.17487e-18)
(-0.303233 -0.000844185 1.31769e-19)
(-0.304019 -0.000870664 8.75864e-20)
(-0.304785 -0.000801265 -7.00789e-19)
(-0.305464 -0.000648863 -2.60334e-18)
(-0.306007 -0.000429355 1.26611e-18)
(-0.306374 -0.000158656 8.76911e-19)
(-0.306538 0.000146698 -2.43987e-18)
(-0.306481 0.000476704 5.25022e-19)
(-0.306189 0.00082075 -2.25373e-18)
(-0.305658 0.00117032 3.25305e-18)
(-0.304888 0.00151863 -1.65592e-18)
(-0.303884 0.00186013 8.88852e-19)
(-0.302653 0.00219038 2.02226e-18)
(-0.301203 0.00250586 -4.43095e-18)
(-0.299545 0.00280377 2.98237e-18)
(-0.297693 0.0030819 -1.53824e-19)
(-0.29566 0.00333844 1.4143e-18)
(-0.293461 0.00357191 3.89011e-18)
(-0.291111 0.00378107 -8.80772e-19)
(-0.288628 0.00396489 -4.56746e-18)
(-0.286027 0.00412252 2.59019e-18)
(-0.283327 0.00425327 1.7139e-18)
(-0.280545 0.00435669 5.13997e-18)
(-0.2777 0.00443253 6.67249e-18)
(-0.274809 0.00448081 3.80841e-18)
(-0.27189 0.00450187 5.37988e-18)
(-0.268961 0.00449632 1.79287e-18)
(-0.266039 0.00446511 -2.42058e-18)
(-0.26314 0.00440946 -4.69444e-18)
(-0.260281 0.00433086 -8.80959e-19)
(-0.257475 0.00423103 4.65856e-18)
(-0.254736 0.00411189 1.00964e-18)
(-0.252075 0.00397548 4.38034e-18)
(-0.249503 0.00382393 2.22558e-18)
(-0.24703 0.0036594 5.65935e-19)
(-0.244663 0.00348409 1.18996e-18)
(-0.242408 0.00330014 -2.12591e-18)
(-0.240271 0.00310963 3.39036e-18)
(-0.238254 0.00291458 -3.829e-19)
(-0.236361 0.00271691 1.18698e-18)
(-0.234592 0.00251842 -2.0824e-18)
(-0.232947 0.00232079 4.57615e-18)
(-0.231425 0.00212559 4.74505e-18)
(-0.230024 0.00193425 -6.53847e-19)
(-0.228741 0.00174806 6.2134e-18)
(-0.227572 0.00156819 -3.17003e-19)
(-0.226512 0.00139564 6.18759e-18)
(-0.225556 0.00123128 4.95073e-18)
(-0.224698 0.00107587 2.35119e-18)
(-0.223932 0.000930011 -6.43158e-19)
(-0.223252 0.000794185 2.0268e-18)
(-0.22265 0.000668767 7.8388e-19)
(-0.22212 0.00055403 6.23685e-18)
(-0.221653 0.000450152 -1.17088e-19)
(-0.221243 0.000357244 9.98023e-19)
(-0.220883 0.000275347 5.55538e-18)
(-0.220564 0.000204457 1.07529e-18)
(-0.22028 0.00014453 -9.37341e-20)
(-0.220022 9.54721e-05 -6.3349e-18)
(-0.219783 5.83101e-05 3.22917e-19)
(-0.219555 3.21351e-05 7.13945e-18)
(-0.219332 1.45579e-05 9.11994e-19)
(-0.219107 8.01621e-06 -2.07304e-18)
(-0.21887 1.31249e-05 5.74936e-18)
(-0.218613 3.0327e-05 1.23311e-18)
(-0.218327 5.94911e-05 1.29116e-18)
(-0.218005 9.84891e-05 8.68018e-18)
(-0.217639 0.000151962 8.53153e-18)
(-0.217217 0.000222237 8.87468e-18)
(-0.216728 0.000309432 6.27404e-18)
(-0.216161 0.000415591 1.91155e-18)
(-0.215501 0.000543196 1.16712e-17)
(-0.214736 0.000695227 1.12082e-17)
(-0.213847 0.000875281 5.43644e-18)
(-0.212816 0.00108779 6.19041e-18)
(-0.211621 0.00133808 -2.92849e-19)
(-0.210236 0.00163272 -3.05399e-18)
(-0.208632 0.00197979 -9.14649e-19)
(-0.206775 0.00238933 -5.12044e-18)
(-0.204623 0.00287392 -3.72881e-18)
(-0.202128 0.00344941 -5.37398e-18)
(-0.199233 0.00413619 -4.69782e-18)
(-0.195865 0.00496049 4.2865e-18)
(-0.191944 0.00595681 8.29356e-18)
(-0.187352 0.00717118 1.56707e-18)
(-0.181987 0.00866356 9.15405e-18)
(-0.175616 0.0105249 1.64855e-17)
(-0.168204 0.0128378 4.98118e-18)
(-0.159085 0.0158674 8.66216e-18)
(-0.148854 0.0194531 1.3584e-17)
(-0.13504 0.0248274 5.18095e-18)
(-0.12108 0.0297414 8.92977e-18)
(-0.09956 0.0397846 8.15864e-18)
(-0.0784642 0.0432078 2.10565e-18)
(-0.0496325 0.0520432 6.29914e-19)
(-0.0128599 0.0352105 5.86935e-18)
(-0.310429 -3.83853e-05 -1.49306e-20)
(-0.31054 -0.000153705 4.81248e-19)
(-0.310812 -0.000331724 -3.12189e-19)
(-0.311288 -0.000479318 1.20074e-18)
(-0.311891 -0.00056754 8.17194e-19)
(-0.312547 -0.000587292 1.37171e-18)
(-0.313186 -0.000539444 1.44725e-18)
(-0.313746 -0.000432186 -2.10439e-18)
(-0.314174 -0.000276357 5.08823e-19)
(-0.314431 -8.28416e-05 2.86725e-18)
(-0.314489 0.000135669 -2.97346e-19)
(-0.314326 0.00037278 7.05109e-19)
(-0.313929 0.000620617 -4.72316e-20)
(-0.313293 0.000872973 1.86755e-18)
(-0.312417 0.00112481 2.0158e-18)
(-0.311305 0.00137201 3.58925e-18)
(-0.309963 0.00161127 5.87513e-18)
(-0.308401 0.00183998 -3.66913e-18)
(-0.30663 0.00205605 4.27977e-18)
(-0.304663 0.00225783 3.00773e-18)
(-0.302513 0.00244396 3.25376e-18)
(-0.300196 0.00261333 1.85673e-18)
(-0.297729 0.00276505 -1.08695e-18)
(-0.295127 0.00289833 6.10572e-19)
(-0.292409 0.00301254 1.29903e-18)
(-0.289592 0.00310719 5.71564e-18)
(-0.286694 0.00318194 5.54097e-18)
(-0.283734 0.00323659 4.20627e-18)
(-0.28073 0.00327117 7.89215e-18)
(-0.2777 0.0032859 2.51704e-18)
(-0.274664 0.00328124 1.91308e-18)
(-0.271637 0.00325785 3.73769e-19)
(-0.268638 0.00321661 -1.70994e-18)
(-0.265681 0.0031586 6.74544e-19)
(-0.262782 0.00308507 4.77825e-18)
(-0.259953 0.00299738 9.91667e-19)
(-0.257209 0.00289701 -5.69717e-19)
(-0.254558 0.00278551 3.92435e-18)
(-0.252011 0.00266445 4.86234e-18)
(-0.249577 0.0025354 4.5577e-18)
(-0.247261 0.00239993 3.40154e-18)
(-0.245068 0.00225955 4.33994e-18)
(-0.243004 0.00211572 1.5145e-18)
(-0.24107 0.00196983 4.27154e-18)
(-0.239267 0.00182322 -2.81586e-21)
(-0.237597 0.00167709 3.3711e-18)
(-0.236057 0.00153261 8.47618e-19)
(-0.234647 0.00139081 -1.24766e-19)
(-0.233362 0.00125265 4.39571e-18)
(-0.232201 0.00111898 6.61217e-18)
(-0.231157 0.000990542 7.17416e-18)
(-0.230226 0.000867988 5.07025e-18)
(-0.229403 0.000751867 4.68089e-18)
(-0.22868 0.000642635 4.91886e-18)
(-0.228053 0.000540656 5.04913e-18)
(-0.227513 0.000446213 1.51393e-18)
(-0.227054 0.000359515 2.58792e-18)
(-0.226668 0.000280708 2.57173e-18)
(-0.226348 0.000209884 1.85903e-18)
(-0.226087 0.000147093 6.33361e-18)
(-0.225878 9.2364e-05 3.30314e-18)
(-0.225712 4.56574e-05 -1.50128e-18)
(-0.225581 6.89237e-06 3.33103e-18)
(-0.22548 -2.41663e-05 4.93998e-18)
(-0.2254 -4.8973e-05 6.202e-18)
(-0.225334 -6.79117e-05 -1.05245e-18)
(-0.225273 -7.77951e-05 -6.01475e-18)
(-0.225209 -7.8251e-05 1.32789e-18)
(-0.225135 -6.92414e-05 6.43737e-18)
(-0.225044 -5.15198e-05 -4.25423e-18)
(-0.224926 -2.70332e-05 6.85212e-19)
(-0.224767 7.3844e-06 -3.71703e-18)
(-0.224562 5.19996e-05 -4.17364e-18)
(-0.2243 0.000108957 -5.76009e-19)
(-0.223967 0.000179774 -4.94487e-18)
(-0.22355 0.000266205 2.75671e-18)
(-0.223034 0.000370436 -3.78738e-18)
(-0.222401 0.000495111 1.25958e-18)
(-0.221632 0.000643486 2.47404e-18)
(-0.220703 0.000819507 -7.10875e-18)
(-0.219587 0.00102802 -2.19289e-18)
(-0.218254 0.00127502 -6.59733e-18)
(-0.216666 0.00156791 -1.30519e-17)
(-0.214779 0.00191602 -4.03179e-18)
(-0.212541 0.00233109 -1.10447e-17)
(-0.209887 0.0028282 -2.56633e-18)
(-0.206738 0.00342681 -6.97501e-18)
(-0.203003 0.00415239 -3.43115e-18)
(-0.19855 0.00503928 4.07073e-18)
(-0.193257 0.00613082 -4.99234e-18)
(-0.186859 0.00749707 1.09767e-17)
(-0.179286 0.00919206 -3.28739e-18)
(-0.169804 0.011437 -3.03285e-18)
(-0.15891 0.0140819 5.66454e-18)
(-0.144122 0.0181124 -7.08941e-18)
(-0.12835 0.0217707 1.89619e-18)
(-0.104869 0.0292733 -2.44581e-18)
(-0.080124 0.0321669 -1.0561e-17)
(-0.0479789 0.0383292 4.31647e-18)
(-0.0117228 0.0269324 -5.0722e-18)
(-0.27656 -0.000169656 -1.0345e-19)
(-0.276946 -0.000506333 2.28814e-19)
(-0.277573 -0.000989994 8.19563e-19)
(-0.278536 -0.0013553 7.22791e-19)
(-0.279645 -0.00155739 -6.88366e-19)
(-0.280796 -0.00159196 -6.84157e-19)
(-0.281906 -0.00147307 -2.13886e-19)
(-0.282908 -0.0012262 -2.07596e-18)
(-0.283755 -0.000878544 -2.68986e-19)
(-0.284412 -0.00045577 1.29296e-18)
(-0.284858 2.22959e-05 -3.5952e-18)
(-0.285078 0.000525978 -1.40385e-19)
(-0.285065 0.00105092 1.33681e-20)
(-0.284816 0.00158283 -1.71641e-18)
(-0.284331 0.00211138 -3.48143e-18)
(-0.283617 0.00262856 1.74855e-19)
(-0.282681 0.00312805 -2.91462e-18)
(-0.281531 0.00360481 -4.52968e-18)
(-0.280178 0.00405488 -3.6392e-18)
(-0.278636 0.00447508 3.76277e-18)
(-0.276915 0.00486282 2.41662e-18)
(-0.275031 0.00521595 -2.13692e-18)
(-0.272997 0.00553267 -3.26129e-18)
(-0.270829 0.00581144 -2.10876e-18)
(-0.268543 0.00605095 -6.60304e-19)
(-0.266155 0.0062502 -3.75142e-18)
(-0.263681 0.00640844 1.39243e-18)
(-0.261139 0.00652532 2.68662e-18)
(-0.258546 0.00660086 7.6497e-19)
(-0.255918 0.00663559 6.05674e-18)
(-0.253273 0.00663049 1.59248e-18)
(-0.250625 0.00658703 9.75759e-19)
(-0.247992 0.00650713 -4.81459e-18)
(-0.245386 0.00639313 -1.75666e-18)
(-0.242822 0.00624769 2.20507e-19)
(-0.240312 0.00607374 2.51092e-19)
(-0.237867 0.00587438 1.40907e-18)
(-0.235496 0.00565287 8.14565e-19)
(-0.233207 0.00541248 -4.72531e-18)
(-0.231007 0.00515651 -2.82504e-18)
(-0.228903 0.0048882 -9.42964e-19)
(-0.226897 0.00461069 -1.00315e-18)
(-0.224992 0.004327 -1.57399e-18)
(-0.22319 0.00404002 -2.95521e-19)
(-0.221491 0.00375245 2.23608e-18)
(-0.219894 0.00346681 1.5869e-18)
(-0.218398 0.00318544 1.24068e-18)
(-0.216999 0.00291048 -1.18991e-18)
(-0.215693 0.00264387 1.94913e-18)
(-0.214477 0.0023873 2.25331e-18)
(-0.213344 0.0021423 -9.43983e-20)
(-0.212291 0.00191013 -2.85456e-18)
(-0.211309 0.00169188 1.21315e-18)
(-0.210393 0.00148845 1.40905e-18)
(-0.209535 0.00130052 2.32072e-18)
(-0.208729 0.00112861 7.62261e-19)
(-0.207967 0.000973109 8.05666e-18)
(-0.207241 0.00083424 8.50251e-18)
(-0.206545 0.000712125 1.87895e-18)
(-0.205871 0.000606785 1.75039e-18)
(-0.205211 0.000518168 -6.9261e-18)
(-0.204557 0.000446194 8.72419e-19)
(-0.203903 0.00039079 -7.91305e-18)
(-0.20324 0.000352224 -1.32033e-18)
(-0.202561 0.000330098 -5.85135e-21)
(-0.201859 0.000324159 -7.56567e-20)
(-0.201126 0.000334991 -4.08745e-19)
(-0.200355 0.000363456 8.30919e-20)
(-0.199537 0.000410155 1.89281e-18)
(-0.198664 0.000475545 9.76539e-18)
(-0.197727 0.000560482 5.82096e-18)
(-0.196719 0.000667028 5.17471e-18)
(-0.195628 0.000797682 4.88084e-18)
(-0.194446 0.000954485 6.39727e-18)
(-0.193159 0.00114047 5.66542e-18)
(-0.191757 0.00135927 1.45506e-17)
(-0.190226 0.00161536 1.52835e-17)
(-0.18855 0.00191407 7.94184e-18)
(-0.186713 0.002262 1.82429e-17)
(-0.184697 0.002667 4.14642e-18)
(-0.182479 0.0031387 1.19227e-18)
(-0.180037 0.00368896 -2.5918e-18)
(-0.177342 0.00433235 -1.03935e-17)
(-0.174365 0.00508709 -1.38469e-17)
(-0.171068 0.00597601 -1.23351e-17)
(-0.167412 0.00702817 -2.23283e-18)
(-0.163349 0.00828063 -9.44191e-18)
(-0.158827 0.00978196 3.18554e-18)
(-0.153778 0.0115952 -8.98774e-18)
(-0.14815 0.0138048 1.19189e-17)
(-0.141817 0.0165245 -2.47355e-18)
(-0.134826 0.0198932 1.11894e-17)
(-0.126756 0.0242067 -5.93196e-19)
(-0.11839 0.0293947 1.19731e-17)
(-0.107568 0.0367781 3.18825e-19)
(-0.0988019 0.0436213 8.52952e-18)
(-0.0832889 0.0570973 8.20336e-19)
(-0.0736359 0.0600406 -1.44238e-17)
(-0.0531032 0.0742031 -1.26052e-17)
(-0.0164128 0.0421446 -3.94987e-18)
(-0.289935 -0.00010784 -5.43663e-20)
(-0.29019 -0.000355802 4.76771e-19)
(-0.290661 -0.000723554 3.13842e-19)
(-0.291418 -0.00101197 6.8979e-19)
(-0.292321 -0.00117737 -8.36885e-19)
(-0.293274 -0.00121044 -1.24104e-18)
(-0.294199 -0.00111866 -4.48143e-19)
(-0.295029 -0.000920653 -1.58077e-18)
(-0.295714 -0.0006377 1.94877e-19)
(-0.296216 -0.000290565 -8.33144e-19)
(-0.296513 0.000102155 -2.15802e-18)
(-0.296586 0.000520256 1.77753e-18)
(-0.296424 0.000956146 -5.99602e-19)
(-0.296024 0.00139879 2.57546e-18)
(-0.295388 0.0018395 -1.36573e-18)
(-0.294519 0.00227132 2.02048e-19)
(-0.293425 0.00268877 -2.16202e-19)
(-0.292114 0.00308748 -2.8938e-18)
(-0.290599 0.00346401 -7.48085e-19)
(-0.288891 0.0038156 3.70346e-18)
(-0.287003 0.00414003 1.60711e-18)
(-0.284951 0.00443543 8.54675e-19)
(-0.282749 0.00470027 -3.7626e-18)
(-0.280412 0.00493324 -5.35115e-18)
(-0.277959 0.00513324 -7.50909e-20)
(-0.275404 0.00529941 -7.79924e-19)
(-0.272767 0.00543115 1.89938e-18)
(-0.270063 0.00552813 6.10604e-18)
(-0.267311 0.00559039 2.17265e-18)
(-0.264529 0.00561834 4.02084e-18)
(-0.261733 0.00561277 1.44701e-18)
(-0.25894 0.00557488 -7.5643e-20)
(-0.256166 0.00550623 -3.12345e-18)
(-0.253427 0.00540872 -1.27358e-18)
(-0.250735 0.00528454 1.39817e-18)
(-0.248104 0.00513611 3.76882e-19)
(-0.245546 0.00496601 4.89921e-18)
(-0.24307 0.00477695 1.55696e-18)
(-0.240685 0.00457167 -4.1843e-18)
(-0.238398 0.00435294 -1.00227e-18)
(-0.236216 0.00412346 -1.17361e-18)
(-0.234143 0.0038859 -2.30608e-18)
(-0.232182 0.00364279 -3.82709e-18)
(-0.230334 0.00339656 -1.92381e-19)
(-0.228602 0.0031495 3.09116e-18)
(-0.226983 0.00290375 2.34845e-18)
(-0.225478 0.00266126 2.09824e-18)
(-0.224082 0.00242387 -3.6248e-18)
(-0.222793 0.00219322 5.57442e-18)
(-0.221607 0.00197075 1.17268e-18)
(-0.220519 0.00175775 2.13048e-18)
(-0.219524 0.00155532 -2.53914e-18)
(-0.218614 0.00136439 8.32565e-19)
(-0.217785 0.00118572 3.85129e-18)
(-0.217029 0.00101991 1.85766e-18)
(-0.216339 0.00086742 5.97275e-19)
(-0.215708 0.000728567 4.77544e-18)
(-0.215129 0.000603557 7.20888e-18)
(-0.214595 0.000492488 1.62196e-18)
(-0.214097 0.000395369 -1.72334e-18)
(-0.213628 0.000312128 -1.84738e-18)
(-0.213182 0.000242628 -4.41679e-21)
(-0.212749 0.000186577 -9.0194e-18)
(-0.212324 0.000143918 -1.20371e-18)
(-0.211898 0.000114756 2.12336e-18)
(-0.211464 0.000100395 6.137e-19)
(-0.211015 9.93546e-05 -8.14578e-19)
(-0.210541 0.000111546 1.87447e-18)
(-0.210037 0.000137447 -4.10606e-18)
(-0.209493 0.000178614 8.53208e-18)
(-0.208901 0.000238056 1.08168e-17)
(-0.20825 0.000315216 1.09011e-17)
(-0.207533 0.000411549 1.16411e-17)
(-0.206738 0.000529125 -6.40623e-19)
(-0.205854 0.000670776 8.38951e-18)
(-0.204867 0.000839644 1.49056e-17)
(-0.203764 0.00103951 1.64258e-17)
(-0.202528 0.00127495 1.23596e-17)
(-0.201143 0.00155154 1.54939e-17)
(-0.199586 0.00187604 3.25244e-18)
(-0.197835 0.00225671 -7.38795e-18)
(-0.195863 0.00270372 5.39781e-18)
(-0.193638 0.00322968 -4.29039e-18)
(-0.191125 0.00385036 -5.97336e-18)
(-0.188279 0.0045856 -6.42499e-18)
(-0.185052 0.0054608 -1.01528e-17)
(-0.181382 0.00650852 -2.92449e-18)
(-0.177201 0.00777143 3.67137e-18)
(-0.172415 0.00930587 -2.02173e-18)
(-0.166943 0.0111855 6.84671e-18)
(-0.1606 0.0135169 1.32649e-17)
(-0.153386 0.0164077 1.47343e-17)
(-0.144736 0.0201552 3.97086e-18)
(-0.135335 0.0246253 8.55938e-18)
(-0.122854 0.0311923 -6.13328e-18)
(-0.111231 0.0371597 -2.94405e-18)
(-0.0923941 0.0493013 2.22888e-18)
(-0.0763499 0.0525744 -1.0952e-17)
(-0.0517341 0.0636525 -3.96072e-18)
(-0.0144808 0.0394725 1.55368e-19)
(-0.246316 -0.000379815 -4.50483e-20)
(-0.24713 -0.000958552 1.18267e-19)
(-0.248178 -0.00170433 6.68521e-19)
(-0.249653 -0.00222635 5.89348e-19)
(-0.251245 -0.00248682 -1.87481e-18)
(-0.252837 -0.00250753 -4.79937e-19)
(-0.254348 -0.0023223 -5.21662e-22)
(-0.255719 -0.00197181 -1.94296e-19)
(-0.256911 -0.00149496 1.3765e-19)
(-0.2579 -0.000925542 -1.59626e-18)
(-0.258666 -0.000290452 -2.85259e-18)
(-0.259204 0.000378608 -8.79426e-19)
(-0.259512 0.00106246 1.32312e-18)
(-0.259587 0.00175331 -3.04414e-18)
(-0.259434 0.00243854 -1.03071e-18)
(-0.259057 0.00310812 3.41673e-18)
(-0.258464 0.00375424 -2.74128e-18)
(-0.257663 0.00437076 -2.8956e-18)
(-0.256666 0.00495281 2.23249e-18)
(-0.255482 0.00549651 1.02644e-18)
(-0.254123 0.00599864 4.05846e-19)
(-0.252602 0.00645653 -2.14243e-19)
(-0.250933 0.00686785 -3.84516e-18)
(-0.249128 0.00723063 2.61934e-18)
(-0.247202 0.00754316 -3.30265e-18)
(-0.24517 0.00780406 -8.62522e-19)
(-0.243048 0.00801236 1.82881e-18)
(-0.24085 0.00816753 1.34587e-18)
(-0.238593 0.00826961 -2.98349e-18)
(-0.236292 0.00831926 2.45149e-18)
(-0.233963 0.00831779 1.22974e-18)
(-0.23162 0.00826714 4.88822e-18)
(-0.229278 0.00816986 2.96491e-18)
(-0.22695 0.00802905 -3.54494e-18)
(-0.224648 0.00784829 -1.87576e-19)
(-0.222382 0.00763149 4.27564e-19)
(-0.220163 0.00738282 -3.29659e-18)
(-0.217999 0.00710659 8.58307e-20)
(-0.215896 0.00680719 -3.02362e-19)
(-0.213861 0.00648896 -5.55804e-18)
(-0.211897 0.00615616 -7.28929e-19)
(-0.210007 0.00581292 8.97963e-20)
(-0.208192 0.0054632 2.77965e-19)
(-0.206454 0.00511074 1.09153e-19)
(-0.20479 0.00475902 9.52765e-18)
(-0.203199 0.0044113 2.26686e-18)
(-0.201678 0.00407056 8.88463e-19)
(-0.200224 0.00373954 -2.14293e-19)
(-0.198831 0.00342071 7.03175e-19)
(-0.197495 0.00311621 2.77576e-18)
(-0.196209 0.00282789 -3.6051e-19)
(-0.194967 0.00255734 -4.28976e-18)
(-0.193762 0.00230584 7.95712e-19)
(-0.192587 0.00207445 -2.12456e-18)
(-0.191435 0.00186393 1.85753e-18)
(-0.190297 0.00167485 8.63689e-19)
(-0.189167 0.00150759 3.90434e-18)
(-0.188036 0.00136235 2.74625e-18)
(-0.186897 0.00123916 1.45043e-18)
(-0.185742 0.00113799 3.19526e-18)
(-0.184563 0.00105871 -2.27239e-18)
(-0.183352 0.0010012 2.21009e-18)
(-0.182101 0.000965354 -5.43646e-19)
(-0.180804 0.000951293 5.15017e-20)
(-0.179451 0.000958883 -5.8033e-18)
(-0.178036 0.000988291 -1.69838e-19)
(-0.176551 0.00103995 5.19547e-19)
(-0.174988 0.0011147 -5.80938e-18)
(-0.173338 0.00121346 -2.10507e-18)
(-0.171593 0.00133736 8.6453e-18)
(-0.169744 0.00148803 2.15757e-18)
(-0.167783 0.00166762 1.43051e-18)
(-0.1657 0.00187896 9.51215e-19)
(-0.163484 0.00212508 1.00059e-18)
(-0.161126 0.00240997 -4.05556e-18)
(-0.158613 0.00273835 1.03737e-17)
(-0.155935 0.00311595 4.4198e-18)
(-0.153076 0.00354965 1.13531e-17)
(-0.150025 0.00404788 1.64382e-17)
(-0.146765 0.00462054 3.54521e-18)
(-0.14328 0.00527986 4.47979e-18)
(-0.139554 0.00604069 3.4246e-18)
(-0.135569 0.00692126 -8.70433e-19)
(-0.131307 0.00794413 3.62112e-18)
(-0.126747 0.00913736 -1.54433e-18)
(-0.121872 0.0105364 2.7451e-18)
(-0.116666 0.0121858 -6.29557e-19)
(-0.111118 0.0141435 3.92504e-18)
(-0.105222 0.016483 1.12201e-18)
(-0.0989976 0.0193016 1.28249e-17)
(-0.092461 0.0227196 -8.60653e-20)
(-0.0857637 0.0269102 -1.38801e-18)
(-0.078822 0.0320617 -4.46457e-18)
(-0.0725657 0.0383144 1.38612e-18)
(-0.0655717 0.0463033 1.2056e-17)
(-0.0631131 0.0542808 2.18986e-18)
(-0.0557325 0.0668632 4.745e-19)
(-0.0624141 0.0692627 -3.61603e-18)
(-0.0512044 0.0828328 -4.15829e-18)
(-0.0329727 0.036377 -3.54494e-18)
(-0.261818 -0.000259064 -5.38271e-20)
(-0.26239 -0.000708599 3.25085e-19)
(-0.263212 -0.00132019 9.47285e-19)
(-0.264418 -0.00176597 1.17254e-18)
(-0.265761 -0.00200124 -1.55216e-18)
(-0.267129 -0.00203257 -5.6278e-19)
(-0.268438 -0.00188288 -1.01845e-19)
(-0.269623 -0.00158514 -8.04427e-19)
(-0.270642 -0.00117251 -1.14091e-19)
(-0.271464 -0.000674998 -8.17398e-20)
(-0.272069 -0.000115459 -4.03103e-18)
(-0.272448 0.000471209 -7.6985e-19)
(-0.272594 0.00107759 4.91958e-19)
(-0.272505 0.00169158 -1.59685e-18)
(-0.272185 0.00230119 -1.77114e-18)
(-0.271637 0.00289735 1.16761e-18)
(-0.270871 0.00347292 -1.84128e-18)
(-0.269894 0.00402229 -2.72574e-18)
(-0.268717 0.00454099 -7.36116e-19)
(-0.267352 0.00502544 1.51132e-18)
(-0.26581 0.00547271 3.71856e-18)
(-0.264106 0.00588036 -3.43156e-19)
(-0.262253 0.00624629 -5.21903e-18)
(-0.260266 0.00656873 -2.99064e-19)
(-0.258159 0.00684614 -1.41023e-18)
(-0.255948 0.00707732 -1.77867e-18)
(-0.253649 0.00726137 3.74463e-18)
(-0.251279 0.00739783 1.763e-18)
(-0.248854 0.00748671 -6.46855e-19)
(-0.24639 0.0075286 5.67326e-18)
(-0.243903 0.00752464 1.46967e-18)
(-0.241408 0.00747654 2.39077e-18)
(-0.238921 0.00738658 -3.19716e-18)
(-0.236456 0.00725752 -2.12987e-18)
(-0.234025 0.0070925 -2.45914e-19)
(-0.231639 0.00689501 2.44544e-19)
(-0.229309 0.00666871 -6.21563e-19)
(-0.227045 0.00641742 2.46808e-19)
(-0.224852 0.006145 -1.61101e-18)
(-0.222739 0.00585528 -5.95144e-18)
(-0.220709 0.00555203 -1.13211e-18)
(-0.218766 0.00523891 -4.37098e-19)
(-0.216912 0.00491941 -4.00202e-19)
(-0.215148 0.00459685 -1.89286e-19)
(-0.213474 0.00427435 4.06551e-18)
(-0.211888 0.00395479 1.70079e-18)
(-0.210388 0.00364084 8.24726e-19)
(-0.208971 0.00333495 -2.17838e-19)
(-0.207632 0.00303931 7.90214e-19)
(-0.206366 0.00275584 5.19274e-18)
(-0.205169 0.00248622 -2.97653e-18)
(-0.204034 0.00223187 -6.03804e-18)
(-0.202954 0.00199399 3.7072e-18)
(-0.201923 0.00177352 -5.56656e-20)
(-0.200934 0.0015712 5.0938e-18)
(-0.199979 0.00138757 1.15214e-18)
(-0.199051 0.00122298 7.94699e-18)
(-0.198142 0.00107762 4.59101e-18)
(-0.197245 0.000951575 1.74263e-18)
(-0.196351 0.000844801 5.99262e-18)
(-0.195454 0.000757188 -6.55203e-18)
(-0.194546 0.000688602 4.74637e-18)
(-0.193619 0.000638899 -2.54782e-18)
(-0.192665 0.000608187 -7.61075e-19)
(-0.191678 0.000596455 -2.00439e-18)
(-0.190649 0.000604102 -1.24724e-19)
(-0.189571 0.000631171 -1.98669e-19)
(-0.188437 0.000678168 -1.79013e-18)
(-0.187237 0.000745861 -5.74065e-18)
(-0.185964 0.000835478 5.73375e-18)
(-0.18461 0.000948785 3.39199e-18)
(-0.183164 0.00108726 2.49823e-18)
(-0.181619 0.00125319 2.33684e-18)
(-0.179963 0.00144921 2.5019e-18)
(-0.178186 0.00167886 7.0327e-18)
(-0.176276 0.00194633 9.09121e-18)
(-0.17422 0.00225668 7.35552e-18)
(-0.172005 0.002616 7.60368e-18)
(-0.169614 0.00303178 1.84919e-17)
(-0.167031 0.00351289 4.12147e-18)
(-0.164237 0.00407027 9.47953e-18)
(-0.161213 0.00471727 8.41094e-18)
(-0.157934 0.00547038 -2.97509e-18)
(-0.154376 0.00635009 -1.16906e-17)
(-0.150512 0.00738208 -5.20114e-18)
(-0.146312 0.00859897 7.01282e-18)
(-0.141742 0.0100423 -2.64033e-18)
(-0.136771 0.0117664 1.03488e-17)
(-0.131361 0.0138416 -2.20064e-18)
(-0.125493 0.0163629 8.00364e-18)
(-0.119111 0.0194547 -7.04153e-19)
(-0.112316 0.0232818 -5.56968e-18)
(-0.10485 0.0281035 -9.87037e-18)
(-0.0975571 0.0338955 3.57573e-18)
(-0.0886567 0.0417901 4.10347e-18)
(-0.0829994 0.049298 3.60496e-18)
(-0.0714904 0.0630834 3.90004e-19)
(-0.069573 0.0655581 -6.74895e-18)
(-0.0536549 0.0806033 -7.17701e-18)
(-0.020987 0.0402823 -1.0869e-17)
(1.30258 0.174282 1.47599e-18)
(1.30146 0.18605 2.83314e-18)
(1.29975 0.192668 -1.3219e-18)
(1.29844 0.201758 4.21421e-18)
(1.29772 0.210378 3.78844e-18)
(1.29772 0.219626 -1.57948e-18)
(1.29856 0.229065 -2.63242e-18)
(1.30042 0.238823 1.58088e-18)
(1.30356 0.248808 -7.2732e-19)
(1.30827 0.25898 4.91247e-19)
(1.31473 0.269137 1.0002e-18)
(1.32239 0.278682 2.87191e-19)
(1.32787 0.285779 -1.32002e-18)
(1.31934 0.284636 4.29665e-18)
(1.26822 0.264089 1.55277e-18)
(1.12722 0.21157 2.48857e-18)
(0.843838 0.127771 1.61014e-17)
(0.422037 0.0337197 3.08917e-18)
(0.0662036 0.0189949 1.99632e-17)
(-0.059801 0.0237914 7.0199e-18)
(1.30598 0.175961 2.67953e-18)
(1.30502 0.18747 2.22399e-18)
(1.30339 0.193985 6.22546e-19)
(1.30226 0.203021 2.2367e-18)
(1.3017 0.211537 2.97113e-18)
(1.3019 0.220691 -4.53498e-20)
(1.30299 0.229986 -6.84301e-19)