/*--------------------------------*- C++ -*----------------------------------*\
  =========                 |
  \\      /  F ield         | OpenFOAM: The Open Source CFD Toolbox
   \\    /   O peration     | Website:  https://openfoam.org
    \\  /    A nd           | Version:  7
     \\/     M anipulation  |
\*---------------------------------------------------------------------------*/
FoamFile
{
    version     2.0;
    format      ascii;
    class       surfaceScalarField;
    location    "80";
    object      phi;
}
// * * * * * * * * * * * * * * * * * * * * * * * * * * * * * * * * * * * * * //

dimensions      [0 3 -1 0 0 0 0];

internalField   nonuniform List<scalar> 
206
(
-0.00738818
0.000631209
-0.00740619
0.000626886
-0.00742625
0.00061844
-0.00744909
0.000607506
-0.00747353
0.000593782
-0.00749979
0.000578525
-0.00752733
0.000560989
-0.00755618
0.000542209
-0.00758604
0.000521601
-0.00761688
0.000499848
-0.00764855
0.000476584
-0.007681
0.000452191
-0.00771418
0.000426442
-0.00774804
0.000399501
-0.00778258
0.000371188
0.000341496
-0.00728928
0.000641645
-0.00730365
0.000641261
-0.0073188
0.000633585
-0.00733669
0.000625396
-0.00735541
0.000612503
-0.00737572
0.000598838
-0.00739674
0.000582002
-0.00741869
0.000564166
-0.00744117
0.000544076
-0.0074642
0.000522882
-0.00748759
0.000499972
-0.00751132
0.000475917
-0.00753529
0.000450411
-0.00755948
0.000423696
-0.00758386
0.000395572
0.000366069
-0.00707594
0.000645758
-0.0070823
0.000647624
-0.00708879
0.000640072
-0.00709707
0.000633672
-0.00710555
0.000620992
-0.00711501
0.000608289
-0.0071246
0.000591599
-0.0071346
0.000574159
-0.00714461
0.000554088
-0.00715469
0.000532968
-0.00716469
0.000509971
-0.00717461
0.000485839
-0.00718441
0.00046021
-0.00719411
0.000433397
-0.00720375
0.000405205
0.000375703
-0.00674697
0.000640411
-0.00674242
0.000643078
-0.00673759
0.000635236
-0.00673355
0.000629634
-0.0067293
0.000616747
-0.00672536
0.000604345
-0.0067212
0.000587444
-0.00671698
0.000569933
-0.00671248
0.000549588
-0.00670772
0.000528216
-0.00670267
0.000504919
-0.00669735
0.000480513
-0.00669179
0.000454649
-0.00668606
0.000427671
-0.00668027
0.000399418
0.000369984
-0.00631446
0.000624312
-0.00629814
0.000626757
-0.00628121
0.000618306
-0.00626434
0.000612771
-0.0062471
0.000599499
-0.00622967
0.000586918
-0.00621193
0.000569701
-0.00619385
0.000551857
-0.00617546
0.000531193
-0.00615672
0.000509481
-0.00613772
0.000485922
-0.0061185
0.000461294
-0.00609919
0.000435331
-0.00607988
0.000408368
-0.00606077
0.000380302
0.000351242
-0.00579907
0.000597667
-0.00577176
0.000599447
-0.00574362
0.000590164
-0.00571514
0.000584294
-0.00568631
0.000570663
-0.00565705
0.000557658
-0.00562756
0.000540216
-0.00559769
0.000521987
-0.00556764
0.000501137
-0.00553733
0.000479179
-0.00550696
0.000455549
-0.00547657
0.000430899
-0.00544633
0.000405094
-0.00541639
0.000378426
-0.00538695
0.000350865
0.000322521
-0.00522444
0.000561757
-0.00518797
0.000562978
-0.00515053
0.000552726
-0.00511266
-0.0050746
-0.00503609
-0.00499755
-0.00495872
-0.00491993
-0.00488109
-0.00484241
-0.00480397
-0.00476595
-0.00472851
-0.00469185
-0.00461294
-0.00456962
)
;

boundaryField
{
    inlet
    {
        type            calculated;
        value           nonuniform 0();
    }
    outlet
    {
        type            calculated;
        value           nonuniform List<scalar> 8(0.00737639 0.00727884 0.00707183 0.00675232 0.00633056 0.00582572 0.00526035 0.0046563);
    }
    polygon
    {
        type            calculated;
        value           nonuniform 0();
    }
    top
    {
        type            symmetryPlane;
        value           uniform 0;
    }
    bottom
    {
        type            symmetryPlane;
        value           uniform 0;
    }
    outside
    {
        type            calculated;
        value           nonuniform List<scalar> 
16
(
-0.000619421
-0.000608868
-0.000598386
-0.000584667
-0.000569343
-0.00055226
-0.000533445
-0.000513366
-0.00049174
-0.000469009
-0.000444916
-0.000419734
-0.000393269
-0.000365632
-0.000336649
-0.000306289
)
;
    }
    procBoundary63to55
    {
        type            processor;
        value           nonuniform List<scalar> 
17
(
0.000546426
0.000532604
0.00051914
0.000501675
0.000483164
0.000462342
0.000440336
0.000416875
0.000392456
0.000367078
0.000340983
0.00031421
0.000286868
0.000518397
0.000519654
-0.00452526
0.00050837
)
;
    }
    procBoundary63to62
    {
        type            processor;
        value           nonuniform List<scalar> 7(-0.00781779 -0.00760844 -0.00721338 -0.00667455 -0.00604203 -0.00535823 -0.0046562);
    }
}


// ************************************************************************* //
