/*--------------------------------*- C++ -*----------------------------------*\
  =========                 |
  \\      /  F ield         | OpenFOAM: The Open Source CFD Toolbox
   \\    /   O peration     | Website:  https://openfoam.org
    \\  /    A nd           | Version:  7
     \\/     M anipulation  |
\*---------------------------------------------------------------------------*/
FoamFile
{
    version     2.0;
    format      ascii;
    class       volScalarField;
    location    "28";
    object      p;
}
// * * * * * * * * * * * * * * * * * * * * * * * * * * * * * * * * * * * * * //

dimensions      [0 2 -2 0 0 0 0];

internalField   nonuniform List<scalar> 
8000
(
0.0120889
0.0251029
0.0423426
0.0553185
0.069903
0.082252
0.0949342
0.106228
0.117194
0.127029
0.136095
0.143956
0.150636
0.155815
0.159335
0.160881
0.160178
0.156871
0.150609
0.141009
0.127689
0.110363
0.0884633
0.0622327
0.0313607
-0.00383862
-0.042845
-0.0847791
-0.128431
-0.172356
-0.215003
-0.254883
-0.290701
-0.321435
-0.346369
-0.365088
-0.377456
-0.383575
-0.383836
-0.378561
-0.368458
-0.354207
-0.336556
-0.316266
-0.294085
-0.270718
-0.246808
-0.222921
-0.199537
-0.177049
-0.155764
-0.135906
-0.117629
-0.101024
-0.0861328
-0.0729521
-0.0614479
-0.051561
-0.0432145
-0.0363193
-0.0307781
-0.0264887
-0.0233458
-0.0212429
-0.0200725
-0.0197244
-0.0201236
-0.021158
-0.0227117
-0.0246953
-0.0269864
-0.0295208
-0.0322306
-0.0350402
-0.0378848
-0.0407114
-0.0434818
-0.0461899
-0.0487371
-0.0511574
-0.0534446
-0.0555954
-0.0576086
-0.0594878
-0.0612373
-0.0628603
-0.0643574
-0.0657251
-0.0669566
-0.068037
-0.0689546
-0.0696753
-0.0702154
-0.0704537
-0.0706926
-0.0701663
-0.0713427
-0.0692473
-0.0767607
-0.0731438
0.0123539
0.0251701
0.042724
0.0556628
0.0704328
0.0828112
0.0956218
0.106978
0.11805
0.127966
0.137135
0.145093
0.151883
0.157177
0.160823
0.162503
0.161948
0.158808
0.152734
0.143351
0.130277
0.113256
0.091675
0.0658608
0.0354387
0.000748442
-0.0377142
-0.0791033
-0.122258
-0.165784
-0.208177
-0.247975
-0.283885
-0.314871
-0.340192
-0.359403
-0.37234
-0.37908
-0.379936
-0.375319
-0.365855
-0.352218
-0.335143
-0.315384
-0.293683
-0.270742
-0.247199
-0.223623
-0.200494
-0.178208
-0.157075
-0.137324
-0.119115
-0.102543
-0.0876541
-0.0744495
-0.0628988
-0.0529463
-0.0445182
-0.0375282
-0.0318816
-0.0274788
-0.0242176
-0.0219942
-0.0207052
-0.0202474
-0.0205129
-0.0214082
-0.0228282
-0.0246788
-0.0268799
-0.0293534
-0.0320063
-0.0347688
-0.0375785
-0.0403817
-0.0431313
-0.0457965
-0.0483836
-0.050822
-0.0531272
-0.0552976
-0.0573306
-0.0592288
-0.0609958
-0.062634
-0.0641436
-0.0655201
-0.0667564
-0.0678357
-0.0687463
-0.0694469
-0.0699582
-0.070141
-0.0703211
-0.0696753
-0.070582
-0.0683493
-0.0740878
-0.0715453
0.0125461
0.0252669
0.0430173
0.0559738
0.0708644
0.0832948
0.0961964
0.107619
0.118775
0.128769
0.138025
0.146074
0.152964
0.158367
0.162133
0.163947
0.163542
0.16057
0.154688
0.145522
0.132693
0.115925
0.0947506
0.0692802
0.0392787
0.00505454
-0.0329178
-0.0738223
-0.11654
-0.159721
-0.2019
-0.241635
-0.277638
-0.308859
-0.334534
-0.354191
-0.36764
-0.374933
-0.376358
-0.372324
-0.363427
-0.350336
-0.333776
-0.314496
-0.293229
-0.270674
-0.247469
-0.224181
-0.201291
-0.179196
-0.158211
-0.138568
-0.120431
-0.103899
-0.0890216
-0.0758035
-0.0642177
-0.0542116
-0.0457142
-0.0386416
-0.0329018
-0.0283973
-0.0250279
-0.0226923
-0.0212889
-0.020718
-0.0208678
-0.021661
-0.0229943
-0.0247774
-0.0269066
-0.0292961
-0.0318791
-0.0345867
-0.0373541
-0.0401269
-0.0428618
-0.045531
-0.0480999
-0.0505381
-0.0528382
-0.055013
-0.0570546
-0.058963
-0.0607403
-0.0623878
-0.0639049
-0.0652865
-0.0665252
-0.0676028
-0.0685083
-0.0691945
-0.069687
-0.069822
-0.0699413
-0.0691849
-0.0698199
-0.0675036
-0.0717396
-0.0698292
0.012699
0.0253567
0.043272
0.0562426
0.0712389
0.0837129
0.0966946
0.108175
0.119403
0.129465
0.138798
0.146926
0.153905
0.159403
0.163276
0.165209
0.164938
0.162117
0.156405
0.147434
0.134826
0.118295
0.0974599
0.0723077
0.0426861
0.00888118
-0.0286481
-0.0691119
-0.111427
-0.154285
-0.196254
-0.235914
-0.271984
-0.303404
-0.32939
-0.349449
-0.363364
-0.371165
-0.37312
-0.369626
-0.361259
-0.34868
-0.332603
-0.313768
-0.292906
-0.270709
-0.247815
-0.224789
-0.202115
-0.180193
-0.159338
-0.139788
-0.12171
-0.105208
-0.0903333
-0.0770958
-0.0654713
-0.05541
-0.0468433
-0.03969
-0.03386
-0.0292582
-0.0257863
-0.0233449
-0.0218341
-0.0211553
-0.021202
-0.0218932
-0.0231266
-0.0248079
-0.0268557
-0.0291846
-0.0317132
-0.0343739
-0.0371037
-0.0398482
-0.0425619
-0.0452114
-0.0477669
-0.0502189
-0.0525397
-0.0547287
-0.0567832
-0.0587037
-0.0604921
-0.0621488
-0.0636728
-0.0650584
-0.0662977
-0.0673709
-0.0682676
-0.068935
-0.0694032
-0.069488
-0.0695365
-0.0686749
-0.0690339
-0.066679
-0.069698
-0.0680228
0.0128235
0.025429
0.0434878
0.0564639
0.0715526
0.0840597
0.0971106
0.108638
0.119929
0.130048
0.139447
0.147644
0.1547
0.160283
0.16425
0.16629
0.166138
0.163453
0.157897
0.149105
0.136703
0.1204
0.0998597
0.075011
0.0457421
0.0123228
-0.0248005
-0.0648621
-0.106811
-0.149375
-0.191152
-0.230746
-0.266878
-0.298482
-0.324759
-0.345192
-0.359542
-0.367819
-0.370263
-0.367277
-0.359404
-0.347299
-0.331668
-0.313244
-0.292751
-0.270881
-0.248267
-0.225477
-0.202994
-0.181221
-0.160476
-0.141003
-0.122969
-0.106484
-0.0916028
-0.0783384
-0.0666694
-0.056549
-0.0479111
-0.0406765
-0.0347573
-0.0300603
-0.0264893
-0.0239464
-0.0223336
-0.0215537
-0.0215022
-0.0220961
-0.0232415
-0.0248497
-0.0268307
-0.0290921
-0.0315625
-0.0341767
-0.0368706
-0.0395892
-0.0422872
-0.0449306
-0.0474929
-0.0499739
-0.0522671
-0.0544559
-0.0565179
-0.0584483
-0.0602468
-0.0619128
-0.0634444
-0.064835
-0.0660766
-0.0671474
-0.0680374
-0.0686879
-0.0691324
-0.0691705
-0.0691509
-0.0681983
-0.0682952
-0.0659073
-0.0679459
-0.0662693
0.0129221
0.0254848
0.0436597
0.0566372
0.0718011
0.0843332
0.0974402
0.109005
0.120347
0.130513
0.139968
0.148224
0.155346
0.161002
0.165053
0.167187
0.167144
0.164583
0.159169
0.150542
0.138331
0.122245
0.101966
0.0773995
0.0484529
0.0153819
-0.0213772
-0.0610808
-0.102706
-0.145011
-0.186623
-0.226162
-0.262355
-0.294132
-0.320676
-0.341454
-0.356206
-0.364922
-0.367816
-0.365297
-0.357879
-0.346208
-0.330983
-0.312931
-0.292772
-0.271192
-0.248827
-0.226242
-0.203924
-0.182276
-0.161621
-0.142205
-0.1242
-0.107719
-0.0928213
-0.0795218
-0.0678026
-0.0576193
-0.0489082
-0.0415922
-0.0355854
-0.030796
-0.0271296
-0.0244901
-0.0227808
-0.021906
-0.0217636
-0.0222672
-0.0233278
-0.0248529
-0.0267638
-0.0289705
-0.0313933
-0.0339669
-0.0366282
-0.039322
-0.0420024
-0.0446323
-0.047178
-0.0496038
-0.0519669
-0.0541766
-0.0562532
-0.0581964
-0.0600065
-0.0616827
-0.0632229
-0.0646199
-0.0658656
-0.0669367
-0.0678236
-0.0684626
-0.0688897
-0.0688915
-0.0688144
-0.0677905
-0.0676549
-0.0652356
-0.0664907
-0.0646152
0.0129966
0.0255243
0.0437873
0.0567634
0.0719843
0.0845341
0.0976838
0.109277
0.120659
0.130862
0.140362
0.148665
0.155843
0.161562
0.165685
0.167902
0.167954
0.165504
0.16022
0.151742
0.139706
0.123819
0.103775
0.0794656
0.0508094
0.0180492
-0.0183881
-0.0577783
-0.0991237
-0.141208
-0.182682
-0.222181
-0.258438
-0.290378
-0.317171
-0.338266
-0.353386
-0.362505
-0.365815
-0.363713
-0.356706
-0.345426
-0.330566
-0.312845
-0.29298
-0.271655
-0.249504
-0.227093
-0.20491
-0.183362
-0.162775
-0.143396
-0.125404
-0.108914
-0.0939871
-0.0806437
-0.0688677
-0.0586173
-0.0498307
-0.0424329
-0.0363395
-0.0314605
-0.0277028
-0.0249715
-0.0231715
-0.0222078
-0.0219827
-0.0224022
-0.0233883
-0.0248539
-0.0267111
-0.0288626
-0.0312377
-0.0337735
-0.0364062
-0.0390799
-0.0417485
-0.0443744
-0.0469302
-0.0493957
-0.0517315
-0.053935
-0.0560134
-0.0579628
-0.0597807
-0.061465
-0.0630131
-0.064417
-0.0656684
-0.0667428
-0.0676315
-0.068266
-0.0686853
-0.0686645
-0.0685458
-0.0674728
-0.0671476
-0.0646963
-0.0653403
-0.0631124
0.0130485
0.0255461
0.0438706
0.0568422
0.0721024
0.0846628
0.097842
0.109454
0.120865
0.131096
0.140629
0.148969
0.156191
0.161961
0.166144
0.168432
0.168568
0.166217
0.161047
0.152703
0.140823
0.125116
0.10528
0.0812016
0.0528043
0.0203191
-0.0158354
-0.0549525
-0.0960556
-0.137951
-0.17931
-0.218782
-0.255105
-0.287197
-0.314221
-0.335611
-0.351071
-0.360561
-0.364267
-0.362544
-0.355913
-0.344991
-0.330461
-0.313037
-0.293431
-0.272327
-0.250357
-0.228088
-0.20601
-0.184533
-0.163986
-0.144622
-0.12662
-0.110101
-0.0951301
-0.0817291
-0.0698854
-0.0595591
-0.0506908
-0.0432071
-0.0370251
-0.0320562
-0.0282084
-0.0253881
-0.0235016
-0.0224548
-0.0221547
-0.0224959
-0.0234049
-0.0247921
-0.0265862
-0.0286941
-0.0310315
-0.0335348
-0.0361413
-0.038795
-0.041449
-0.0440639
-0.0466071
-0.0490517
-0.0514083
-0.0536421
-0.0557428
-0.0577104
-0.0595445
-0.0612436
-0.0628053
-0.0642214
-0.0654842
-0.0665684
-0.0674663
-0.0681057
-0.0685293
-0.0685013
-0.0683638
-0.0672661
-0.0668067
-0.0643252
-0.0645105
-0.0618429
0.0130782
0.0255485
0.0439078
0.0568713
0.0721526
0.0847162
0.0979112
0.109534
0.120961
0.131209
0.140765
0.149132
0.156387
0.162197
0.16643
0.168779
0.168987
0.166723
0.161657
0.153432
0.141691
0.126142
0.106482
0.0825984
0.0544124
0.0221458
-0.0137906
-0.0527043
-0.0936347
-0.135405
-0.176699
-0.216176
-0.252576
-0.284812
-0.312038
-0.333676
-0.349417
-0.35921
-0.363222
-0.361802
-0.355468
-0.344825
-0.33055
-0.313353
-0.293944
-0.273005
-0.251168
-0.229002
-0.206997
-0.185567
-0.165044
-0.145681
-0.127663
-0.111112
-0.0960967
-0.0826416
-0.0707358
-0.0603418
-0.0514015
-0.043843
-0.0375847
-0.032539
-0.028615
-0.0257198
-0.0237603
-0.0226426
-0.0222735
-0.0225531
-0.0234128
-0.0247681
-0.0265306
-0.0285981
-0.0309017
-0.0333796
-0.0359681
-0.0386106
-0.0412597
-0.043876
-0.0464299
-0.0488965
-0.0512566
-0.053477
-0.0555717
-0.0575395
-0.0593767
-0.0610805
-0.0626479
-0.0640705
-0.0653408
-0.0664329
-0.0673405
-0.0679885
-0.0684229
-0.0684039
-0.0682865
-0.0671928
-0.0666767
-0.0641673
-0.0640624
-0.060894
0.0130891
0.0255366
0.0439048
0.0568558
0.0721387
0.0846971
0.0978929
0.109516
0.120948
0.131204
0.140772
0.149157
0.156436
0.162278
0.16655
0.168945
0.1692
0.167005
0.16203
0.153923
0.142326
0.126948
0.107488
0.083827
0.0558866
0.0238755
-0.0118064
-0.0504838
-0.0912156
-0.132843
-0.174069
-0.21356
-0.250059
-0.282478
-0.309959
-0.331911
-0.34801
-0.358186
-0.362612
-0.36157
-0.355605
-0.345306
-0.331339
-0.314408
-0.295219
-0.274453
-0.252742
-0.230657
-0.208693
-0.187266
-0.166714
-0.147297
-0.129204
-0.112561
-0.0974418
-0.0838743
-0.0718511
-0.0613371
-0.0522766
-0.0445992
-0.0382246
-0.0330664
-0.0290343
-0.0260366
-0.0239809
-0.0227746
-0.0223293
-0.0225352
-0.0233132
-0.0245867
-0.0262867
-0.0283143
-0.0305841
-0.033034
-0.0356011
-0.0382283
-0.0408675
-0.0434779
-0.0460271
-0.0484882
-0.0508558
-0.0531093
-0.0552307
-0.0572218
-0.0590811
-0.0608062
-0.062395
-0.0638391
-0.0651323
-0.0662483
-0.0671837
-0.0678597
-0.06833
-0.0683308
-0.0682341
-0.0671481
-0.0666225
-0.0640561
-0.0637633
-0.0600323
0.0820325
0.0877226
0.0897919
0.092145
0.0930935
0.09319
0.0920889
0.0897485
0.0859274
0.0804117
0.0727713
0.0626464
0.0492068
0.0318475
0.00863341
-0.0217973
-0.0653465
-0.122623
-0.208153
-0.310556
0.0763226
0.081782
0.0837048
0.0858185
0.0865487
0.0864132
0.0850811
0.082504
0.0784483
0.0726982
0.0648495
0.0544689
0.0408329
0.0231349
-0.000621409
-0.0323052
-0.0781209
-0.137209
-0.202994
-0.251378
0.0708556
0.0761345
0.0779032
0.0797811
0.0802452
0.0798097
0.0781303
0.0751525
0.0706291
0.0643243
0.0558223
0.0446402
0.0299883
0.0109022
-0.0146663
-0.048211
-0.0940969
-0.148364
-0.192282
-0.243399
0.0655796
0.0706674
0.0722737
0.0739216
0.0741192
0.0733761
0.0713348
0.0679364
0.0629215
0.056037
0.0468574
0.0348689
0.0192425
-0.0010096
-0.0277846
-0.0620581
-0.105549
-0.153563
-0.183221
-0.225612
0.0604649
0.065338
0.066772
0.0681952
0.0681429
0.0671154
0.0647488
0.0609825
0.0555529
0.0482003
0.0385031
0.0259385
0.00969476
-0.0111261
-0.0381218
-0.0719156
-0.111473
-0.150746
-0.174324
-0.204501
0.0555122
0.0601539
0.0614084
0.0626109
0.0623231
0.0610347
0.0583794
0.054297
0.0485242
0.0408014
0.0307177
0.0177554
0.00114409
-0.0198508
-0.046356
-0.078742
-0.113906
-0.142604
-0.165053
-0.180157
0.0507314
0.0551292
0.0562016
0.0571873
0.0566743
0.055142
0.0522239
0.0478615
0.0417951
0.0337723
0.0234052
0.0102106
-0.00650891
-0.0272973
-0.0527145
-0.0828807
-0.114062
-0.132876
-0.155145
-0.158541
0.0461299
0.0502688
0.0511606
0.0519331
0.0512047
0.0494427
0.0462831
0.0416701
0.0353507
0.0270829
0.0165023
0.00316427
-0.013552
-0.0339935
-0.0580342
-0.0852265
-0.112152
-0.124266
-0.14434
-0.139974
0.0417141
0.0455652
0.0462871
0.0468476
0.0459171
0.04394
0.0405614
0.0357273
0.0291971
0.0207489
0.0100648
-0.00320752
-0.0195212
-0.038989
-0.0609358
-0.0845472
-0.107562
-0.117422
-0.13291
-0.124625
0.0374928
0.0410075
0.0415856
0.0419272
0.0408084
0.0386247
0.0350437
0.0300094
0.0232993
0.0147101
0.00395522
-0.00927897
-0.025375
-0.0443346
-0.0649908
-0.0859139
-0.10563
-0.115713
-0.128236
-0.110733
0.148176
0.157087
0.161423
0.166746
0.170994
0.174833
0.177988
0.180407
0.18192
0.182372
0.181502
0.179124
0.174736
0.168177
0.15822
0.145072
0.126159
0.105147
0.077605
0.0646656
0.14012
0.148913
0.152581
0.157426
0.160904
0.163848
0.165912
0.167044
0.167036
0.165699
0.162711
0.157853
0.150579
0.140755
0.126997
0.10981
0.0862087
0.0618331
0.0316162
0.0354081
0.132741
0.141258
0.144559
0.149051
0.15207
0.154517
0.156001
0.1565
0.155797
0.153721
0.149945
0.144267
0.136022
0.125126
0.10994
0.0913532
0.0654653
0.0399
0.00560812
0.0133769
0.126021
0.13417
0.137303
0.141519
0.144232
0.146357
0.147462
0.147543
0.146367
0.143759
0.139358
0.132947
0.123723
0.111643
0.0947389
0.074317
0.0453706
0.0177686
-0.0211029
-0.0119715
0.119536
0.127306
0.130297
0.134243
0.136661
0.13846
0.139169
0.138792
0.137068
0.133808
0.128597
0.12121
0.110724
0.0971514
0.0781808
0.0555639
0.0231875
-0.00670244
-0.0488967
-0.0378399
0.113073
0.120479
0.1233
0.12696
0.129068
0.130513
0.130798
0.12993
0.127626
0.123687
0.117655
0.109314
0.0976461
0.0827241
0.0619164
0.0374155
0.00207826
-0.02977
-0.0747652
-0.062783
0.106637
0.113692
0.116331
0.119702
0.121508
0.122606
0.122491
0.121173
0.118356
0.113837
0.107133
0.0980449
0.0854729
0.0695124
0.047254
0.0210802
-0.0170467
-0.0518726
-0.100121
-0.0877401
0.100289
0.106999
0.109467
0.112562
0.114096
0.114881
0.114422
0.112728
0.109498
0.104529
0.097318
0.0876788
0.0744496
0.0576731
0.034347
0.00680556
-0.0331342
-0.0702938
-0.121724
-0.11259
0.0940687
0.100438
0.102753
0.105588
0.106885
0.107393
0.106647
0.104645
0.101094
0.0957869
0.0882132
0.0781917
0.0645588
0.0471673
0.0231639
-0.00606845
-0.0481181
-0.0915599
-0.147317
-0.148049
0.087981
0.0940104
0.0961976
0.0987882
0.0998882
0.100161
0.099189
0.0969546
0.0931813
0.0876543
0.0798705
0.0696377
0.055759
0.0379301
0.0138993
-0.0157684
-0.0565537
-0.0994361
-0.154064
-0.141646
0.396831
0.396057
0.397364
0.396328
0.398371
0.397085
0.400423
0.398854
0.404454
0.402677
0.412412
0.410699
0.428413
0.427454
0.461813
0.463215
0.536304
0.545855
0.710529
0.77182
0.396829
0.396058
0.397361
0.396337
0.398369
0.397107
0.400429
0.398909
0.404488
0.402809
0.412521
0.411018
0.428714
0.428227
0.462585
0.465135
0.538319
0.550255
0.71611
0.764591
0.396826
0.396056
0.397356
0.396338
0.398362
0.397114
0.400423
0.398931
0.404488
0.402868
0.412543
0.411164
0.428791
0.428581
0.462784
0.465957
0.538718
0.551381
0.716401
0.752129
0.396822
0.396052
0.397347
0.39634
0.39835
0.397121
0.400409
0.398953
0.404475
0.402928
0.412547
0.411318
0.428845
0.428957
0.462938
0.466789
0.53891
0.551932
0.715485
0.733194
0.396817
0.396045
0.397336
0.396339
0.398333
0.397123
0.400385
0.398964
0.404444
0.402965
0.412511
0.411418
0.428805
0.429199
0.462848
0.467227
0.538335
0.551014
0.711833
0.708064
0.396812
0.396036
0.397323
0.396336
0.398312
0.397121
0.400353
0.398967
0.404396
0.402983
0.412439
0.411478
0.428688
0.429342
0.462572
0.467371
0.537147
0.548899
0.705737
0.676769
0.396805
0.396025
0.397307
0.396331
0.398286
0.397115
0.400312
0.398961
0.404329
0.402982
0.41233
0.411494
0.428492
0.429375
0.462092
0.467188
0.535293
0.545578
0.696995
0.639078
0.396798
0.396011
0.397289
0.396326
0.398256
0.397105
0.400262
0.398945
0.404245
0.402961
0.412184
0.411463
0.428212
0.429293
0.461406
0.466673
0.532775
0.541112
0.68534
0.59457
0.396791
0.395993
0.397269
0.396315
0.398223
0.397089
0.400207
0.398919
0.404149
0.402917
0.412009
0.411381
0.427859
0.429086
0.460515
0.465797
0.52959
0.535513
0.670667
0.542848
0.396782
0.395976
0.397242
0.396303
0.398178
0.39707
0.40013
0.398891
0.404021
0.402872
0.411793
0.411301
0.427454
0.428879
0.459547
0.46488
0.526069
0.529524
0.65378
0.48277
0.396782
0.395976
0.397242
0.396303
0.398178
0.39707
0.40013
0.398891
0.404021
0.402872
0.411793
0.411301
0.427454
0.428879
0.459547
0.46488
0.526069
0.529524
0.65378
0.48277
0.396791
0.395993
0.397269
0.396315
0.398223
0.397089
0.400207
0.398919
0.404149
0.402917
0.412009
0.411381
0.427859
0.429086
0.460515
0.465797
0.52959
0.535513
0.670667
0.542848
0.396798
0.396011
0.397289
0.396326
0.398256
0.397105
0.400262
0.398945
0.404245
0.402961
0.412184
0.411463
0.428212
0.429293
0.461406
0.466673
0.532775
0.541112
0.68534
0.59457
0.396805
0.396025
0.397307
0.396331
0.398286
0.397115
0.400312
0.398961
0.404329
0.402982
0.41233
0.411494
0.428492
0.429375
0.462092
0.467188
0.535293
0.545578
0.696995
0.639078
0.396812
0.396036
0.397323
0.396336
0.398312
0.397121
0.400353
0.398967
0.404396
0.402983
0.412439
0.411478
0.428688
0.429342
0.462572
0.467371
0.537147
0.548899
0.705737
0.676769
0.396817
0.396045
0.397336
0.396339
0.398333
0.397123
0.400385
0.398964
0.404444
0.402965
0.412511
0.411418
0.428805
0.429199
0.462848
0.467227
0.538335
0.551014
0.711833
0.708064
0.396822
0.396052
0.397347
0.39634
0.39835
0.397121
0.400409
0.398953
0.404475
0.402928
0.412547
0.411318
0.428845
0.428957
0.462938
0.466789
0.53891
0.551932
0.715485
0.733194
0.396826
0.396056
0.397356
0.396338
0.398362
0.397114
0.400423
0.398931
0.404488
0.402868
0.412543
0.411164
0.428791
0.428581
0.462784
0.465957
0.538718
0.551381
0.716401
0.752129
0.396829
0.396058
0.397361
0.396337
0.398369
0.397107
0.400429
0.398909
0.404488
0.402809
0.412521
0.411018
0.428714
0.428227
0.462585
0.465135
0.538319
0.550255
0.71611
0.764591
0.396831
0.396057
0.397364
0.396328
0.398371
0.397085
0.400423
0.398854
0.404454
0.402677
0.412412
0.410699
0.428413
0.427454
0.461813
0.463215
0.536304
0.545855
0.710529
0.77182
0.087981
0.0940104
0.0961976
0.0987882
0.0998882
0.100161
0.099189
0.0969546
0.0931813
0.0876543
0.0798705
0.0696377
0.055759
0.0379301
0.0138993
-0.0157684
-0.0565537
-0.0994361
-0.154064
-0.141646
0.0940687
0.100438
0.102753
0.105588
0.106885
0.107393
0.106647
0.104645
0.101094
0.0957869
0.0882132
0.0781917
0.0645588
0.0471673
0.0231639
-0.00606845
-0.0481181
-0.0915599
-0.147317
-0.148049
0.100289
0.106999
0.109467
0.112562
0.114096
0.114881
0.114422
0.112728
0.109498
0.104529
0.097318
0.0876788
0.0744496
0.0576731
0.034347
0.00680556
-0.0331342
-0.0702938
-0.121724
-0.11259
0.106637
0.113692
0.116331
0.119702
0.121508
0.122606
0.122491
0.121173
0.118356
0.113837
0.107133
0.0980449
0.0854729
0.0695124
0.047254
0.0210802
-0.0170467
-0.0518726
-0.100121
-0.0877401
0.113073
0.120479
0.1233
0.12696
0.129068
0.130513
0.130798
0.12993
0.127626
0.123687
0.117655
0.109314
0.0976461
0.0827241
0.0619164
0.0374155
0.00207826
-0.02977
-0.0747652
-0.062783
0.119536
0.127306
0.130297
0.134243
0.136661
0.13846
0.139169
0.138792
0.137068
0.133808
0.128597
0.12121
0.110724
0.0971514
0.0781808
0.0555639
0.0231875
-0.00670245
-0.0488967
-0.0378399
0.126021
0.13417
0.137303
0.141519
0.144232
0.146357
0.147462
0.147543
0.146367
0.143759
0.139358
0.132947
0.123723
0.111643
0.0947389
0.074317
0.0453706
0.0177686
-0.0211029
-0.0119715
0.132741
0.141258
0.144559
0.149051
0.15207
0.154517
0.156001
0.1565
0.155797
0.153721
0.149945
0.144267
0.136022
0.125126
0.10994
0.0913532
0.0654653
0.0399
0.00560812
0.0133769
0.14012
0.148913
0.152581
0.157426
0.160904
0.163848
0.165912
0.167044
0.167036
0.165699
0.162711
0.157853
0.150579
0.140755
0.126997
0.10981
0.0862087
0.0618331
0.0316162
0.0354081
0.148176
0.157087
0.161423
0.166746
0.170994
0.174833
0.177988
0.180407
0.18192
0.182372
0.181502
0.179124
0.174736
0.168177
0.15822
0.145072
0.126159
0.105147
0.077605
0.0646656
0.0374928
0.0410075
0.0415856
0.0419272
0.0408084
0.0386247
0.0350437
0.0300094
0.0232993
0.0147101
0.00395522
-0.00927897
-0.025375
-0.0443346
-0.0649908
-0.0859139
-0.10563
-0.115713
-0.128236
-0.110733
0.0417141
0.0455652
0.0462871
0.0468476
0.0459171
0.04394
0.0405614
0.0357273
0.0291971
0.0207489
0.0100648
-0.00320752
-0.0195212
-0.038989
-0.0609358
-0.0845472
-0.107562
-0.117422
-0.13291
-0.124625
0.0461299
0.0502688
0.0511606
0.0519331
0.0512047
0.0494427
0.0462831
0.0416701
0.0353507
0.0270829
0.0165023
0.00316427
-0.013552
-0.0339935
-0.0580342
-0.0852265
-0.112152
-0.124266
-0.14434
-0.139974
0.0507314
0.0551292
0.0562016
0.0571873
0.0566743
0.055142
0.0522239
0.0478615
0.0417951
0.0337723
0.0234052
0.0102106
-0.00650891
-0.0272973
-0.0527145
-0.0828807
-0.114062
-0.132876
-0.155145
-0.158541
0.0555122
0.0601539
0.0614084
0.0626109
0.0623231
0.0610347
0.0583794
0.054297
0.0485242
0.0408014
0.0307177
0.0177554
0.00114409
-0.0198508
-0.046356
-0.078742
-0.113906
-0.142604
-0.165053
-0.180157
0.0604649
0.065338
0.066772
0.0681952
0.0681429
0.0671154
0.0647488
0.0609825
0.0555529
0.0482003
0.0385031
0.0259385
0.00969476
-0.0111261
-0.0381218
-0.0719156
-0.111473
-0.150746
-0.174324
-0.204501
0.0655796
0.0706674
0.0722737
0.0739216
0.0741192
0.0733761
0.0713348
0.0679364
0.0629215
0.056037
0.0468574
0.0348689
0.0192425
-0.0010096
-0.0277846
-0.0620581
-0.105549
-0.153563
-0.183221
-0.225612
0.0708556
0.0761345
0.0779032
0.0797811
0.0802452
0.0798097
0.0781303
0.0751525
0.0706291
0.0643243
0.0558223
0.0446402
0.0299883
0.0109022
-0.0146663
-0.048211
-0.0940969
-0.148364
-0.192282
-0.243399
0.0763226
0.081782
0.0837048
0.0858185
0.0865487
0.0864132
0.0850811
0.082504
0.0784483
0.0726982
0.0648495
0.0544689
0.0408329
0.0231349
-0.000621409
-0.0323052
-0.0781209
-0.137209
-0.202994
-0.251378
0.0820325
0.0877226
0.0897919
0.092145
0.0930935
0.09319
0.0920889
0.0897485
0.0859274
0.0804117
0.0727713
0.0626464
0.0492068
0.0318475
0.00863341
-0.0217973
-0.0653465
-0.122623
-0.208153
-0.310556
0.0130891
0.0255366
0.0439048
0.0568558
0.0721387
0.0846971
0.0978929
0.109516
0.120948
0.131204
0.140772
0.149157
0.156436
0.162278
0.16655
0.168945
0.1692
0.167005
0.16203
0.153923
0.142326
0.126948
0.107488
0.083827
0.0558866
0.0238755
-0.0118064
-0.0504838
-0.0912156
-0.132843
-0.174069
-0.21356
-0.250059
-0.282478
-0.309959
-0.331911
-0.34801
-0.358186
-0.362612
-0.36157
-0.355605
-0.345306
-0.331339
-0.314408
-0.295219
-0.274453
-0.252742
-0.230657
-0.208693
-0.187266
-0.166714
-0.147297
-0.129204
-0.112561
-0.0974418
-0.0838743
-0.0718511
-0.0613371
-0.0522766
-0.0445992
-0.0382246
-0.0330664
-0.0290343
-0.0260366
-0.0239809
-0.0227746
-0.0223293
-0.0225352
-0.0233132
-0.0245867
-0.0262867
-0.0283143
-0.0305841
-0.033034
-0.0356011
-0.0382283
-0.0408675
-0.0434779
-0.0460271
-0.0484882
-0.0508558
-0.0531093
-0.0552307
-0.0572218
-0.0590811
-0.0608062
-0.062395
-0.0638391
-0.0651323
-0.0662483
-0.0671837
-0.0678597
-0.06833
-0.0683308
-0.0682341
-0.0671481
-0.0666225
-0.0640561
-0.0637633
-0.0600323
0.0130782
0.0255485
0.0439078
0.0568713
0.0721526
0.0847162
0.0979112
0.109534
0.120961
0.131209
0.140765
0.149132
0.156387
0.162197
0.16643
0.168779
0.168987
0.166723
0.161657
0.153432
0.141691
0.126142
0.106482
0.0825984
0.0544124
0.0221458
-0.0137906
-0.0527043
-0.0936347
-0.135405
-0.176699
-0.216176
-0.252576
-0.284812
-0.312038
-0.333676
-0.349417
-0.35921
-0.363222
-0.361802
-0.355468
-0.344825
-0.33055
-0.313353
-0.293944
-0.273005
-0.251168
-0.229002
-0.206997
-0.185567
-0.165044
-0.145681
-0.127663
-0.111112
-0.0960967
-0.0826416
-0.0707358
-0.0603418
-0.0514015
-0.043843
-0.0375847
-0.032539
-0.028615
-0.0257198
-0.0237603
-0.0226426
-0.0222735
-0.0225531
-0.0234128
-0.0247681
-0.0265306
-0.0285981
-0.0309017
-0.0333796
-0.0359681
-0.0386106
-0.0412597
-0.043876
-0.0464299
-0.0488965
-0.0512566
-0.053477
-0.0555717
-0.0575395
-0.0593767
-0.0610805
-0.0626479
-0.0640705
-0.0653408
-0.0664329
-0.0673405
-0.0679885
-0.0684229
-0.0684039
-0.0682865
-0.0671928
-0.0666767
-0.0641673
-0.0640624
-0.060894
0.0130485
0.0255461
0.0438706
0.0568422
0.0721024
0.0846628
0.097842
0.109454
0.120865
0.131096
0.140629
0.148969
0.156191
0.161961
0.166144
0.168432
0.168568
0.166217
0.161047
0.152703
0.140823
0.125116
0.10528
0.0812016
0.0528043
0.0203191
-0.0158354
-0.0549525
-0.0960556
-0.137951
-0.17931
-0.218782
-0.255105
-0.287197
-0.314221
-0.335611
-0.351071
-0.360561
-0.364267
-0.362544
-0.355913
-0.344991
-0.330461
-0.313037
-0.293431
-0.272327
-0.250357
-0.228088
-0.20601
-0.184533
-0.163986
-0.144622
-0.12662
-0.110101
-0.0951301
-0.0817291
-0.0698854
-0.0595591
-0.0506908
-0.0432071
-0.0370251
-0.0320562
-0.0282084
-0.0253881
-0.0235016
-0.0224548
-0.0221547
-0.0224959
-0.0234049
-0.0247921
-0.0265862
-0.0286941
-0.0310315
-0.0335348
-0.0361413
-0.038795
-0.041449
-0.0440639
-0.0466071
-0.0490517
-0.0514083
-0.0536421
-0.0557428
-0.0577104
-0.0595445
-0.0612436
-0.0628053
-0.0642214
-0.0654842
-0.0665684
-0.0674663
-0.0681057
-0.0685293
-0.0685013
-0.0683638
-0.0672661
-0.0668067
-0.0643252
-0.0645105
-0.0618429
0.0129966
0.0255243
0.0437873
0.0567634
0.0719843
0.0845341
0.0976838
0.109277
0.120659
0.130862
0.140362
0.148665
0.155843
0.161562
0.165685
0.167902
0.167954
0.165504
0.16022
0.151742
0.139706
0.123819
0.103775
0.0794656
0.0508094
0.0180492
-0.0183881
-0.0577783
-0.0991237
-0.141208
-0.182682
-0.222181
-0.258438
-0.290378
-0.317171
-0.338266
-0.353386
-0.362505
-0.365815
-0.363713
-0.356706
-0.345426
-0.330566
-0.312845
-0.29298
-0.271655
-0.249504
-0.227093
-0.20491
-0.183362
-0.162775
-0.143396
-0.125404
-0.108914
-0.0939871
-0.0806437
-0.0688678
-0.0586173
-0.0498307
-0.0424329
-0.0363395
-0.0314605
-0.0277028
-0.0249715
-0.0231715
-0.0222078
-0.0219827
-0.0224022
-0.0233883
-0.0248539
-0.026711
-0.0288626
-0.0312377
-0.0337735
-0.0364062
-0.0390799
-0.0417485
-0.0443744
-0.0469302
-0.0493957
-0.0517315
-0.053935
-0.0560134
-0.0579628
-0.0597807
-0.061465
-0.0630131
-0.064417
-0.0656684
-0.0667428
-0.0676315
-0.068266
-0.0686853
-0.0686645
-0.0685458
-0.0674728
-0.0671476
-0.0646963
-0.0653403
-0.0631124
0.0129221
0.0254848
0.0436597
0.0566372
0.0718011
0.0843332
0.0974402
0.109005
0.120347
0.130513
0.139968
0.148224
0.155346
0.161002
0.165053
0.167187
0.167144
0.164583
0.159169
0.150542
0.138331
0.122245
0.101966
0.0773995
0.0484529
0.0153819
-0.0213772
-0.0610808
-0.102706
-0.145011
-0.186623
-0.226162
-0.262355
-0.294132
-0.320676
-0.341454
-0.356206
-0.364922
-0.367816
-0.365297
-0.357879
-0.346208
-0.330983
-0.312931
-0.292772
-0.271192
-0.248827
-0.226242
-0.203924
-0.182276
-0.161621
-0.142205
-0.1242
-0.107719
-0.0928213
-0.0795218
-0.0678026
-0.0576193
-0.0489082
-0.0415922
-0.0355854
-0.030796
-0.0271296
-0.0244901
-0.0227808
-0.021906
-0.0217636
-0.0222672
-0.0233278
-0.0248529
-0.0267638
-0.0289705
-0.0313933
-0.0339669
-0.0366282
-0.039322
-0.0420024
-0.0446323
-0.047178
-0.0496038
-0.0519669
-0.0541766
-0.0562532
-0.0581964
-0.0600065
-0.0616827
-0.0632229
-0.0646199
-0.0658656
-0.0669367
-0.0678236
-0.0684626
-0.0688897
-0.0688915
-0.0688144
-0.0677905
-0.0676549
-0.0652356
-0.0664907
-0.0646152
0.0128235
0.025429
0.0434878
0.0564639
0.0715526
0.0840597
0.0971106
0.108638
0.119929
0.130048
0.139447
0.147644
0.1547
0.160283
0.16425
0.16629
0.166138
0.163453
0.157897
0.149105
0.136703
0.1204
0.0998597
0.075011
0.0457421
0.0123228
-0.0248005
-0.0648621
-0.106811
-0.149375
-0.191152
-0.230746
-0.266878
-0.298482
-0.324759
-0.345192
-0.359542
-0.367819
-0.370263
-0.367277
-0.359404
-0.347299
-0.331668
-0.313244
-0.292751
-0.270881
-0.248267
-0.225477
-0.202994
-0.181221
-0.160476
-0.141003
-0.122969
-0.106484
-0.0916028
-0.0783384
-0.0666694
-0.056549
-0.0479111
-0.0406765
-0.0347573
-0.0300604
-0.0264893
-0.0239464
-0.0223336
-0.0215537
-0.0215022
-0.0220961
-0.0232415
-0.0248497
-0.0268307
-0.0290921
-0.0315625
-0.0341767
-0.0368706
-0.0395892
-0.0422872
-0.0449306
-0.0474929
-0.0499739
-0.0522671
-0.0544559
-0.0565179
-0.0584483
-0.0602468
-0.0619128
-0.0634444
-0.064835
-0.0660766
-0.0671474
-0.0680374
-0.0686879
-0.0691324
-0.0691705
-0.0691509
-0.0681983
-0.0682952
-0.0659073
-0.0679459
-0.0662693
0.012699
0.0253567
0.043272
0.0562426
0.0712389
0.0837129
0.0966946
0.108175
0.119403
0.129465
0.138798
0.146926
0.153905
0.159403
0.163276
0.165209
0.164938
0.162117
0.156405
0.147434
0.134826
0.118295
0.0974599
0.0723077
0.0426861
0.00888118
-0.0286481
-0.0691119
-0.111427
-0.154285
-0.196254
-0.235914
-0.271984
-0.303404
-0.32939
-0.349449
-0.363364
-0.371165
-0.37312
-0.369626
-0.361259
-0.34868
-0.332603
-0.313768
-0.292906
-0.270709
-0.247815
-0.224789
-0.202115
-0.180193
-0.159338
-0.139788
-0.12171
-0.105208
-0.0903333
-0.0770958
-0.0654713
-0.05541
-0.0468433
-0.03969
-0.0338601
-0.0292582
-0.0257863
-0.0233449
-0.0218341
-0.0211553
-0.021202
-0.0218932
-0.0231266
-0.0248079
-0.0268557
-0.0291846
-0.0317132
-0.0343739
-0.0371037
-0.0398482
-0.0425619
-0.0452114
-0.0477669
-0.0502189
-0.0525397
-0.0547287
-0.0567832
-0.0587037
-0.0604921
-0.0621488
-0.0636728
-0.0650584
-0.0662977
-0.0673709
-0.0682676
-0.068935
-0.0694032
-0.069488
-0.0695365
-0.0686749
-0.0690339
-0.066679
-0.069698
-0.0680228
0.0125461
0.0252669
0.0430173
0.0559738
0.0708644
0.0832948
0.0961964
0.107619
0.118775
0.128769
0.138025
0.146074
0.152964
0.158367
0.162133
0.163947
0.163542
0.16057
0.154688
0.145522
0.132693
0.115925
0.0947506
0.0692802
0.0392787
0.00505454
-0.0329178
-0.0738224
-0.11654
-0.159721
-0.2019
-0.241635
-0.277638
-0.308859
-0.334534
-0.354191
-0.36764
-0.374933
-0.376358
-0.372324
-0.363427
-0.350336
-0.333776
-0.314496
-0.293229
-0.270674
-0.24747
-0.224181
-0.201291
-0.179196
-0.158211
-0.138568
-0.120431
-0.103899
-0.0890216