/*--------------------------------*- C++ -*----------------------------------*\
  =========                 |
  \\      /  F ield         | OpenFOAM: The Open Source CFD Toolbox
   \\    /   O peration     | Website:  https://openfoam.org
    \\  /    A nd           | Version:  7
     \\/     M anipulation  |
\*---------------------------------------------------------------------------*/
FoamFile
{
    version     2.0;
    format      ascii;
    class       surfaceScalarField;
    location    "28";
    object      phi;
}
// * * * * * * * * * * * * * * * * * * * * * * * * * * * * * * * * * * * * * //

dimensions      [0 3 -1 0 0 0 0];

internalField   nonuniform List<scalar> 
15760
(
-0.00283889
0.000744353
-0.000825082
-0.0027545
0.000772361
-0.000856744
-0.00267067
0.000769866
-0.000853698
-0.00258239
0.000810096
-0.000898375
-0.00249246
0.000822763
-0.000912698
-0.00239786
0.000867272
-0.000961873
-0.00229981
0.000895958
-0.000994007
-0.0021966
0.000944839
-0.00104805
-0.00208853
0.000987271
-0.00109534
-0.00197459
0.00104204
-0.00115598
-0.00185465
0.00109593
-0.00121588
-0.00172801
0.00115766
-0.00128429
-0.00159437
0.00122119
-0.00135483
-0.00145322
0.00129001
-0.00143116
-0.00130423
0.00136137
-0.00151036
-0.00114703
0.00143614
-0.00159335
-0.000981361
0.00151267
-0.00167834
-0.000807054
0.00159052
-0.00176483
-0.000624103
0.00166811
-0.00185106
-0.000432678
0.0017438
-0.00193523
-0.000233219
0.00181529
-0.00201475
-2.65992e-05
0.00187927
-0.00208589
0.000186649
0.00193387
-0.00214712
0.000404381
0.001972
-0.00218973
0.000624134
0.00199061
-0.00221036
0.000842808
0.0019842
-0.00220287
0.00105657
0.00194808
-0.00216185
0.00126112
0.001879
-0.00208355
0.00145206
0.00177591
-0.00196685
0.0016254
0.00164051
-0.00181385
0.00177798
0.00147718
-0.00162976
0.00190771
0.00129219
-0.00142192
0.00201354
0.00109263
-0.00119846
0.00209533
0.000885426
-0.000967216
0.00215363
0.000676753
-0.000735047
0.00218945
0.000471749
-0.000507575
0.00220417
0.00027451
-0.000289231
0.00219948
8.83121e-05
-8.36231e-05
0.00217683
-8.48034e-05
0.000107454
0.00213839
-0.000242438
0.00028088
0.00208604
-0.000383497
0.000435844
0.00202181
-0.000506976
0.000571211
0.00194773
-0.000612348
0.000686423
0.00186584
-0.000699473
0.000781364
0.00177811
-0.000768547
0.000856284
0.00168641
-0.000820084
0.000911785
0.0015925
-0.000854884
0.000948788
0.00149801
-0.00087399
0.000968484
0.00140437
-0.000878641
0.000972279
0.00131287
-0.000870243
0.000961748
0.0012246
-0.000850294
0.000938564
0.00114047
-0.000820332
0.000904455
0.00106123
-0.000781901
0.000861147
0.000987419
-0.00073653
0.000810336
0.000919462
-0.000685709
0.000753666
0.000857616
-0.00063087
0.000692717
0.000802006
-0.000573373
0.000628983
0.000752636
-0.000514499
0.000563869
0.000709398
-0.00045543
0.000498669
0.000672086
-0.000397245
0.000434556
0.000640411
-0.000340902
0.000372576
0.000614014
-0.000287232
0.00031363
0.000592476
-0.000236938
0.000258475
0.000575341
-0.000190567
0.000207702
0.000562118
-0.00014855
0.000161773
0.000552346
-0.000111251
0.000121023
0.00054548
-7.87538e-05
8.56195e-05
0.000540944
-5.09953e-05
5.55311e-05
0.00053825
-2.79399e-05
3.06342e-05
0.000536838
-9.46269e-06
1.08746e-05
0.000536233
4.44166e-06
-3.83643e-06
0.000536025
1.39401e-05
-1.37326e-05
0.000535698
1.96278e-05
-1.93002e-05
0.000534831
2.17436e-05
-2.08768e-05
0.000533061
2.06749e-05
-1.89047e-05
0.000530094
1.68324e-05
-1.38655e-05
0.000525739
1.06891e-05
-6.33418e-06
0.000519728
2.6379e-06
3.37291e-06
0.000512074
-7.2457e-06
1.49002e-05
0.000502681
-1.84518e-05
2.78446e-05
0.000491522
-3.07876e-05
4.19469e-05
0.000478596
-4.40681e-05
5.6994e-05
0.000463916
-5.82452e-05
7.29247e-05
0.000447498
-7.33855e-05
8.98038e-05
0.000429345
-8.96661e-05
0.000107819
0.000409444
-0.000107403
0.000127305
0.000387756
-0.000127052
0.000148739
0.000364224
-0.000149256
0.000172788
0.000338778
-0.000174815
0.000200261
0.000311354
-0.000204853
0.000232278
0.000281933
-0.000240667
0.000270088
0.000250567
-0.000284305
0.000315672
0.000217633
-0.000337698
0.000370632
0.000183374
-0.00040469
0.000438949
0.000150202
-0.000488402
0.000521573
0.000117835
-0.000588963
0.00062133
9.48696e-05
-0.000721482
0.000744448
7.33788e-05
-0.000815565
0.000837056
5.03905e-05
-0.000959685
0.000982674
-0.000560258
0.000610648
-0.00283053
0.000663476
-0.00274507
0.000686904
-0.00266131
0.000686099
-0.00257214
0.000720931
-0.0024821
0.000732718
-0.0023868
0.000771972
-0.00228846
0.000797624
-0.00218464
0.000841018
-0.00207615
0.000878778
-0.0019616
0.000927489
-0.00184109
0.000975427
-0.00171378
0.00103035
-0.00157945
0.00108686
-0.00143753
0.00114809
-0.00128772
0.00121156
-0.00112963
0.00127805
-0.000963018
0.00134606
-0.000787725
0.00141523
-0.000603753
0.00148414
-0.000411288
0.00155134
-0.000210769
0.00161477
-3.28625e-06
0.00167179
0.000211095
0.00171949
0.00042962
0.00175347
0.000650172
0.00177006
0.000869716
0.00176466
0.00108456
0.00173323
0.00129058
0.00167299
0.00148355
0.00158295
0.00165956
0.0014645
0.00181546
0.00132128
0.00194903
0.00115862
0.00205904
0.000982609
0.00214516
0.000799307
0.00220774
0.000614179
0.00224764
0.000431843
0.00226614
0.000256015
0.00226477
8.96752e-05
0.00224515
-6.51755e-05
0.00220921
-0.000206501
0.0021589
-0.000333188
0.00209625
-0.000444327
0.00202331
-0.000539408
0.00194212
-0.000618281
0.00185466
-0.000681091
0.00176285
-0.000728268
0.00166846
-0.000760499
0.00157316
-0.000778686
0.00147843
-0.000783918
0.00138561
-0.000777415
0.0012958
-0.000760493
0.00120999
-0.000734512
0.00112893
-0.000700843
0.00105324
-0.000660847
0.000983388
-0.000615853
0.000919661
-0.000567143
0.000862228
-0.00051594
0.000811124
-0.000463395
0.000766269
-0.000410576
0.00072748
-0.000358456
0.000694483
-0.000307905
0.00066693
-0.000259679
0.000644411
-0.000214418
0.000626471
-0.000172627
0.000612623
-0.000134702
0.000602353
-0.000100982
0.000595163
-7.15634e-05
0.000590491
-4.63236e-05
0.000587826
-2.52746e-05
0.000586658
-8.29508e-06
0.000586536
4.56403e-06
0.000586941
1.35354e-05
0.000587459
1.91092e-05
0.000587673
2.15304e-05
0.000587221
2.11267e-05
0.000585801
1.82519e-05
0.000583187
1.33035e-05
0.000579232
6.59242e-06
0.000573654
-1.66745e-06
0.000566505
-1.13023e-05
0.000557682
-2.19646e-05
0.000547154
-3.35411e-05
0.000534899
-4.599e-05
0.000520894
-5.93799e-05
0.000505104
-7.3877e-05
0.000487476
-8.97741e-05
0.00046792
-0.000107497
0.000446315
-0.000127651
0.000422503
-0.000151003
0.000396294
-0.000178644
0.000367493
-0.000211866
0.000335879
-0.000252691
0.000301452
-0.000303271
0.000263921
-0.000367158
0.00022456
-0.000449041
0.000182587
-0.000546989
0.000142468
-0.000681364
9.97062e-05
-0.000772803
4.09449e-05
-0.000900924
-0.000519313
-0.00282097
0.000581906
-0.00273546
0.000601393
-0.00265107
0.000601711
-0.0025616
0.000631461
-0.0024711
0.000642211
-0.00237541
0.000676281
-0.00227665
0.000698863
-0.00217239
0.00073676
-0.00206344
0.000769833
-0.00194841
0.000812455
-0.00182739
0.000854412
-0.00169953
0.000902487
-0.00156462
0.00095195
-0.00142207
0.00100554
-0.00127158
0.00106108
-0.00111278
0.00111925
-0.000945431
0.00117871
-0.000769376
0.00123917
-0.00058463
0.00129939
-0.000391393
0.0013581
-0.000190109
0.00141348
1.82336e-05
0.00146344
0.000233147
0.00150457
0.000452236
0.00153438
0.000673355
0.00154894
0.000893541
0.00154447
0.00110923
0.00151755
0.00131644
0.00146578
0.00151109
0.00138829
0.00168939
0.0012862
0.00184817
0.0011625
0.00198514
0.00102165
0.00209892
0.000868828
0.00218899
0.000709234
0.00225554
0.00054763
0.0022993
0.000388084
0.00232141
0.000233907
0.00232333
8.77536e-05
0.00230666
-4.85079e-05
0.00227327
-0.000173107
0.00222508
-0.000285002
0.00216413
-0.00038337
0.00209245
-0.000467732
0.0020121
-0.000537928
0.00192506
-0.00059406
0.00183328
-0.000636482
0.00173855
-0.00066577
0.00164256
-0.000682695
0.00154683
-0.000688195
0.00145274
-0.000683319
0.00136145
-0.000669203
0.00127397
-0.00064703
0.00119112
-0.000617998
0.00111357
-0.000583298
0.00104182
-0.000544099
0.000976206
-0.00050153
0.000916935
-0.00045667
0.000864077
-0.000410537
0.000817579
-0.000364078
0.000777281
-0.000318157
0.000742926
-0.00027355
0.000714179
-0.000230932
0.000690636
-0.000190875
0.000671846
-0.000153837
0.000657319
-0.000120174
0.000646525
-9.01883e-05
0.000638983
-6.40214e-05
0.000634131
-4.14719e-05
0.000631459
-2.26025e-05
0.000630445
-7.28116e-06
0.000630598
4.41116e-06
0.000631509
1.26247e-05
0.000632711
1.79069e-05
0.000633802
2.044e-05
0.000634426
2.0502e-05
0.000634282
1.83965e-05
0.000633133
1.44519e-05
0.00063076
8.96599e-06
0.000627009
2.08339e-06
0.00062172
-6.01389e-06
0.000614884
-1.51286e-05
0.000606409
-2.50657e-05
0.00059624
-3.58209e-05
0.000584322
-4.74615e-05
0.000570586
-6.01414e-05
0.000554938
-7.41263e-05
0.000537245
-8.9803e-05
0.000517321
-0.000107728
0.00049493
-0.000128612
0.000469763
-0.000153477
0.000441461
-0.000183563
0.000409548
-0.000220778
0.000373646
-0.00026737
0.000332956
-0.000326468
0.000287733
-0.000403818
0.000236598
-0.000495854
0.000180931
-0.000625696
0.000120167
-0.000712039
4.05198e-05
-0.000821277
-0.000478793
-0.00281122
0.000499755
-0.0027256
0.000515768
-0.00264067
0.00051678
-0.00255092
0.000541717
-0.00245999
0.000551281
-0.00236396
0.000580248
-0.00226481
0.000599716
-0.00216018
0.000632124
-0.00205084
0.000660494
-0.00193539
0.00069701
-0.00181395
0.000732969
-0.00168563
0.000774172
-0.00155024
0.000816559
-0.00140719
0.000862487
-0.00125618
0.00091007
-0.00109683
0.000959897
-0.000928924
0.0010108
-0.000752303
0.00106255
-0.000566997
0.00111408
-0.000373213
0.00116432
-0.000171401
0.00121167
3.75558e-05
0.00125449
0.000252748
0.00128938
0.000472169
0.00131496
0.000693623
0.00132748
0.000914211
0.00132388
0.00113048
0.00130128
0.00133859
0.00125766
0.0015346
0.00119229
0.00171479
0.00110601
0.00187602
0.00100127
0.00201594
0.000881735
0.00213305
0.000751717
0.00222668
0.000615602
0.00229687
0.000477447
0.0023442
0.000340751
0.00236971
0.000208396
0.00237478
8.26877e-05
0.00236097
-3.46982e-05
0.00233007
-0.000142208
0.002284
-0.000238935
0.00222477
-0.000324136
0.00215441
-0.000397375
0.00207497
-0.00045849
0.00198846
-0.000507547
0.00189681
-0.000544829
0.00180185
-0.000570811
0.00170529
-0.000586138
0.0016087
-0.000591602
0.00151346
-0.000588084
0.00142081
-0.000576549
0.00133178
-0.000558005
0.00124726
-0.000533476
0.00116795
-0.000503985
0.00109439
-0.000470538
0.00102697
-0.000434108
0.000965924
-0.000395627
0.000911362
-0.000355975
0.000863258
-0.000315974
0.000821476
-0.000276374
0.000785777
-0.000237851
0.000755838
-0.000200994
0.000731266
-0.000166303
0.000711611
-0.000134182
0.000696382
-0.000104945
0.00068505
-7.88564e-05
0.000677119
-5.609e-05
0.000672037
-3.63906e-05
0.000669284
-1.98494e-05
0.000668356
-6.35346e-06
0.000668773
3.99494e-06
0.000670047
1.13503e-05
0.000671774
1.61796e-05
0.000673556
1.86579e-05
0.00067504
1.90188e-05
0.000675918
1.75179e-05
0.000675947
1.44237e-05
0.000674916
9.99649e-06
0.000672632
4.36765e-06
0.000668927
-2.30864e-06
0.000663753
-9.95504e-06
0.000657008
-1.83207e-05
0.000648612
-2.74244e-05
0.000638478
-3.73284e-05
0.000626509
-4.81722e-05
0.000612574
-6.01907e-05
0.000596496
-7.37258e-05
0.00057804
-8.92714e-05
0.000556895
-0.000107467
0.000532649
-0.000129231
0.000504797
-0.000155711
0.000472644
-0.000188625
0.000435464
-0.000230191
0.000392017
-0.000283021
0.000341642
-0.000353443
0.000282488
-0.0004367
0.000213591
-0.0005568
0.000137733
-0.000636181
4.41039e-05
-0.000727648
-0.000434689
-0.00280166
0.000417118
-0.00271591
0.000430019
-0.0026305
0.000431362
-0.00254052
0.000451741
-0.0024492
0.000459966
-0.00235288
0.000483923
-0.00225339
0.000500228
-0.00214844
0.000527168
-0.00203876
0.00055082
-0.00192297
0.000581223
-0.00180118
0.000611176
-0.0016725
0.000645494
-0.00153674
0.000680795
-0.0013933
0.000719045
-0.00124189
0.000758667
-0.00108214
0.000800148
-0.00091384
0.000842499
-0.000736831
0.000885543
-0.000551155
0.000928408
-0.000357025
0.000970187
-0.000154904
0.00100955
5.43776e-05
0.00104521
0.000269705
0.00107405
0.000489265
0.0010954
0.000710857
0.00110589
0.000931651
0.00110309
0.00114829
0.00108464
0.00135707
0.00104889
0.00155414
0.000995208
0.0017359
0.00092425
0.00189921
0.000837955
0.00204168
0.000739267
0.00216172
0.000631682
0.00225852
0.0005188
0.00233199
0.00040398
0.00238259
0.000290144
0.00241126
0.000179728
0.00241927
7.46749e-05
0.00240817
-2.35995e-05
0.00237967
-0.000113699
0.00233565
-0.000194924
0.00227812
-0.000266597
0.00220908
-0.00032834
0.00213059
-0.000379995
0.00204464
-0.000421601
0.00195319
-0.000453378
0.00185809
-0.000475707
0.00176106
-0.000489117
0.00166371
-0.000494249
0.00156746
-0.000491831
0.00147357
-0.000482657
0.00138313
-0.000467564
0.00129706
-0.000447405
0.0012161
-0.000423033
0.00114085
-0.000395288
0.00107173
-0.000364985
0.00100901
-0.000332907
0.000952829
-0.000299793
0.000903189
-0.000266334
0.000859978
-0.000233163
0.000822976
-0.00020085
0.000791876
-0.000169893
0.00076629
-0.000140718
0.000745777
-0.000113668
0.000729845
-8.90126e-05
0.000717962
-6.69738e-05
0.000709615
-4.77426e-05
0.000704271
-3.1047e-05
0.000701405
-1.69832e-05
0.000700505
-5.45387e-06
0.000701061
3.43935e-06
0.000702628
9.78345e-06
0.000704774
1.4033e-05
0.000707109
1.63231e-05
0.000709283
1.68452e-05
0.000710989
1.5811e-05
0.000711976
1.34368e-05
0.000712032
9.94098e-06
0.000710974
5.42511e-06
0.00070854
1.25301e-07
0.000704764
-6.17862e-06
0.000699472
-1.30283e-05
0.000692569
-2.05215e-05
0.000683948
-2.87082e-05
0.000673486
-3.77097e-05
0.000661022
-4.77265e-05
0.000646345
-5.90494e-05
0.000629175
-7.21006e-05
0.000609139
-8.74314e-05
0.000585742
-0.000105834
0.000558355
-0.000128324
0.0005261
-0.00015637
0.00048796
-0.00019205
0.000442344
-0.000237406
0.000387754
-0.000298852
0.000322067
-0.000371014
0.000242412
-0.000477144
0.00015403
-0.0005478
5.00526e-05
-0.00062367
-0.000384637
-0.00279273
0.000334088
-0.00270685
0.000344143
-0.00262103
0.000345534
-0.00253086
0.000361571
-0.00243921
0.000368319
-0.00234264
0.000387357
-0.00224287
0.000400453
-0.00213765
0.000421951
-0.00202771
0.000440873
-0.00191165
0.000465168
-0.00178959
0.000489112
-0.00166064
0.000516543
-0.0015246
0.000544757
-0.00138088
0.000575328
-0.0012292
0.000606991
-0.00106919
0.000640133
-0.000900637
0.000673945
-0.000723403
0.000708309
-0.000537527
0.000742532
-0.000343232
0.000775892
-0.000140989
0.000807308
6.84061e-05
0.00083581
0.000283715
0.000858745
0.000503256
0.000875859
0.000724833
0.000884312
0.000945681
0.000882241
0.00116254
0.000867784
0.00137179
0.000839636
0.00156972
0.000797281
0.00175276
0.000741203
0.00191784
0.000672883
0.0020625
0.000594604
0.00218508
0.000509096
0.00228469
0.000419198
0.00236108
0.000327582
0.00241464
0.000236588
0.00244618
0.000148185
0.00245691
6.39496e-05
0.0024483
-1.49951e-05
0.00242203
-8.74241e-05
0.00237995
-0.000152846
0.00232402
-0.000210668
0.00225625
-0.000260572
0.00217868
-0.00030242
0.00209331
-0.00033623
0.00200209
-0.000362164
0.00190691
-0.000380522
0.0018095
-0.000391712
0.00171149
-0.000396239
0.00161434
-0.000394678
0.00151934
-0.000387661
0.00142763
-0.000375852
0.00134016
-0.000359935
0.00125772
-0.000340591
0.00118093
-0.000318496
0.00111024
-0.000294304
0.00104598
-0.000268644
0.0009883
-0.000242112
0.000937232
-0.000215266
0.000892684
-0.000188615
0.000854456
-0.000162622
0.000822252
-0.000137689
0.000795697
-0.000114164
0.000774354
-9.2325e-05
0.000757735
-7.23932e-05
0.000745307
-5.45464e-05
0.000736537
-3.89725e-05
0.000730911
-2.54209e-05
0.000727888
-1.39596e-05
0.000726964
-4.53077e-06
0.00072764
2.76357e-06
0.000729414
8.00922e-06
0.000731881
1.15661e-05
0.000734651
1.3553e-05
0.000737374
1.41226e-05
0.000739743
1.34426e-05
0.000741497
1.1682e-05
0.00074242
9.01871e-06
0.000742295
5.54954e-06
0.000741025
1.39505e-06
0.000738353
-3.50602e-06
0.000734248
-8.92344e-06
0.000728579
-1.48524e-05
0.000721219
-2.13486e-05
0.000712023
-2.85134e-05
0.000700807
-3.65105e-05
0.000687334
-4.5576e-05
0.000671285
-5.60525e-05
0.000652246
-6.83918e-05
0.000629652
-8.32403e-05
0.000602777
-0.000101449
0.000570609
-0.000124201
0.000531885
-0.000153327
0.000484772
-0.000190293
0.00042703
-0.00024111
0.000356408
-0.000300391
0.000268444
-0.00038918
0.000169883
-0.000449239
5.74673e-05
-0.000511254
-0.000327169
-0.00278487
0.000250762
-0.00269889
0.000258158
-0.00261274
0.000259383
-0.00252242
0.000271251
-0.00243051
0.000276411
-0.00233376
0.000290607
-0.00223376
0.000300456
-0.00212835
0.000316541
-0.00201821
0.000330728
-0.00190196
0.000348924
-0.00177971
0.000366863
-0.00165058
0.000387412
-0.00151437
0.000408546
-0.00137049
0.000431447
-0.00121866
0.000455164
-0.00105851
0.000479985
-0.00088985
0.000505282
-0.000712538
0.000530998
-0.00052662
0.000556614
-0.000332317
0.000581589
-0.000130111
0.000605102
7.923e-05
0.000626469
0.00029439
0.000643585
0.000513787
0.000656463
0.000735235
0.000662864
0.000956031
0.000661445
0.00117299
0.000650827
0.00138259
0.000630035
0.00158119
0.000598675
0.00176532
0.000557081
0.00193188
0.000506322
0.00207842
0.00044806
0.00220321
0.000384305
0.00230525
0.000317158
0.00238422
0.000248612
0.00244039
0.000180425
0.00247449
0.000114085
0.00248765
5.07908e-05
0.00248127
-8.62264e-06
0.00245703
-6.31763e-05
0.00241671
-0.000112528
0.00236225
-0.00015621
0.00229565
-0.000193972
0.00221893
-0.000225703
0.00213411
-0.000251407
0.00204315
-0.000271201
0.00194792
-0.000285298
0.00185021
-0.000293999
0.00175164
-0.000297675
0.00165372
-0.000296754
0.00155777
-0.000291707
0.00146495
-0.000283031
0.00137625
-0.000271238
0.0012925
-0.000256839
0.00121434
-0.000240342
0.00114228
-0.00022224
0.00107664
-0.000203006
0.00101762
-0.00018309
0.000965263
-0.000162911
0.000919505
-0.000142857
0.000880159
-0.000123275
0.000846942
-0.000104473
0.000819491
-8.67121e-05
0.000797372
-7.02063e-05
0.000780102
-5.51238e-05
0.000767153
-4.15971e-05
0.000757969
-2.97888e-05
0.000752055
-1.95066e-05
0.000748869
-1.07732e-05
0.000747897
-3.55953e-06
0.000748609
2.05166e-06
0.000750538
6.08022e-06
0.000753253
8.85177e-06
0.000756362
1.04435e-05
0.000759517
1.09681e-05
0.000762408
1.05512e-05
0.000764773
9.31727e-06
0.000766391
7.4005e-06
0.000767067
4.87329e-06
0.000766602
1.86036e-06
0.000764846
-1.74964e-06
0.000761706
-5.78341e-06
0.000757037
-1.01842e-05
0.000750704
-1.50155e-05
0.000742547
-2.03564e-05
0.000732367
-2.63307e-05
0.000719908
-3.31164e-05
0.000704827
-4.09716e-05
0.000686675
-5.02402e-05
0.000664845
-6.14097e-05
0.000638538
-7.51419e-05
0.000606649
-9.2313e-05
0.000567732
-0.000114409
0.000519805
-0.000142366
0.00046001
-0.000181316
0.000386065
-0.000226446
0.000292149
-0.000295264
0.000185683
-0.000342773
6.59944e-05
-0.000391566
-0.000261175
-0.00277852
0.000167238
-0.00269246
0.0001721
-0.00260608
0.000173006
-0.00251567
0.000180836
-0.00242358
0.000184322
-0.00232671
0.000193742
-0.00222658
0.000200318
-0.00212105
0.000211017
-0.00201079
0.000220467
-0.00189445
0.00023258
-0.00177211
0.000244522
-0.0016429
0.000258203
-0.00150662
0.000272271
-0.00136269
0.000287518
-0.00121083
0.000303306
-0.00105068
0.000319829
-0.000882042
0.000336645
-0.000704793
0.000353749
-0.000518975
0.000370795
-0.000324805
0.000387419
-0.000122772
0.000403069
8.63778e-05
0.000417319
0.00030128
0.000428683
0.000520434
0.000437309
0.000741671
0.000441627
0.000962338
0.000440778
0.00117932
0.000433847
0.00138917
0.000420184
0.00158832
0.000399522
0.00177334
0.000372067
0.00194115
0.000338507
0.00208929
0.000299924
0.00221596
0.000257636
0.00232008
0.00021303
0.00240127
0.000167431
0.00245968
0.00012201
0.002496
7.7766e-05
0.00251128
3.55099e-05
0.00250687
-4.21678e-06
0.0024844
-4.07065e-05
0.00244564
-7.37685e-05
0.0023925
-0.000103065
0.00232696
-0.000128427
0.00225103
-0.000149775
0.00216673
-0.000167108
0.00207603
-0.000180498
0.00198081
-0.000190083
0.00188287
-0.000196059
0.00178387
-0.000198672
0.00168532
-0.000198203
0.00158857
-0.000194965
0.00149483
-0.000189288
0.00140511
-0.000181514
0.00132025
-0.000171983
0.00124094
-0.000161035
0.0011677
-0.000148998
0.00110089
-0.00013619
0.00104071
-0.00012291
0.000987237
-0.000109441
0.000940422
-9.60417e-05
0.000900092
-8.29452e-05
0.000865977
-7.03576e-05
0.00083772
-5.84558e-05
0.000814898
-4.73839e-05
0.00079703
-3.72561e-05
0.000783594
-2.81605e-05
0.000774018
-2.02129e-05
0.000767805
-1.32942e-05
0.000764417
-7.38438e-06
0.000763353
-2.49648e-06
0.0007641
1.30542e-06
0.000766116
4.06436e-06
0.000768997
5.97003e-06
0.000772353
7.08788e-06
0.000775829
7.49228e-06
0.000779114
7.26617e-06
0.000781939
6.49154e-06
0.00078408
5.25952e-06
0.000785334
3.61966e-06
0.000785549
1.64572e-06
0.000784523
-7.24151e-07
0.000782119
-3.37893e-06
0.000778224
-6.28961e-06
0.000772695
-9.48598e-06
0.000765362
-1.30233e-05
0.000756016
-1.69847e-05
0.000744388
-2.14886e-05
0.000730123
-2.67066e-05
0.000712752
-3.28694e-05
0.000691642
-4.02994e-05
0.00066595
-4.94498e-05
0.000634523
-6.08868e-05
0.000595781
-7.56665e-05
0.000547694
-9.42791e-05
0.000486913
-0.000120535
0.000411215
-0.000150748
0.000313604
-0.000197653
0.000201562
-0.00023073
7.54182e-05
-0.000265422
-0.000185757
-0.00277404
8.36171e-05
-0.00268797
8.60255e-05
-0.00260147
8.65078e-05
-0.00251103
9.03942e-05
-0.00241885
9.21498e-05
-0.00232196
9.68435e-05
-0.00222177
0.000100131
-0.00211622
0.000105471
-0.00200594
0.000110188
-0.0018896
0.000116235
-0.00176727
0.000122196
-0.0016381
0.000129026
-0.00150187
0.000136048
-0.00135802
0.00014366
-0.00120625
0.000151542
-0.00104622
0.000159794
-0.000877743
0.000168171
-0.000700694
0.0001767
-0.000515108
0.000185209
-0.000321198
0.000193509
-0.000119453
0.000201325
8.94014e-05
0.000208465
0.00030397
0.000214114
0.00052282
0.000218458
0.000743801
0.000220647
0.000964305
0.000220273
0.00118127
0.00021688
0.00139131
0.000210142
0.00159091
0.000199922
0.00177667
0.000186315
0.00194552
0.000169656
0.00209497
0.000150475
0.00222318
0.000129424
0.00232902
0.000107192
0.00241201
8.44373e-05
0.00247227
6.17473e-05
0.00251042
3.96226e-05
0.00252745
1.84747e-05
0.00252465
-1.41991e-06
0.00250368
-1.97297e-05
0.00246622
-3.63127e-05
0.00241419
-5.10329e-05
0.00234955
-6.37918e-05
0.00227433
-7.45472e-05
0.00219052
-8.32963e-05
0.00210009
-9.00728e-05
0.00200495
-9.4944e-05
0.0019069
-9.80066e-05
0.00180761
-9.9382e-05
0.00170862
-9.92105e-05
0.0016113
-9.76475e-05
0.00151687
-9.4858e-05
0.00142637
-9.1012e-05
0.00134066
-8.62803e-05
0.00126046
-8.08322e-05
0.0011863
-7.48326e-05
0.00111855
-6.84402e-05
0.00105744
-6.18056e-05
0.00100307
-5.50698e-05
0.000955392
-4.83627e-05
0.000914249
-4.18019e-05
0.000879382
-3.54906e-05
0.000850444
-2.95182e-05
0.000827017
-2.39571e-05
0.000808626
-1.88652e-05
0.000794751
-1.42849e-05
0.000784822
-1.02842e-05
0.000778337
-6.80922e-06
0.000774765
-3.81261e-06
0.000773593
-1.3244e-06
0.000774278
6.20649e-07
0.000776335
2.0068e-06
0.000779319
2.98659e-06
0.000782835
3.57151e-06
0.00078653
3.79753e-06
0.00079009
3.70646e-06
0.000793242
3.33902e-06
0.000795761
2.741e-06
0.000797443
1.93705e-06
0.000798117
9.72283e-07
0.000797568
-1.75532e-07
0.000795718
-1.52887e-06
0.000792396
-2.9675e-06
0.000787461
-4.55136e-06
0.000780745
-6.30646e-06
0.000772033
-8.27307e-06
0.000761054
-1.05098e-05
0.000747448
-1.31008e-05
0.000730741
-1.61619e-05
0.000710291
-1.98494e-05
0.000685238
-2.4397e-05
0.000654418
-3.00669e-05
0.000616183
-3.74318e-05
0.000568548
-4.66432e-05
0.000507776
-5.97631e-05
0.000431812
-7.47839e-05
0.000332666
-9.85076e-05
0.000217504
-0.000115568
8.63593e-05
-0.000134278
-9.93973e-05
-0.00277175
3.11212e-11
-0.00268573
2.87934e-11
-0.00259922
2.76186e-11
-0.00250883
2.58677e-11
-0.00241668
2.49415e-11
-0.00231983
2.29851e-11
-0.0022197
2.12965e-11
-0.00211423
1.96717e-11
-0.00200404
1.78483e-11
-0.00188781
1.57604e-11
-0.00176561
1.10466e-11
-0.00163658
7.37887e-12
-0.00150054
4.46963e-12
-0.00135688
5.3822e-13
-0.00120533
-3.51469e-12
-0.00104554
-7.82253e-12
-0.000877369
-1.28141e-11
-0.00070067
-1.76161e-11
-0.000515461
-2.00638e-11
-0.000321952
-2.3222e-11
-0.000120627
-2.72466e-11
8.78378e-05
-3.07586e-11
0.000301952
-3.45151e-11
0.00052041
-3.42716e-11
0.000741057
-3.67209e-11
0.00096133
-4.46588e-11
0.00117821
-5.02661e-11
0.00138835
-5.54271e-11
0.00158827
-5.8283e-11
0.00177459
-6.10426e-11
0.00194425
-6.49388e-11
0.00209472
-6.45605e-11
0.00222415
-6.32488e-11
0.00233134
-6.0882e-11
0.00241577
-5.8529e-11
0.00247752
-5.43471e-11
0.00251714
-4.98237e-11
0.00253562
-4.44585e-11
0.0025342
-4.0169e-11
0.00251447
-3.24713e-11
0.00247816
-2.58144e-11
0.00242712
-1.8959e-11
0.00236333
-1.16e-11
0.00228878
-4.39628e-12
0.00220549
3.24539e-12
0.00211542
1.05713e-11
0.00202047
1.80815e-11
0.00192247
2.66423e-11
0.00182308
3.42003e-11
0.00172387
4.21504e-11
0.00162622
5.01917e-11
0.00153137
5.62377e-11
0.00144035
6.13265e-11
0.00135407
6.55077e-11
0.00127324
6.87585e-11
0.00119841
7.09402e-11
0.00112997
7.1568e-11
0.00106816
7.09098e-11
0.00101309
6.9888e-11
0.000964731
6.75498e-11
0.000922929
6.39124e-11
0.000887438
6.09694e-11
0.00085792
5.8076e-11
0.000833963
5.47807e-11
0.000815098
5.08607e-11
0.000800813
4.65975e-11
0.000790528
4.20738e-11
0.000783719
3.74137e-11
0.000779907
3.27418e-11
0.000778582
2.83449e-11
0.000779203
2.22007e-11
0.000781209
1.86774e-11
0.000784196
1.52382e-11
0.000787768
1.19589e-11
0.000791565
8.4664e-12
0.000795272
4.26012e-12
0.000798611
-5.82748e-13
0.000801352
-5.8117e-12
0.000803289
-1.13105e-11
0.000804261
-1.71567e-11
0.000804085
-2.48801e-11
0.000802557
-2.90427e-11
0.000799589
-3.21781e-11
0.000795038
-3.44771e-11
0.000788731
-3.51845e-11
0.000780458
-3.43804e-11
0.000769949
-3.21951e-11
0.000756848
-2.88537e-11
0.000740686
-2.4646e-11
0.000720837
-1.99454e-11
0.00069644
-1.50909e-11
0.000666373
-1.04492e-11
0.000628941
-6.13172e-12
0.000582298
-2.48915e-12
0.000522535
7.09455e-13
0.000447751
2.99852e-12
0.000349243
4.85783e-12
0.000233675
6.26568e-12
9.93973e-05
7.04895e-12
6.67802e-12
-0.00067184
0.00956526
-0.00943994
-0.000797402
0.00955061
-0.00942505
-0.000923695
0.00952721
-0.00940092
-0.00105127
0.00950569
-0.00937811
-0.00118052
0.00948768
-0.00935843
-0.00131171
0.0094741
-0.00934291
-0.0014453
0.00946564
-0.00933204
-0.00158176
0.00946279
-0.00932634
-0.00172177
0.00946638
-0.00932637
-0.00186636
0.00947819
-0.00933359
-0.00201745
0.00950163
-0.00935055
-0.00217748
0.00954415
-0.00938412
-0.00235052
0.00961396
-0.00944091
-0.00253847
0.00972196
-0.00953402
-0.00273602
0.00985725
-0.00965969
-0.002904
0.00997157
-0.00980359
-0.00293621
0.00985797
-0.00982576
-0.00257703
0.00907024
-0.00942943
-0.00150902
0.00661819
-0.0076862
0.0021628
-0.00367182
-0.000679321
0.00969006
-0.000804642
0.00967593
-0.000930768
0.00965333
-0.00105825
0.00963317
-0.00118732
0.00961674
-0.00131834
0.00960513
-0.00145167
0.00959897
-0.00158777
0.00959889
-0.00172729
0.00960589
-0.00187129
0.00962219
-0.00202161
0.00965196
-0.00218086
0.00970341
-0.00235195
0.00978505
-0.00253359
0.0099036
-0.00271031
0.010034
-0.00282259
0.0100839
-0.0027328
0.00976818
-0.00220205
0.0085395
-0.00107213
0.00548827
0.00109067
-0.000686519
0.0098144
-0.00081149
0.0098009
-0.000937403
0.00977925
-0.00106469
0.00976045
-0.00119356
0.00974561
-0.00132436
0.00973593
-0.00145742
0.00973203
-0.00159318
0.00973465
-0.00173228
0.00974499
-0.00187583
0.00976573
-0.00202568
0.0098018
-0.00218419
0.00986192
-0.00235275
0.00995361
-0.00252518
0.010076
-0.00267407
0.0101829
-0.00272029
0.0101301
-0.00250844
0.00955633
-0.00183725
0.00786831
-0.00069542
0.00434643
0.000395252
-0.000693396
0.00993828
-0.000817975
0.00992548
-0.000943599
0.00990487
-0.0010706
0.00988746
-0.00119921
0.00987422
-0.00132971
0.00986643
-0.00146244
0.00986476
-0.00159779
0.00987
-0.00173643
0.00988363
-0.00187947
0.00990877
-0.0020287
0.00995104
-0.00218593
0.0100192
-0.0023504
0.0101181
-0.00250975
0.0102354
-0.00262372
0.0102968
-0.00259701
0.0101034
-0.00226813
0.00922745
-0.0014805
0.00708068
-0.00042928
0.00329521
-3.40273e-05
-0.000699931
0.0100617
-0.000824094
0.0100496
-0.000949369
0.0100301
-0.00107603
0.0100141
-0.0012043
0.0100025
-0.00133443
0.00999656
-0.00146671
0.00999704
-0.00160154
0.0100048
-0.00173958
0.0100217
-0.00188195
0.0100511
-0.00203026
0.0100994
-0.00218542
0.0101743
-0.00234363
0.0102763
-0.00248526
0.010377
-0.00255708
0.0103686
-0.00245261
0.00999888
-0.00201906
0.00879389
-0.00115622
0.00621784
-0.000243893
0.00238289
-0.00027792
-0.000706127
0.0101845
-0.000829856
0.0101734
-0.000954746
0.010155
-0.00108103
0.0101404
-0.00120889
0.0101303
-0.00133858
0.0101262
-0.00147033
0.0101288
-0.00160453
0.010139
-0.00174181
0.010159
-0.00188323
0.0101926
-0.00203001
0.0102461
-0.00218168
0.010326
-0.00233076
0.0104254
-0.00244999
0.0104963
-0.00247458
0.0103932
-0.00229149
0.00981579
-0.00177042
0.00827283
-0.000880417
0.00532784
-0.000126139
0.00162861
-0.000404059
-0.000711959
0.0103068
-0.00083523
0.0102966
-0.00095969
0.0102795
-0.00108554
0.0102663
-0.00121295
0.0102577
-0.0013421
0.0102554
-0.00147324
0.0102599
-0.0016067
0.0102725
-0.00174312
0.0102954
-0.00188347
0.0103329
-0.00202854
0.0103912
-0.00217618
0.0104736
-0.00231442
0.0105636
-0.0024077
0.0105895
-0.00238108
0.0103666
-0.00212043
0.00955514
-0.00152593
0.00767833
-0.000660168
0.00446208
-6.252e-05
0.00103096
-0.000466579
-0.000717476
0.0104285
-0.000840297
0.0104195
-0.00096432
0.0104035
-0.00108974
0.0103917
-0.00121667
0.0103847
-0.00134529
0.010384
-0.00147577
0.0103904
-0.00160846
0.0104052
-0.00174392
0.0104308
-0.00188288
0.0104719
-0.00202524
0.0105336
-0.00216642
0.0106148
-0.00228944
0.0106866
-0.00235158
0.0106517
-0.00227238
0.0102874
-0.0019427
0.00922546
-0.00129673
0.00703236
-0.000495143
0.00366049
-3.81053e-05
0.000573924
-0.000504685
-0.000722522
0.0105495
-0.000844884
0.0105418
-0.000968361
0.010527
-0.00109326
0.0105166
-0.00121959
0.010511
-0.00134754
0.010512
-0.00147723
0.0105201
-0.00160899
0.010537
-0.00174337
0.0105652
-0.00188092
0.0106094
-0.00202087
0.0106735
-0.00215657
0.0107505
-0.00226618
0.0107962
-0.0022991
0.0106846
-0.00216781
0.0101561
-0.00177106
0.00882871
-0.00109234
0.00635364
-0.000379499
0.00294765
-3.96003e-05
0.000234025
-0.000544285
-0.000727067
0.010669
-0.000849786
0.0106645