/*--------------------------------*- C++ -*----------------------------------*\
  =========                 |
  \\      /  F ield         | OpenFOAM: The Open Source CFD Toolbox
   \\    /   O peration     | Website:  https://openfoam.org
    \\  /    A nd           | Version:  7
     \\/     M anipulation  |
\*---------------------------------------------------------------------------*/
FoamFile
{
    version     2.0;
    format      ascii;
    class       volVectorField;
    location    "20";
    object      U;
}
// * * * * * * * * * * * * * * * * * * * * * * * * * * * * * * * * * * * * * //

dimensions      [0 1 -1 0 0 0 0];

internalField   nonuniform List<vector> 
175
(
(0.988211 -2.39657e-06 -2.48231e-17)
(1.00819 -0.00146394 -8.12872e-18)
(0.98303 -0.000566145 5.34009e-18)
(1.00749 -0.00237386 1.11423e-17)
(0.974709 -0.00184506 4.83396e-18)
(1.00355 -0.0040575 -2.15188e-17)
(0.960625 -0.00473511 3.7413e-17)
(0.992101 -0.00739486 8.18935e-18)
(0.935185 -0.0115161 1.43753e-17)
(0.962922 -0.0146446 -4.82762e-17)
(0.885273 -0.0292317 2.85999e-17)
(0.888177 -0.0336948 4.58356e-17)
(0.774448 -0.0864758 1.08189e-18)
(1.00524 -0.000248748 6.33459e-18)
(0.993827 0.000265382 1.53151e-17)
(1.00639 -0.000552933 -1.13328e-17)
(0.991614 0.000199106 -1.18776e-17)
(1.00749 -0.000841895 3.23727e-17)
(0.98827 -6.25977e-06 -2.43279e-17)
(1.0081 -0.0013069 -1.71125e-17)
(0.983115 -0.000511898 3.00154e-18)
(1.00737 -0.00211879 2.52629e-17)
(0.974834 -0.00166029 4.77496e-18)
(1.00336 -0.00362023 -2.13169e-17)
(0.960828 -0.00425663 2.37524e-17)
(0.991783 -0.00659378 1.16531e-17)
(0.93556 -0.0103565 3.83811e-18)
(0.962273 -0.0130453 -3.51817e-17)
(0.886086 -0.0263315 1.8845e-17)
(0.886292 -0.0300281 5.21298e-17)
(0.77622 -0.0781379 3.06738e-17)
(1.00522 -0.000219248 1.40099e-17)
(0.993851 0.000233193 2.54064e-17)
(1.00635 -0.000486866 -2.32978e-17)
(0.991653 0.000174146 -8.0937e-18)
(1.00744 -0.000741882 2.23131e-17)
(0.988324 -6.95464e-06 -1.22335e-17)
(1.00803 -0.00115179 -2.7947e-17)
(0.983191 -0.00045585 3.73067e-18)
(1.00725 -0.00186735 4.3991e-17)
(0.974947 -0.00147339 3.48843e-18)
(1.00319 -0.00318947 -2.38754e-17)
(0.96101 -0.00377434 1.6402e-17)
(0.991491 -0.00580392 1.66819e-17)
(0.935903 -0.00918555 1.10178e-17)
(0.961659 -0.0114646 -2.81022e-17)
(0.886843 -0.0233843 1.9929e-17)
(0.884464 -0.0263755 6.86573e-17)
(0.777799 -0.0695451 6.08863e-17)
(1.0052 -0.000189851 7.91183e-18)
(0.993872 0.000201394 1.84326e-17)
(1.00632 -0.000421169 -2.36783e-17)
(0.991687 0.000149845 -2.0445e-18)
(1.00739 -0.000642153 -2.53454e-18)
(0.988371 -7.69167e-06 -6.31895e-18)
(1.00796 -0.00099695 -2.42136e-17)
(0.983258 -0.000397651 1.02949e-17)
(1.00716 -0.00161589 5.06695e-17)
(0.975047 -0.00128189 -3.72063e-18)
(1.00304 -0.00275807 -9.5554e-18)
(0.961174 -0.00328182 1.47508e-17)
(0.991229 -0.00501255 3.95481e-18)
(0.936216 -0.0079893 1.70962e-17)
(0.9611 -0.00988188 -2.68965e-17)
(0.887544 -0.0203621 5.48809e-18)
(0.882772 -0.0227085 7.10904e-17)
(0.77924 -0.0606627 7.00404e-17)
(1.00518 -0.000160529 4.55061e-18)
(0.993891 0.000169898 1.24845e-17)
(1.0063 -0.000355799 -1.05021e-17)
(0.991717 0.000125995 4.62808e-18)
(1.00735 -0.000542765 -9.87831e-18)
(0.988413 -7.48324e-06 -2.50743e-18)
(1.00791 -0.000842632 -2.28605e-17)
(0.983316 -0.000338525 4.6495e-18)
(1.00707 -0.00136545 4.66605e-17)
(0.975134 -0.00108871 -1.48829e-17)
(1.00291 -0.00232919 3.60654e-18)
(0.961319 -0.00278584 1.64494e-17)
(0.991003 -0.00422832 -2.90895e-17)
(0.936497 -0.00678381 4.54946e-17)
(0.960609 -0.00832076 -3.1872e-17)
(0.888185 -0.0173067 -1.33791e-18)
(0.88127 -0.0190988 3.58064e-17)
(0.780559 -0.051628 6.02902e-17)
(1.00517 -0.000131261 3.13368e-18)
(0.993908 0.000138644 2.65971e-17)
(1.00628 -0.000290721 1.93053e-19)
(0.991742 0.000102499 1.32111e-17)
(1.00732 -0.000443727 -1.89985e-17)
(0.988448 -6.86426e-06 -1.85779e-17)
(1.00786 -0.000688947 -2.65826e-17)
(0.983366 -0.000278643 -1.46121e-17)
(1.007 -0.00111632 3.04228e-17)
(0.975208 -0.000894323 -1.28059e-17)
(1.0028 -0.00190339 7.54111e-20)
(0.961444 -0.00228744 -8.54292e-19)
(0.990815 -0.00345208 -4.42596e-17)
(0.936743 -0.00557149 6.09501e-17)
(0.960198 -0.00678207 -1.99027e-17)
(0.888754 -0.0142249 -4.57922e-18)
(0.879998 -0.0155472 1.03603e-17)
(0.781752 -0.042471 5.91762e-17)
(1.00516 -0.000102034 4.42483e-18)
(0.993921 0.000107583 2.62012e-17)
(1.00626 -0.000225879 -9.15165e-18)
(0.991763 7.92956e-05 2.21894e-17)
(1.0073 -0.00034498 -1.47926e-17)
(0.988476 -5.69703e-06 -1.90735e-17)
(1.00782 -0.000535773 -1.40926e-17)
(0.983407 -0.000218101 -1.3555e-17)
(1.00695 -0.000868217 1.96782e-17)
(0.975269 -0.000698775 -1.50223e-17)
(1.00272 -0.00148002 -2.69092e-18)
(0.961547 -0.00178659 -9.16091e-19)
(0.990668 -0.00268228 -4.33309e-17)
(0.936949 -0.00435234 6.69247e-17)
(0.959873 -0.00526209 -1.74541e-17)
(0.88924 -0.0111184 -6.30683e-18)
(0.878983 -0.0120458 1.91175e-17)
(0.782801 -0.0332075 6.8212e-17)
(1.00515 -7.28299e-05 8.51454e-18)
(0.993931 7.66579e-05 2.99472e-17)
(1.00625 -0.000161203 -2.29119e-18)
(0.991778 5.63271e-05 1.50601e-17)
(1.00728 -0.000246464 -1.62721e-17)
(0.988498 -4.49815e-06 -2.23965e-17)
(1.00779 -0.000383036 -4.4123e-18)
(0.983437 -0.00015695 -1.27447e-17)
(1.00691 -0.00062093 1.30327e-17)
(0.975317 -0.00050201 -2.15394e-17)
(1.00265 -0.00105847 -4.82822e-18)
(0.961628 -0.00128305 1.63674e-17)
(0.99056 -0.00191736 -2.53643e-17)
(0.937113 -0.003126 6.59382e-17)
(0.959636 -0.00375697 -2.3466e-17)
(0.889629 -0.00798832 -7.47137e-18)
(0.878238 -0.00858743 6.28548e-18)
(0.783672 -0.0238545 5.87684e-17)
(1.00514 -4.3622e-05 -1.67376e-18)
(0.993937 4.57907e-05 3.86888e-17)
(1.00624 -9.66252e-05 3.4137e-18)
(0.991789 3.34815e-05 2.90283e-17)
(1.00726 -0.000148149 -2.38783e-17)
(0.988512 -2.45303e-06 -1.04873e-17)
(1.00777 -0.000230743 5.61622e-18)
(0.983459 -9.51287e-05 -1.31557e-17)
(1.00688 -0.000374659 8.01385e-18)
(0.975349 -0.000304216 -1.3945e-17)
(1.00261 -0.000639193 -5.36922e-18)
(0.961684 -0.000777484 1.53296e-17)
(0.990492 -0.00115781 -9.16702e-18)
(0.937228 -0.00189458 5.63697e-17)
(0.959488 -0.00226624 -3.9306e-17)
(0.889907 -0.00484277 -7.68714e-18)
(0.877764 -0.00517046 -2.14582e-18)
(0.784321 -0.0144556 3.26937e-17)
(1.00514 -1.44582e-05 8.50647e-18)
(0.993941 1.50381e-05 1.77393e-17)
(1.00623 -3.21372e-05 8.89089e-18)
(0.991794 1.06028e-05 2.78652e-17)
(1.00726 -4.96722e-05 -1.9952e-17)
(0.98852 -1.59337e-06 1.88119e-18)
(1.00776 -7.81087e-05 1.58236e-17)
(0.983469 -3.48838e-05 -1.5597e-17)
(1.00687 -0.000128255 3.9651e-18)
(0.975366 -0.000109356 -9.48398e-18)
(1.00259 -0.000221412 -4.62933e-18)
(0.961714 -0.00027809 1.69095e-17)
(0.99046 -0.000405635 8.24008e-18)
(0.937289 -0.000676662 5.56004e-17)
(0.95942 -0.000801603 -4.37025e-17)
(0.890056 -0.00172635 -7.98563e-18)
(0.877543 -0.00183839 -3.66259e-17)
(0.784686 -0.00510613 1.36559e-17)
)
;

boundaryField
{
    inlet
    {
        type            uniformFixedValue;
        uniformValue    constant (1 0 0);
        value           uniform (1 0 0);
    }
    outlet
    {
        type            pressureInletOutletVelocity;
        value           nonuniform 0();
    }
    polygon
    {
        type            fixedValue;
        value           nonuniform 0();
    }
    top
    {
        type            symmetryPlane;
    }
    bottom
    {
        type            symmetryPlane;
    }
    outside
    {
        type            zeroGradient;
    }
    procBoundary24to16
    {
        type            processor;
        value           nonuniform List<vector> 
19
(
(1.00526 -0.000278337 1.72496e-18)
(0.9938 0.000297957 7.09368e-18)
(1.00642 -0.000619633 -2.31028e-18)
(0.991572 0.000224627 -1.50626e-17)
(1.00754 -0.000942938 2.88733e-17)
(1.00754 -0.000942938 2.88733e-17)
(0.98815 -6.18728e-07 -1.43624e-17)
(1.00827 -0.00161767 -1.60248e-17)
(0.982944 -0.00062806 9.05909e-18)
(1.00762 -0.00263176 4.18977e-19)
(0.97458 -0.0020482 3.84037e-18)
(1.00375 -0.00451702 -2.27227e-17)
(0.960416 -0.00525929 2.1403e-17)
(0.99242 -0.00827363 -1.61464e-17)
(0.934798 -0.0127923 2.35772e-17)
(0.963554 -0.0164839 -6.80308e-17)
(0.884432 -0.0324469 2.55373e-17)
(0.889962 -0.0381383 4.58132e-17)
(0.772451 -0.0958212 -3.68949e-17)
)
;
    }
    procBoundary24to25
    {
        type            processor;
        value           nonuniform List<vector> 10((0.673012 -0.112028 3.02746e-17) (0.664433 -0.101047 3.39657e-17) (0.656206 -0.0896404 4.28443e-17) (0.648634 -0.077859 1.99959e-17) (0.641923 -0.0659984 1.74066e-18) (0.636209 -0.0540874 -1.49422e-17) (0.631575 -0.0421321 2.73472e-18) (0.62807 -0.0301503 1.56907e-17) (0.625718 -0.0181984 -9.37671e-18) (0.624531 -0.00641794 -3.56732e-17));
    }
    procBoundary24to32
    {
        type            processor;
        value           nonuniform List<vector> 
18
(
(1.00514 1.44583e-05 3.10398e-18)
(0.993941 -1.50381e-05 -2.72818e-19)
(1.00623 3.21373e-05 1.66283e-17)
(0.991794 -1.06025e-05 2.96017e-17)
(1.00726 4.96726e-05 -1.50709e-18)
(0.98852 1.59409e-06 1.6428e-17)
(1.00776 7.81095e-05 2.77035e-17)
(0.983469 3.48849e-05 -2.21056e-17)
(1.00687 0.000128256 5.44032e-19)
(0.975366 0.000109358 -2.60932e-17)
(1.00259 0.000221414 -3.34602e-18)
(0.961714 0.000278093 2.29814e-17)
(0.99046 0.000405637 8.3335e-18)
(0.937289 0.000676664 6.16168e-17)
(0.95942 0.000801606 -3.54374e-17)
(0.890056 0.00172635 -7.1412e-18)
(0.877543 0.0018384 -4.62677e-17)
(0.784686 0.00510614 -3.22075e-18)
)
;
    }
}


// ************************************************************************* //
