/*--------------------------------*- C++ -*----------------------------------*\
  =========                 |
  \\      /  F ield         | OpenFOAM: The Open Source CFD Toolbox
   \\    /   O peration     | Website:  https://openfoam.org
    \\  /    A nd           | Version:  7
     \\/     M anipulation  |
\*---------------------------------------------------------------------------*/
FoamFile
{
    version     2.0;
    format      ascii;
    class       volVectorField;
    location    "20";
    object      U;
}
// * * * * * * * * * * * * * * * * * * * * * * * * * * * * * * * * * * * * * //

dimensions      [0 1 -1 0 0 0 0];

internalField   nonuniform List<vector> 
225
(
(1.25094 0.118485 -6.56337e-18)
(1.33706 0.154545 -7.86223e-18)
(1.3536 0.219154 -2.10551e-17)
(1.46456 0.282653 4.70153e-18)
(1.25182 0.114001 -6.43602e-18)
(1.34011 0.150024 -8.35128e-18)
(1.35628 0.206212 -2.03416e-17)
(1.45779 0.269477 1.14513e-17)
(1.25279 0.109448 -6.16339e-18)
(1.34308 0.14542 -8.59756e-18)
(1.35922 0.193384 -2.26975e-17)
(1.45039 0.256367 1.59359e-18)
(1.25367 0.104832 -5.59294e-18)
(1.34577 0.140736 -1.2231e-17)
(1.36194 0.180591 -2.14699e-17)
(1.44503 0.243263 -6.88859e-18)
(1.25445 0.10016 -3.66613e-18)
(1.34815 0.13598 -1.57828e-17)
(1.36435 0.167758 -1.77375e-17)
(1.44115 0.230098 -7.71519e-18)
(1.25515 0.0954398 -2.84147e-18)
(1.35025 0.131159 -1.83801e-17)
(1.3665 0.154844 -1.62285e-17)
(1.4381 0.216842 -1.4609e-17)
(1.25578 0.0906784 -7.06777e-19)
(1.35206 0.126281 -1.51375e-17)
(1.36843 0.14182 -1.23384e-17)
(1.43576 0.203475 -1.27479e-17)
(1.25635 0.0858832 3.30226e-19)
(1.35358 0.121351 -1.75397e-17)
(1.37015 0.128654 -1.18499e-17)
(1.43423 0.189976 -4.77839e-18)
(1.25684 0.0810642 4.39987e-18)
(1.35479 0.116377 -1.64299e-17)
(1.3717 0.115314 -1.26765e-17)
(1.43382 0.176319 -5.8156e-18)
(1.25719 0.0762418 6.45925e-18)
(1.35555 0.111361 -1.28683e-17)
(1.37294 0.101761 -1.56551e-17)
(1.43406 0.162472 -4.85415e-18)
(1.24089 0.159434 -7.45113e-18)
(1.29805 0.200032 2.23578e-18)
(1.31603 0.332774 -1.72592e-17)
(1.40503 0.396994 -4.26002e-18)
(1.24223 0.15572 -7.35916e-18)
(1.30276 0.195689 4.62006e-18)
(1.32065 0.322659 -2.07681e-17)
(1.40765 0.386727 -5.75606e-18)
(1.2436 0.151907 -7.23658e-18)
(1.30748 0.191274 4.3074e-18)
(1.32538 0.312407 -2.43604e-17)
(1.40996 0.376333 -1.0302e-17)
(1.24486 0.147998 -7.42671e-18)
(1.31198 0.18679 4.22371e-18)
(1.32992 0.301935 -2.7905e-17)
(1.4145 0.365737 -3.08436e-18)
(1.24602 0.143999 -9.56833e-18)
(1.31625 0.182245 3.88618e-18)
(1.3342 0.291174 -2.99667e-17)
(1.42045 0.354877 3.28221e-18)
(1.24708 0.139914 -1.09527e-17)
(1.3203 0.177645 1.06962e-18)
(1.33824 0.280091 -2.95785e-17)
(1.42716 0.343727 3.38213e-18)
(1.24805 0.135749 -1.04251e-17)
(1.32413 0.172998 3.34132e-18)
(1.34204 0.26866 -2.8561e-17)
(1.43456 0.332265 1.90877e-18)
(1.24893 0.131508 -9.38567e-18)
(1.32775 0.168315 -4.17625e-19)
(1.34558 0.256851 -2.7522e-17)
(1.44282 0.320466 9.77777e-19)
(1.24971 0.127198 -7.11221e-18)
(1.33112 0.163612 -4.13921e-18)
(1.34885 0.244626 -2.62968e-17)
(1.45222 0.308287 -5.76683e-18)
(1.25034 0.122834 -6.66377e-18)
(1.33419 0.158935 -4.60519e-18)
(1.35167 0.23193 -2.51707e-17)
(1.46222 0.295603 -5.16464e-18)
(1.21649 0.159689 1.19743e-18)
(1.22548 0.191684 -4.79413e-18)
(1.24827 0.244557 8.45152e-19)
(1.26145 0.406358 -2.08684e-17)
(1.25316 0.47363 -1.05418e-17)
(1.21801 0.157342 6.13329e-19)
(1.22741 0.188846 -4.53586e-18)
(1.25366 0.240404 -1.18492e-18)
(1.26769 0.401323 -2.05101e-17)
(1.26423 0.467877 -1.01699e-17)
(1.21954 0.154976 -4.14815e-19)
(1.22933 0.185914 -4.6927e-18)
(1.25914 0.236147 -3.33709e-19)
(1.27389 0.395896 -2.27947e-17)
(1.27579 0.461828 -9.99723e-18)
(1.22103 0.152592 1.47144e-18)
(1.23113 0.182889 -4.76565e-18)
(1.26449 0.23179 1.69103e-18)
(1.28 0.389987 -2.26647e-17)
(1.28985 0.455399 -6.13895e-18)
(1.22247 0.150192 3.01706e-18)
(1.23283 0.179774 -6.41482e-18)
(1.2697 0.227339 -4.69533e-19)
(1.28595 0.38354 -2.39628e-17)
(1.30515 0.448536 -1.07151e-17)
(1.22388 0.14778 3.02331e-18)
(1.23442 0.176571 -6.81829e-18)
(1.27479 0.222803 2.87483e-18)
(1.29169 0.376533 -2.03716e-17)
(1.32104 0.441221 -1.0359e-17)
(1.22524 0.145357 3.06096e-18)
(1.23592 0.173282 -8.46784e-18)
(1.27975 0.218194 6.0981e-18)
(1.29719 0.368947 -2.01568e-17)
(1.33762 0.433436 -8.75968e-18)
(1.22656 0.142928 3.02676e-18)
(1.23732 0.16991 -8.10701e-18)
(1.28457 0.213527 7.81893e-18)
(1.30244 0.360754 -2.37118e-17)
(1.35509 0.425152 -3.33977e-18)
(1.22784 0.140498 3.56453e-18)
(1.23861 0.16646 -7.36393e-18)
(1.28923 0.208834 4.86416e-18)
(1.30739 0.351922 -2.50621e-17)
(1.37372 0.416322 -2.08154e-18)
(1.22907 0.13808 4.87469e-18)
(1.23978 0.162946 -5.75251e-18)
(1.29369 0.204196 4.08332e-18)
(1.31197 0.342417 -2.03223e-17)
(1.39289 0.406811 2.82511e-18)
(1.2029 0.181564 6.02708e-19)
(1.20502 0.21636 -4.22904e-18)
(1.19845 0.283507 -2.23128e-19)
(1.18496 0.425153 -2.69702e-17)
(1.02184 0.50727 -5.32049e-18)
(1.20465 0.179465 1.19399e-19)
(1.2077 0.214185 -5.87885e-18)
(1.2035 0.280378 -3.27185e-19)
(1.19451 0.426276 -2.61816e-17)
(1.04004 0.506111 -5.16291e-18)
(1.20579 0.177341 -1.14491e-18)
(1.20966 0.211937 -6.39743e-18)
(1.20835 0.27699 -8.07995e-19)
(1.20361 0.426718 -2.56618e-17)
(1.06303 0.504486 -6.44965e-18)
(1.2071 0.175195 -1.11614e-18)
(1.2118 0.209614 -8.1106e-18)
(1.21345 0.273384 -2.92155e-18)
(1.21181 0.426487 -2.46408e-17)
(1.08537 0.502369 -7.68914e-18)
(1.20853 0.173023 -1.08755e-18)
(1.21403 0.20722 -7.70451e-18)
(1.2186 0.269587 -3.24496e-18)
(1.21965 0.425607 -2.39245e-17)
(1.10747 0.499773 -7.57961e-18)
(1.20994 0.170829 -1.05368e-18)
(1.21618 0.204758 -7.2926e-18)
(1.22369 0.265612 -4.95275e-18)
(1.22734 0.424059 -2.33608e-17)
(1.13045 0.496681 -7.78809e-18)
(1.21129 0.168614 -8.88692e-19)
(1.21822 0.202229 -5.66419e-18)
(1.22872 0.261473 -4.83957e-18)
(1.23482 0.421812 -2.2558e-17)
(1.15448 0.493065 -7.74807e-18)
(1.21262 0.166383 -8.88346e-19)
(1.22016 0.199639 -5.22879e-18)
(1.23369 0.257192 -4.60048e-18)
(1.242 0.418845 -2.20089e-17)
(1.17949 0.488902 -7.81829e-18)
(1.21391 0.164141 -7.65854e-19)
(1.222 0.196992 -4.97896e-18)
(1.23857 0.252813 -3.82847e-18)
(1.24881 0.41515 -2.15754e-17)
(1.20568 0.48417 -8.19799e-18)
(1.21517 0.161903 -2.43676e-19)
(1.22376 0.194311 -5.05633e-18)
(1.24339 0.248442 -9.51251e-19)
(1.2553 0.410776 -2.10766e-17)
(1.23253 0.478866 -1.09875e-17)
(0.798584 0.384725 -2.68264e-18)
(0.800355 0.393727 -3.30067e-18)
(0.802198 0.402428 -4.02485e-18)
(0.804108 0.4112 -5.451e-18)
(0.806079 0.420007 -4.9021e-18)
(0.808101 0.42879 -4.34136e-18)
(0.810155 0.437545 -3.73322e-18)
(0.812217 0.446291 -3.19663e-18)
(0.814241 0.455078 -2.55397e-18)
(0.816156 0.463845 -1.60749e-18)
(0.780846 0.273412 -5.21572e-18)
(0.782402 0.28485 -4.95376e-18)
(0.78404 0.296059 -5.4211e-18)
(0.785753 0.307288 -6.10242e-18)
(0.787533 0.318534 -3.59727e-18)
(0.789372 0.329761 -3.88274e-18)
(0.791252 0.340962 -4.49696e-18)
(0.793152 0.352168 -2.15238e-18)
(0.795042 0.363463 -2.32843e-18)
(0.796876 0.374673 -2.4135e-18)
(0.768031 0.144682 -1.33704e-17)
(0.768981 0.157751 -1.51025e-17)
(0.770024 0.170695 -1.35772e-17)
(0.771155 0.18364 -1.24597e-17)
(0.77237 0.196588 -1.13622e-17)
(0.77366 0.209526 -1.07272e-17)
(0.775019 0.222451 -1.05546e-17)
(0.776434 0.235386 -1.04515e-17)
(0.777892 0.248375 -1.1328e-17)
(0.779374 0.26128 -8.4626e-18)
(0.763089 0.00690573 -1.64938e-17)
(0.763185 0.0207626 -1.92064e-17)
(0.763376 0.0345915 -1.86014e-17)
(0.763659 0.048408 -1.88409e-17)
(0.764034 0.0622187 -1.98105e-17)
(0.764498 0.0760249 -2.21432e-17)
(0.765048 0.089829 -1.69925e-17)
(0.765681 0.103644 -1.65542e-17)
(0.766394 0.117488 -1.21723e-17)
(0.767181 0.131289 -1.23481e-17)
(0.830467 0.536459 -6.57214e-18)
(0.92696 0.373004 1.12645e-17)
(1.00778 0.381719 -8.73346e-19)
(1.05999 0.289605 9.86216e-18)
(1.09276 0.254718 6.80653e-18)
)
;

boundaryField
{
    inlet
    {
        type            uniformFixedValue;
        uniformValue    constant (1 0 0);
        value           nonuniform 0();
    }
    outlet
    {
        type            pressureInletOutletVelocity;
        value           nonuniform 0();
    }
    polygon
    {
        type            fixedValue;
        value           uniform (0 0 0);
    }
    top
    {
        type            symmetryPlane;
    }
    bottom
    {
        type            symmetryPlane;
    }
    outside
    {
        type            zeroGradient;
    }
    procBoundary9to5
    {
        type            processor;
        value           uniform (0.763089 -0.00690574 -1.47088e-17);
    }
    procBoundary9to8
    {
        type            processor;
        value           nonuniform List<vector> 
25
(
(0.843367 0.0333395 -5.42578e-18)
(0.847526 0.0353091 -3.69245e-18)
(0.851846 0.0372667 -1.9937e-18)
(0.856328 0.0392198 -6.26202e-19)
(0.860971 0.041179 6.62652e-19)
(0.810794 0.0163342 3.95652e-18)
(0.813202 0.018021 3.44529e-18)
(0.815808 0.0196945 -1.74765e-18)
(0.81861 0.0213714 -2.64849e-18)
(0.821603 0.0230542 -3.7564e-18)
(0.824787 0.0247412 -4.71878e-18)
(0.828156 0.0264315 -5.89048e-18)
(0.831708 0.0281178 -7.70542e-18)
(0.835439 0.0297791 -9.30289e-18)
(0.839346 0.0314474 -7.27559e-18)
(0.798418 0.000804838 2.02846e-17)
(0.798647 0.00234502 1.84097e-17)
(0.799105 0.00387626 1.6886e-17)
(0.79979 0.00541565 1.6081e-17)
(0.8007 0.00695919 1.12056e-17)
(0.801835 0.0085042 6.31638e-18)
(0.803193 0.0100494 1.45377e-18)
(0.804772 0.0115885 1.21371e-18)
(0.80657 0.0131101 4.8842e-19)
(0.808585 0.0146467 4.47376e-18)
)
;
    }
    procBoundary9to10
    {
        type            processor;
        value           nonuniform List<vector> 4((1.25745 0.0715005 6.70408e-18) (1.35618 0.106346 -1.24816e-17) (1.37274 0.0881983 -1.585e-17) (1.4263 0.148661 -4.33495e-18));
    }
    procBoundary9to12
    {
        type            processor;
        value           nonuniform List<vector> 
20
(
(0.89216 0.0531849 -9.68767e-18)
(0.897825 0.0555624 -9.83288e-18)
(0.903691 0.0579198 -9.76328e-18)
(0.909771 0.0602616 -6.51601e-18)
(0.916082 0.0626106 -2.80711e-18)
(0.92264 0.0649604 4.52596e-19)
(0.929466 0.0673039 4.3328e-18)
(0.93658 0.0697117 8.26318e-18)
(0.944007 0.0722996 1.29371e-17)
(0.951774 0.0745649 1.4177e-17)
(0.865775 0.0431454 2.0264e-18)
(0.870743 0.0451198 -7.67506e-19)
(0.875873 0.0470941 -3.68227e-18)
(0.881168 0.0490339 -6.49498e-18)
(0.886628 0.050961 -9.8767e-18)
(1.02714 0.0810531 -1.58035e-18)
(1.02691 0.0728593 -3.49508e-18)
(1.02429 0.0580908 5.57427e-18)
(0.986598 0.0497015 5.17852e-18)
(0.979914 0.0351527 5.14189e-18)
)
;
    }
    procBoundary9to13
    {
        type            processor;
        value           nonuniform List<vector> 
42
(
(1.24189 0.110888 3.66624e-18)
(1.24286 0.108401 3.56979e-18)
(1.24381 0.105902 3.32631e-18)
(1.24468 0.103393 2.79621e-18)
(1.24546 0.100876 3.88671e-19)
(1.24616 0.0983526 -1.5235e-18)
(1.24677 0.095824 -1.98558e-18)
(1.2473 0.0932912 -3.74082e-18)
(1.24773 0.0907552 -3.27727e-18)
(1.24805 0.0882167 -3.07382e-18)
(1.2303 0.135704 4.69673e-18)
(1.2303 0.135704 4.69673e-18)
(1.23167 0.13324 4.24889e-18)
(1.23306 0.130765 3.82816e-18)
(1.23439 0.128282 1.86224e-18)
(1.23565 0.125791 2.06406e-18)
(1.23685 0.123297 2.30834e-18)
(1.23799 0.1208 4.30656e-18)
(1.23907 0.118303 4.05075e-18)
(1.24009 0.11581 3.85144e-18)
(1.24102 0.113329 3.88448e-18)
(1.18753 0.125989 -6.17117e-19)
(1.18845 0.124218 -4.74788e-19)
(1.18936 0.122431 -4.67826e-20)
(1.19023 0.12063 1.18776e-18)
(1.19105 0.118814 1.41107e-18)
(1.19183 0.116984 2.85932e-18)
(1.19258 0.11514 3.63979e-18)
(1.1933 0.113285 3.2144e-18)
(1.19397 0.11142 2.32329e-18)
(1.19459 0.109554 2.9084e-18)
(1.17902 0.14244 -2.95186e-18)
(1.18021 0.14082 -2.05746e-18)
(1.18093 0.139197 -2.14316e-18)
(1.18176 0.137568 -2.81266e-18)
(1.18267 0.135929 -2.72975e-18)
(1.18356 0.134283 -2.41313e-18)
(1.18441 0.132629 -2.12386e-18)
(1.18522 0.130969 -1.52915e-18)
(1.186 0.129307 -4.93891e-19)
(1.18674 0.127653 -5.94136e-19)
(1.09685 0.20041 1.18814e-17)
)
;
    }
}


// ************************************************************************* //
