/*--------------------------------*- C++ -*----------------------------------*\
  =========                 |
  \\      /  F ield         | OpenFOAM: The Open Source CFD Toolbox
   \\    /   O peration     | Website:  https://openfoam.org
    \\  /    A nd           | Version:  7
     \\/     M anipulation  |
\*---------------------------------------------------------------------------*/
FoamFile
{
    version     2.0;
    format      ascii;
    class       volScalarField;
    location    "90";
    object      p;
}
// * * * * * * * * * * * * * * * * * * * * * * * * * * * * * * * * * * * * * //

dimensions      [0 2 -2 0 0 0 0];

internalField   nonuniform List<scalar> 
11200
(
-0.000792751
-0.00258696
-0.00428822
-0.00618054
-0.0080567
-0.00997732
-0.0118718
-0.0137349
-0.0155369
-0.0172649
-0.0189035
-0.0204431
-0.0218754
-0.0231962
-0.0244016
-0.0254889
-0.0264593
-0.0273135
-0.0280546
-0.028686
-0.0292122
-0.0296383
-0.0299703
-0.0302144
-0.0303775
-0.0304669
-0.03049
-0.0304548
-0.0303692
-0.0302413
-0.0300795
-0.0298917
-0.029686
-0.0294702
-0.0292517
-0.0290375
-0.0288341
-0.0286474
-0.028483
-0.0283457
-0.0282397
-0.0281686
-0.0281354
-0.0281426
-0.0281921
-0.0282855
-0.0284237
-0.0286073
-0.0288365
-0.0291108
-0.0294303
-0.0297939
-0.0302009
-0.0306502
-0.0311405
-0.0316703
-0.0322385
-0.0328432
-0.033484
-0.0341585
-0.0348671
-0.0356029
-0.0363697
-0.0371653
-0.0379901
-0.0388414
-0.0397186
-0.0406215
-0.0415496
-0.0425028
-0.0434811
-0.0444842
-0.0455122
-0.0465648
-0.0476418
-0.0487426
-0.0498664
-0.0510115
-0.0521763
-0.0533573
-0.0545517
-0.0557525
-0.0569567
-0.0581492
-0.0593321
-0.0604713
-0.0615873
-0.0625991
-0.063589
-0.0643474
-0.0651531
-0.0654277
-0.0660623
-0.0653935
-0.0661584
-0.0636708
-0.0655075
-0.0605255
-0.0638713
-0.0605137
-0.000803242
-0.00259442
-0.00430151
-0.00618777
-0.00805844
-0.00997295
-0.0118615
-0.0137194
-0.0155167
-0.0172407
-0.0188759
-0.0204126
-0.0218428
-0.0231611
-0.0243639
-0.0254493
-0.0264183
-0.0272715
-0.0280119
-0.028643
-0.0291693
-0.029596
-0.0299289
-0.0301745
-0.0303396
-0.0304313
-0.0304573
-0.0304252
-0.0303432
-0.0302191
-0.0300613
-0.0298777
-0.0296763
-0.0294647
-0.0292503
-0.02904
-0.0288402
-0.0286569
-0.0284955
-0.0283606
-0.0282566
-0.0281869
-0.0281546
-0.0281622
-0.0282115
-0.0283042
-0.0284411
-0.0286229
-0.02885
-0.0291217
-0.0294383
-0.0297987
-0.0302023
-0.0306481
-0.0311349
-0.0316612
-0.0322263
-0.0328279
-0.033466
-0.0341376
-0.0348437
-0.0355759
-0.03634
-0.0371333
-0.0379566
-0.0388069
-0.0396836
-0.0405866
-0.0415152
-0.0424694
-0.043449
-0.0444537
-0.0454835
-0.046538
-0.0476169
-0.0487193
-0.0498444
-0.0509903
-0.0521555
-0.053336
-0.0545294
-0.055728
-0.0569295
-0.058118
-0.0592962
-0.0604293
-0.0615393
-0.062542
-0.0635251
-0.0642696
-0.0650686
-0.0653191
-0.0659447
-0.0652362
-0.0659621
-0.0634498
-0.0650928
-0.0602298
-0.0630599
-0.059534
-0.000812128
-0.00260159
-0.00431394
-0.00619526
-0.00806123
-0.00997041
-0.0118537
-0.0137068
-0.0154999
-0.0172202
-0.0188521
-0.020386
-0.0218135
-0.0231296
-0.0243303
-0.0254139
-0.0263813
-0.0272333
-0.0279729
-0.0286034
-0.0291296
-0.0295566
-0.0298904
-0.0301372
-0.0303039
-0.0303978
-0.0304264
-0.0303974
-0.0303187
-0.0301984
-0.0300445
-0.029865
-0.0296678
-0.0294605
-0.0292502
-0.0290439
-0.0288479
-0.028668
-0.0285097
-0.0283775
-0.0282756
-0.0282076
-0.0281764
-0.0281845
-0.0282339
-0.028326
-0.0284619
-0.0286421
-0.0288672
-0.0291363
-0.02945
-0.0298071
-0.0302072
-0.0306493
-0.0311323
-0.0316549
-0.0322164
-0.0328156
-0.0334494
-0.0341168
-0.0348246
-0.0355489
-0.0363104
-0.0371018
-0.0379241
-0.0387738
-0.0396505
-0.0405539
-0.0414835
-0.0424391
-0.0434204
-0.0444272
-0.0454592
-0.046516
-0.0475971
-0.0487016
-0.0498286
-0.050976
-0.0521421
-0.0533231
-0.0545161
-0.0557137
-0.0569133
-0.0580988
-0.0592735
-0.0604014
-0.0615062
-0.0625006
-0.0634769
-0.0642078
-0.0649984
-0.0652253
-0.0658372
-0.0650908
-0.0657731
-0.0632378
-0.064711
-0.059964
-0.0624557
-0.0588661
-0.000819548
-0.0026079
-0.00432489
-0.00620193
-0.00806381
-0.00996825
-0.0118468
-0.0136957
-0.0154849
-0.0172019
-0.0188307
-0.0203618
-0.0217867
-0.0231008
-0.0242994
-0.0253814
-0.0263473
-0.0271981
-0.0279367
-0.0285668
-0.0290928
-0.02952
-0.0298544
-0.0301023
-0.0302706
-0.0303665
-0.0303975
-0.0303713
-0.0302959
-0.0301791
-0.030029
-0.0298534
-0.0296602
-0.0294569
-0.0292506
-0.0290481
-0.0288557
-0.0286791
-0.0285236
-0.0283939
-0.0282941
-0.0282276
-0.0281975
-0.028206
-0.0282553
-0.0283468
-0.0284815
-0.02866
-0.028883
-0.0291494
-0.0294602
-0.0298139
-0.0302103
-0.0306488
-0.031128
-0.0316477
-0.032203
-0.032794
-0.0334229
-0.0340874
-0.0347788
-0.0355208
-0.0362787
-0.0370683
-0.0378897
-0.0387387
-0.0396153
-0.0405191
-0.0414496
-0.0424064
-0.0433894
-0.0443982
-0.0454323
-0.0464914
-0.0475747
-0.0486813
-0.0498101
-0.050959
-0.0521262
-0.0533077
-0.0545007
-0.0556975
-0.0568958
-0.058079
-0.0592509
-0.0603747
-0.0614755
-0.0624633
-0.0634345
-0.0641542
-0.0649389
-0.065146
-0.0657484
-0.0649712
-0.0656186
-0.0630681
-0.0643903
-0.059738
-0.0619123
-0.058149
-0.00082566
-0.00261334
-0.00433435
-0.00620772
-0.00806612
-0.0099664
-0.0118408
-0.013686
-0.0154717
-0.0171856
-0.0188116
-0.0203401
-0.0217627
-0.0230751
-0.0242715
-0.0253516
-0.0263161
-0.0271656
-0.0279033
-0.0285328
-0.0290585
-0.0294859
-0.0298208
-0.0300698
-0.0302395
-0.0303373
-0.0303706
-0.0303471
-0.0302747
-0.0301613
-0.0300147
-0.0298429
-0.0296536
-0.0294541
-0.0292515
-0.0290526
-0.0288636
-0.0286901
-0.0285373
-0.02841
-0.028312
-0.0282469
-0.0282177
-0.0282266
-0.0282757
-0.0283665
-0.0284999
-0.0286767
-0.0288975
-0.0291612
-0.0294689
-0.0298195
-0.0302125
-0.0306475
-0.0311226
-0.0316339
-0.0321871
-0.0327783
-0.0334038
-0.0340645
-0.0347567
-0.0354846
-0.0362475
-0.0370342
-0.0378544
-0.0387027
-0.0395792
-0.0404833
-0.0414146
-0.0423727
-0.0433573
-0.0443679
-0.0454042
-0.0464655
-0.047551
-0.0486597
-0.0497904
-0.0509409
-0.0521092
-0.0532913
-0.0544844
-0.0556806
-0.0568777
-0.0580588
-0.0592284
-0.0603485
-0.0614459
-0.0624279
-0.0633952
-0.0641055
-0.0648861
-0.0650767
-0.0656732
-0.0648704
-0.0654904
-0.0629285
-0.0641213
-0.0595428
-0.0614388
-0.0574864
-0.0008306
-0.00261798
-0.00434235
-0.00621272
-0.00806822
-0.00996498
-0.0118358
-0.0136778
-0.0154605
-0.0171716
-0.018795
-0.0203212
-0.0217416
-0.0230514
-0.0242467
-0.025325
-0.0262879
-0.0271361
-0.0278729
-0.0285016
-0.029027
-0.0294544
-0.0297898
-0.0300396
-0.0302107
-0.0303102
-0.0303457
-0.0303247
-0.0302552
-0.0301449
-0.0300018
-0.0298336
-0.0296478
-0.029452
-0.029253
-0.0290575
-0.0288717
-0.0287011
-0.028551
-0.0284259
-0.0283296
-0.0282658
-0.0282373
-0.0282465
-0.0282954
-0.0283854
-0.0285174
-0.0286925
-0.0289111
-0.0291722
-0.0294773
-0.0298244
-0.0302153
-0.030643
-0.0311129
-0.0316245
-0.0321735
-0.03276
-0.0333819
-0.0340391
-0.0347286
-0.035455
-0.0362142
-0.0369993
-0.0378184
-0.038666
-0.0395423
-0.0404467
-0.0413788
-0.0423381
-0.0433244
-0.044337
-0.0453754
-0.0464389
-0.0475267
-0.0486376
-0.0497702
-0.0509223
-0.0520919
-0.0532747
-0.0544681
-0.0556639
-0.0568601
-0.0580395
-0.059207
-0.0603239
-0.0614185
-0.0623956
-0.0633597
-0.0640622
-0.0648404
-0.0650172
-0.0656106
-0.0647869
-0.0653867
-0.0628155
-0.063903
-0.0593812
-0.0610517
-0.0569259
-0.000834473
-0.00262181
-0.00434891
-0.00621691
-0.0080701
-0.00996398
-0.0118319
-0.0136711
-0.0154512
-0.0171599
-0.0187811
-0.0203052
-0.0217235
-0.0230308
-0.0242255
-0.0253017
-0.0262629
-0.0271097
-0.0278454
-0.0284734
-0.0289983
-0.0294257
-0.0297614
-0.0300119
-0.0301842
-0.0302853
-0.0303228
-0.0303042
-0.0302374
-0.0301301
-0.0299902
-0.0298254
-0.0296431
-0.0294507
-0.0292552
-0.029063
-0.0288802
-0.0287124
-0.0285647
-0.0284416
-0.028347
-0.0282844
-0.0282566
-0.0282659
-0.0283145
-0.0284036
-0.0285343
-0.0287076
-0.0289245
-0.0291826
-0.0294857
-0.0298275
-0.0302108
-0.0306393
-0.0311066
-0.0316135
-0.0321584
-0.0327408
-0.0333591
-0.0340129
-0.0346997
-0.0354229
-0.0361775
-0.0369636
-0.0377816
-0.0386285
-0.0395046
-0.0404094
-0.0413423
-0.0423029
-0.0432907
-0.0443053
-0.0453458
-0.0464117
-0.0475017
-0.0486148
-0.0497495
-0.0509034
-0.0520743
-0.053258
-0.0544519
-0.0556475
-0.0568431
-0.058021
-0.0591869
-0.0603013
-0.0613936
-0.0623668
-0.0633289
-0.0640251
-0.0648024
-0.0649686
-0.0655621
-0.064722
-0.0653097
-0.0627318
-0.0637391
-0.0592595
-0.060754
-0.0564676
-0.000837353
-0.00262482
-0.00435399
-0.00622023
-0.00807169
-0.00996331
-0.0118289
-0.0136659
-0.0154439
-0.0171505
-0.0187697
-0.0202918
-0.0217083
-0.023014
-0.0242053
-0.0252823
-0.0262412
-0.0270866
-0.027821
-0.028448
-0.0289724
-0.0293996
-0.0297355
-0.0299867
-0.03016
-0.0302626
-0.0303019
-0.0302856
-0.0302213
-0.0301169
-0.02998
-0.0298184
-0.0296394
-0.0294504
-0.0292581
-0.029069
-0.0288891
-0.0287239
-0.0285785
-0.0284574
-0.0283643
-0.0283027
-0.0282754
-0.0282848
-0.0283329
-0.0284212
-0.0285505
-0.028722
-0.0289379
-0.0291914
-0.0294877
-0.0298295
-0.0302118
-0.0306351
-0.0310983
-0.0316009
-0.0321419
-0.0327205
-0.0333352
-0.0339856
-0.0346698
-0.0353901
-0.0361428
-0.0369263
-0.0377441
-0.0385901
-0.0394659
-0.0403709
-0.0413046
-0.0422663
-0.0432558
-0.0442723
-0.0453149
-0.0463831
-0.0474755
-0.0485909
-0.0497277
-0.0508835
-0.0520559
-0.0532409
-0.0544354
-0.0556312
-0.0568266
-0.0580037
-0.0591685
-0.0602811
-0.0613719
-0.0623421
-0.0633032
-0.0639948
-0.0647728
-0.0649314
-0.0655288
-0.0646771
-0.0652624
-0.0626803
-0.0636344
-0.059184
-0.0605469
-0.056113
-0.000839294
-0.002627
-0.00435757
-0.00622267
-0.00807295
-0.00996294
-0.0118268
-0.0136621
-0.0154383
-0.0171432
-0.0187607
-0.0202811
-0.0216958
-0.0229998
-0.0241892
-0.0252622
-0.0262222
-0.0270672
-0.0277997
-0.0284257
-0.0289494
-0.0293763
-0.0297123
-0.0299639
-0.0301381
-0.030242
-0.0302831
-0.0302688
-0.0302069
-0.0301051
-0.0299711
-0.0298125
-0.0296367
-0.0294507
-0.0292615
-0.0290753
-0.0288982
-0.0287355
-0.0285923
-0.0284729
-0.0283812
-0.0283205
-0.0282938
-0.0283031
-0.0283507
-0.028438
-0.028566
-0.0287348
-0.0289435
-0.0291989
-0.029494
-0.0298315
-0.0302102
-0.0306292
-0.0310883
-0.0315869
-0.0321239
-0.0326986
-0.0333096
-0.0339565
-0.0346377
-0.0353551
-0.0361059
-0.0368915
-0.037705
-0.0385495
-0.0394249
-0.04033
-0.0412644
-0.0422273
-0.0432184
-0.0442368
-0.0452816
-0.0463521
-0.0474469
-0.0485646
-0.0497036
-0.0508613
-0.0520354
-0.0532217
-0.0544173
-0.0556137
-0.0568098
-0.0579866
-0.0591513
-0.060263
-0.0613533
-0.0623214
-0.063282
-0.0639705
-0.0647508
-0.0649048
-0.0655092
-0.0646504
-0.0652435
-0.0626585
-0.0635864
-0.0591514
-0.0604218
-0.055855
-0.000840395
-0.00262852
-0.00436004
-0.00622472
-0.0080744
-0.00996378
-0.0118269
-0.0136613
-0.0154364
-0.01714
-0.0187562
-0.0202751
-0.0216883
-0.0229907
-0.0241786
-0.0252504
-0.0262067
-0.0270491
-0.0277819
-0.0284072
-0.0289303
-0.0293567
-0.0296926
-0.0299444
-0.0301192
-0.030224
-0.0302663
-0.0302537
-0.0301938
-0.0300943
-0.0299629
-0.0298069
-0.0296339
-0.0294508
-0.0292643
-0.0290809
-0.0289063
-0.0287459
-0.0286047
-0.028487
-0.0283967
-0.028337
-0.0283108
-0.0283203
-0.0283674
-0.0284536
-0.02858
-0.0287477
-0.028956
-0.0292077
-0.0295002
-0.0298343
-0.0302094
-0.030625
-0.0310806
-0.0315755
-0.0321088
-0.0326798
-0.0332873
-0.0339307
-0.0346087
-0.0353224
-0.0360688
-0.0368455
-0.0376657
-0.0385113
-0.0393876
-0.0402938
-0.0412296
-0.0421942
-0.0431872
-0.0442079
-0.045255
-0.046328
-0.0474252
-0.0485451
-0.049686
-0.0508454
-0.0520206
-0.0532074
-0.0544029
-0.0555986
-0.056793
-0.057968
-0.0591304
-0.0602401
-0.0613299
-0.0622976
-0.0632608
-0.0639494
-0.0647348
-0.0648868
-0.0654968
-0.0646332
-0.0652329
-0.0626436
-0.0635594
-0.0591246
-0.0603355
-0.0556607
-0.000595837
-0.00250101
-0.00415401
-0.00613024
-0.00809757
-0.0100973
-0.0120706
-0.0139995
-0.015859
-0.0176349
-0.0193137
-0.0208862
-0.0223452
-0.0236846
-0.0249053
-0.0260028
-0.0269787
-0.0278339
-0.0285713
-0.0291945
-0.029708
-0.0301169
-0.0304271
-0.0306452
-0.030778
-0.030833
-0.0308182
-0.0307419
-0.0306127
-0.0304394
-0.0302311
-0.0299968
-0.0297452
-0.0294851
-0.0292247
-0.0289718
-0.0287338
-0.0285171
-0.0283278
-0.0281711
-0.0280515
-0.027973
-0.0279387
-0.027951
-0.0280119
-0.0281226
-0.0282839
-0.0284959
-0.0287584
-0.0290707
-0.0294318
-0.0298403
-0.0302947
-0.030793
-0.0313333
-0.0319135
-0.0325313
-0.0331845
-0.0338708
-0.0345881
-0.0353343
-0.036107
-0.0369055
-0.0377283
-0.0385745
-0.0394431
-0.0403333
-0.0412453
-0.0421789
-0.0431346
-0.044113
-0.0451149
-0.046141
-0.047192
-0.0482686
-0.0493711
-0.0504992
-0.0516521
-0.0528282
-0.0540248
-0.0552383
-0.0564626
-0.057692
-0.0589152
-0.0601249
-0.0613007
-0.0624372
-0.0634953
-0.064485
-0.0653222
-0.0660778
-0.0665389
-0.067024
-0.0668239
-0.0674159
-0.0658331
-0.0688921
-0.0641347
-0.0776601
-0.0691563
-0.000626144
-0.00251763
-0.00416866
-0.00613861
-0.0080927
-0.0100839
-0.012048
-0.0139697
-0.0158227
-0.0175933
-0.0192676
-0.0208364
-0.0222921
-0.0236288
-0.0248489
-0.0259455
-0.0269211
-0.0277763
-0.0285142
-0.0291384
-0.0296533
-0.0300641
-0.0303768
-0.0305977
-0.0307339
-0.0307928
-0.0307822
-0.0307106
-0.0305863
-0.0304182
-0.0302153
-0.0299863
-0.0297401
-0.0294852
-0.0292297
-0.0289815
-0.0287476
-0.0285346
-0.0283485
-0.0281943
-0.0280767
-0.0279994
-0.0279657
-0.0279779
-0.0280379
-0.0281471
-0.0283062
-0.0285153
-0.0287745
-0.0290828
-0.0294395
-0.0298432
-0.0302924
-0.0307855
-0.0313204
-0.0318952
-0.0325077
-0.0331557
-0.0338373
-0.0345502
-0.0352926
-0.0360619
-0.0368575
-0.0376781
-0.0385227
-0.0393903
-0.04028
-0.0411919
-0.0421259
-0.0430823
-0.0440617
-0.0450647
-0.046092
-0.0471443
-0.048222
-0.0493253
-0.050454
-0.0516072
-0.0527834
-0.0539795
-0.0551922
-0.0564153
-0.0576433
-0.0588645
-0.0600725
-0.0612453
-0.0623801
-0.0634333
-0.0644218
-0.0652486
-0.0660051
-0.0664391
-0.0669332
-0.0666632
-0.0672793
-0.0655294
-0.0685477
-0.0635465
-0.0761836
-0.068965
-0.000655475
-0.00252622
-0.00418359
-0.0061431
-0.0080858
-0.0100681
-0.0120233
-0.0139376
-0.0157844
-0.0175498
-0.0192198
-0.0207852
-0.0222385
-0.0235742
-0.0247919
-0.0258874
-0.0268625
-0.0277178
-0.0284564
-0.0290818
-0.0295984
-0.0300114
-0.0303268
-0.0305509
-0.0306907
-0.0307536
-0.0307474
-0.0306804
-0.0305611
-0.0303981
-0.0302003
-0.0299765
-0.0297353
-0.0294851
-0.0292342
-0.02899
-0.0287598
-0.0285499
-0.0283663
-0.028214
-0.0280976
-0.0280209
-0.027987
-0.0279983
-0.0280569
-0.0281639
-0.0283202
-0.0285261
-0.0287814
-0.0290854
-0.0294375
-0.0298363
-0.0302805
-0.0307683
-0.0312979
-0.0318675
-0.0324749
-0.033118
-0.0337949
-0.0345035
-0.0352419
-0.0360075
-0.0367998
-0.0376176
-0.03846
-0.0393256
-0.0402139
-0.0411247
-0.0420579
-0.0430139
-0.043993
-0.0449959
-0.046023
-0.047075
-0.0481523
-0.0492549
-0.0503827
-0.0515345
-0.0527089
-0.0539028
-0.0551131
-0.0563334
-0.0575586
-0.0587766
-0.059982
-0.0611518
-0.0622855
-0.0633358
-0.0643263
-0.0651488
-0.065914
-0.0663345
-0.0668504
-0.0665322
-0.0671875
-0.0652982
-0.068259
-0.0630646
-0.0744881
-0.0688112
-0.000681444
-0.00253483
-0.0041987
-0.00614812
-0.00808034
-0.0100541
-0.0120006
-0.0139078
-0.0157484
-0.0175088
-0.0191746
-0.0207367
-0.0221875
-0.0235213
-0.0247372
-0.0258316
-0.0268062
-0.0276616
-0.0284007
-0.0290271
-0.0295452
-0.0299602
-0.030278
-0.0305051
-0.0306482
-0.0307148
-0.0307128
-0.0306503
-0.0305356
-0.0303775
-0.0301846
-0.0299657
-0.0297294
-0.0294839
-0.0292374
-0.0289973
-0.0287706
-0.0285638
-0.0283827
-0.0282324
-0.0281174
-0.0280414
-0.0280075
-0.0280182
-0.0280755
-0.0281806
-0.0283345
-0.0285373
-0.0287892
-0.0290893
-0.0294371
-0.0298313
-0.0302707
-0.0307536
-0.0312782
-0.0318427
-0.0324452
-0.0330835
-0.033756
-0.0344603
-0.0351948
-0.0359568
-0.0367459
-0.0375609
-0.038401
-0.0392649
-0.0401518
-0.0410617
-0.0419943
-0.0429499
-0.0439289
-0.0449317
-0.0459589
-0.0470108
-0.0480879
-0.04919
-0.050317
-0.0514676
-0.0526403
-0.0538322
-0.0550399
-0.0562572
-0.0574791
-0.0586934
-0.0598954
-0.061061
-0.0621919
-0.0632375
-0.0642277
-0.0650431
-0.0658135
-0.066217
-0.06675
-0.0663818
-0.0670649
-0.0650538
-0.067933
-0.062641
-0.0729175
-0.0684477
-0.000704061
-0.00254375
-0.00421334
-0.0061534
-0.00807573
-0.0100411
-0.0119792
-0.0138795
-0.0157141
-0.0174694
-0.0191311
-0.0206897
-0.0221378
-0.0234696
-0.024684
-0.0257774
-0.0267515
-0.0276068
-0.0283465
-0.0289738
-0.0294933
-0.0299102
-0.0302304
-0.0304602
-0.0306065
-0.0306768
-0.0306788
-0.0306205
-0.0305105
-0.0303571
-0.0301691
-0.029955
-0.0297235
-0.0294826
-0.0292404
-0.0290043
-0.0287813
-0.0285776
-0.0283991
-0.0282509
-0.0281372
-0.0280619
-0.0280281
-0.0280384
-0.0280945
-0.0281979
-0.0283494
-0.0285493
-0.0287978
-0.029094
-0.0294376
-0.0298273
-0.0302618
-0.0307397
-0.0312593
-0.0318187
-0.0324162
-0.0330496
-0.0337174
-0.0344173
-0.035148
-0.0359061
-0.036692
-0.0375043
-0.0383422
-0.0392042
-0.0400898
-0.0409987
-0.0419307
-0.0428861
-0.043865
-0.0448679
-0.0458952
-0.0469472
-0.0480242
-0.049126
-0.0502523
-0.051402
-0.0525733
-0.0537633
-0.0549688
-0.0561833
-0.0574023
-0.058613
-0.0598118
-0.0609732
-0.0621014
-0.0631418
-0.0641311
-0.064938
-0.0657124
-0.0660962
-0.0666435
-0.0662232
-0.0669278
-0.0648041
-0.0675826
-0.0622512
-0.0714478
-0.0679222
-0.000723879
-0.00255225
-0.00422733
-0.00615845
-0.00807149
-0.0100287
-0.0119586
-0.0138522
-0.0156808
-0.0174312
-0.0190887
-0.020644
-0.0220894
-0.0234192
-0.0246321
-0.0257245
-0.0266981
-0.0275534
-0.0282935
-0.0289217
-0.0294426
-0.0298613
-0.0301838
-0.0304163
-0.0305658
-0.0306396
-0.0306455
-0.0305915
-0.0304859
-0.0303372
-0.030154
-0.0299447
-0.0297179
-0.0294816
-0.0292437
-0.0290115
-0.028792
-0.0285915
-0.0284155
-0.0282692
-0.0281569
-0.0280824
-0.0280487
-0.0280584
-0.0281133
-0.0282149
-0.0283641
-0.0285611
-0.0288062
-0.0290986
-0.0294379
-0.029823
-0.0302527
-0.0307256
-0.0312401
-0.0317943
-0.0323867
-0.0330152
-0.0336783
-0.0343739
-0.0351005
-0.0358549
-0.0366374
-0.0374468
-0.0382824
-0.0391426
-0.0400267
-0.0409346
-0.041866
-0.042821
-0.0437998
-0.0448027
-0.04583
-0.0468821
-0.047959
-0.0490605
-0.0501863
-0.0513349
-0.052505
-0.0536931
-0.0548965
-0.0561084
-0.0573245
-0.0585319
-0.0597275
-0.0608849
-0.0620107
-0.063046
-0.0640348
-0.0648333
-0.0656119
-0.065976
-0.0665376
-0.0660664
-0.0667894
-0.0645638
-0.0672251
-0.0618929
-0.0700479
-0.0672689
-0.000741263
-0.00256016
-0.0042406
-0.00616315
-0.00806751
-0.0100167
-0.0119388
-0.0138257
-0.0156486
-0.0173942
-0.0190477
-0.0205997
-0.0220424
-0.0233703
-0.0245817
-0.0256731
-0.0266461
-0.0275013
-0.0282418
-0.0288709
-0.0293931
-0.0298136
-0.0301383
-0.0303735
-0.0305261
-0.0306034
-0.0306132
-0.0305633
-0.0304621
-0.030318
-0.0301395
-0.0299349
-0.0297127
-0.0294808
-0.0292471
-0.0290189
-0.0288028
-0.0286053
-0.0284318
-0.0282874
-0.0281764
-0.0281026
-0.028069
-0.0280781
-0.0281319
-0.0282317
-0.0283785
-0.0285726
-0.0288143
-0.0291028
-0.0294379
-0.0298184
-0.0302433
-0.0307112
-0.0312205
-0.0317697
-0.032357
-0.0329806
-0.033639
-0.0343301
-0.0350529
-0.0358033
-0.0365825
-0.0373889
-0.0382222
-0.0390805
-0.0399631
-0.0408699
-0.0418005
-0.0427551
-0.0437337
-0.0447366
-0.045764
-0.0468161
-0.0478929
-0.0489942
-0.0501194
-0.0512671
-0.0524359
-0.0536223
-0.0548236
-0.0560329
-0.0572464
-0.0584504
-0.0596432
-0.0607967
-0.0619201
-0.0629506
-0.0639392
-0.0647296
-0.0655132
-0.065858
-0.0664347
-0.0659151
-0.0666549
-0.06434
-0.0668717
-0.0615695
-0.0687257
-0.0665007
-0.000756462
-0.00256748
-0.00425304
-0.00616742
-0.00806366
-0.0100051
-0.0119197
-0.0138002
-0.0156174
-0.0173583
-0.0190079
-0.0205567
-0.021997
-0.023323
-0.0245326
-0.0256229
-0.0265954
-0.0274505
-0.0281913
-0.0288212
-0.0293447
-0.029767
-0.0300939
-0.0303317
-0.0304873
-0.0305681
-0.0305817
-0.030536
-0.0304392
-0.0302996
-0.0301257
-0.0299257
-0.0297081
-0.0294806
-0.0292511
-0.0290266
-0.028814
-0.0286194
-0.0284484
-0.0283059
-0.0281962
-0.028123
-0.0280895
-0.028098
-0.0281505
-0.0282485
-0.0283928
-0.0285841
-0.0288223
-0.0291069
-0.0294377
-0.0298136
-0.0302337
-0.0306966
-0.0312009
-0.0317449
-0.0323272
-0.0329459
-0.0335996
-0.0342863
-0.0350052
-0.0357517
-0.0365274
-0.0373309
-0.0381617
-0.039018
-0.039899
-0.0408047
-0.0417345
-0.0426886
-0.043667
-0.0446698
-0.0456972
-0.0467494
-0.0478261
-0.0489271
-0.0500518
-0.0511987
-0.0523663
-0.0535512
-0.0547505
-0.0559574
-0.0571683
-0.0583692
-0.0595592
-0.0607089
-0.0618303
-0.062856
-0.0638448
-0.0646272
-0.0654165
-0.0657426
-0.0663357
-0.0657696
-0.0665276
-0.0641327
-0.0665325
-0.0612814
-0.067502
-0.0656816
-0.000769715
-0.00257421
-0.0042646
-0.00617122
-0.0080599
-0.00999393
-0.0119012
-0.0137754
-0.0155871
-0.0173234
-0.0189691
-0.0205147
-0.0219526
-0.0232767
-0.0244846
-0.025574
-0.0265458
-0.0274009
-0.0281421
-0.0287728
-0.0292975
-0.0297215
-0.0300504
-0.0302908
-0.0304495
-0.0305336
-0.0305509
-0.0305092
-0.0304166
-0.0302815
-0.0301121
-0.0299168
-0.0297036
-0.0294804
-0.0292549
-0.0290343
-0.028825
-0.0286333
-0.0284646
-0.028324
-0.0282155
-0.028143
-0.0281095
-0.0281174
-0.0281687
-0.0282649
-0.0284068
-0.0285951
-0.0288299
-0.0291106
-0.0294372
-0.0298085
-0.0302237
-0.0306815
-0.0311807
-0.0317196
-0.0322968
-0.0329105
-0.0335596
-0.0342418
-0.0349568
-0.0356992
-0.0364714
-0.0372715
-0.0380997
-0.0389537
-0.039833
-0.0407372
-0.0416661
-0.0426195
-0.0435975
-0.0446002
-0.0456276
-0.0466797
-0.0477563
-0.0488571
-0.0499812
-0.0511273
-0.0522938
-0.053477
-0.0546744
-0.0558789
-0.0570871
-0.0582848
-0.0594719
-0.0606177
-0.0617368
-0.0627575
-0.0637463
-0.0645202
-0.065315
-0.0656213
-0.0662299
-0.0656167
-0.0663908
-0.0639212
-0.0661832
-0.0609987
-0.0663418
-0.0648728
-0.000781396
-0.0025805
-0.00427585
-0.00617526
-0.00805727
-0.0099844
-0.011885
-0.0137534
-0.0155599
-0.0172918
-0.0189337
-0.0204759
-0.0219101
-0.0232329
-0.0244402
-0.0255287
-0.0265001
-0.027355
-0.0280963
-0.0287276
-0.0292533
-0.0296786
-0.0300093
-0.0302518
-0.0304129
-0.0304999
-0.0305204
-0.0304822
-0.0303933
-0.0302621
-0.0300968
-0.0299054
-0.0296963
-0.029477
-0.0292552
-0.029038
-0.0288318
-0.0286427
-0.0284763
-0.0283374
-0.0282302
-0.0281584
-0.028125
-0.0281325
-0.0281828
-0.0282775
-0.0284174
-0.0286031
-0.0288349
-0.0291121
-0.0294348
-0.0298018
-0.0302125
-0.0306655
-0.0311596
-0.0316933
-0.0322653
-0.0328736
-0.0335176
-0.0341949
-0.0349056
-0.0356437
-0.0364122
-0.0372094
-0.0380352
-0.0388873
-0.0397652
-0.0406684
-0.0415966
-0.0425496
-0.0435274
-0.04453
-0.0455573
-0.0466094
-0.0476858
-0.0487862
-0.0499097
-0.0510547
-0.0522197
-0.0534011
-0.0545963
-0.055798
-0.0570034
-0.0581974
-0.0593814
-0.0605228
-0.0616392
-0.062654
-0.063642
-0.0644059
-0.0652047
-0.0654897
-0.0661081
-0.0654506
-0.0662172
-0.0637007
-0.0657678
-0.0606808
-0.0651016
-0.0635312
0.0389002
0.0455638
0.0462646
0.0487089
0.0483747
0.047772
0.0453418
0.0417539
0.0363681
0.0292088
0.0197699
0.00784001
-0.00742513
-0.0261079
-0.0500015
-0.0780682
-0.115773
-0.145568
-0.169291
-0.188219
0.036977
0.0434616
0.0440578
0.046375
0.0459154
0.0451889
0.0426257
0.0389065
0.0333864
0.0260991
0.0165436
0.00450909
-0.0108325
-0.0296116
-0.0535722
-0.0814586
-0.118647
-0.142461
-0.16661
-0.174254
0.0351543
0.0413926
0.0419312
0.044094
0.0435201
0.0426514
0.0399427
0.036064
0.0303732
0.0229036
0.0131609
0.000926674
-0.0145935
-0.0335395
-0.0574602
-0.0846563
-0.119655
-0.136418
-0.160947
-0.162722
0.0333926
0.039359
0.0398507
0.041851
0.0411716
0.0401618
0.0373162
0.0332857
0.0274369
0.0198017
0.00989625
-0.00250239
-0.0181486
-0.0371713
-0.060912
-0.0873342
-0.120065
-0.132173
-0.156875
-0.152227
0.0316785
0.037361
0.0378056
0.03964
0.0388611
0.0377147
0.034743
0.0305742
0.0245886
0.0168169
0.00679098
-0.00571075
-0.0213999
-0.040378
-0.0637859
-0.089373
-0.119786
-0.129256
-0.152957
-0.141911
0.030014
0.0353965
0.0357984
0.0374612
0.0365891
0.0353074
0.0322179
0.0279192
0.021811
0.0139228
0.0038058
-0.00875494
-0.0244246
-0.043263
-0.0661983
-0.0908649
-0.118814
-0.127
-0.148496
-0.132012
0.0284022
0.0334626
0.0338317
0.0353155
0.0343574
0.0329403
0.0297399
0.0253169
0.0190969
0.0111067
0.000921776
-0.0116627
-0.0272603
-0.0458785
-0.0682172
-0.0918988
-0.117395
-0.125303
-0.143507
-0.122613
0.026844
0.0315559
0.0319061
0.0332022
0.0321669
0.0306138
0.0273101
0.0227683
0.0164478
0.00837067
-0.00185822
-0.0144311
-0.029905
-0.0482278
-0.0698509
-0.0924881
-0.115852
-0.12429
-0.138064
-0.113563
0.0253389
0.0296727
0.0300214
0.0311202
0.0300177
0.0283279
0.0249293
0.0202747
0.0138663
0.00571941
-0.00452367
-0.0170358
-0.0323055
-0.0502172
-0.0710181
-0.0927593
-0.11496
-0.124619
-0.132784
-0.10444
0.0238867
0.0278095
0.0281783
0.0290704
0.0279131
0.0260877
0.0226053
0.0178464
0.0113648
0.00316365
-0.00707975
-0.0195405
-0.0346801
-0.0523651
-0.0725819
-0.0934194
-0.113976
-0.12364
-0.127657
-0.0953709
0.0652423
0.0734878
0.075396
0.0791847
0.0802773
0.081064
0.0801608
0.0781044
0.0743326
0.0687961
0.0609447
0.0505468
0.0363848
0.0186482
-0.00650258
-0.0361259
-0.0823122
-0.136949
-0.205354
-0.257852
0.0623122
0.0703754
0.0721862
0.0758187
0.0767739
0.0774108
0.0763517
0.0741323
0.070191
0.06448
0.0564554
0.0458814
0.0315737
0.0136635
-0.0115265
-0.0415049
-0.087295
-0.142784
-0.205101
-0.255791
0.0594592
0.0673513
0.0690669
0.0725501
0.0733595
0.0738358
0.0725978
0.0701838
0.0660256
0.0600744
0.051785
0.0409087
0.0262875
0.00798072
-0.0174938
-0.0479761
-0.0929373
-0.146646
-0.198658
-0.247629
0.056669
0.064391
0.0660082
0.069345
0.0700082
0.070325
0.0689083
0.0663008
0.0619263
0.0557358
0.0471835
0.0360083
0.021083
0.00240301
-0.0232828
-0.0540936
-0.0979521
-0.149477
-0.192657
-0.240946
0.0539348
0.0614865
0.0629993
0.0661917
0.0667112
0.0668751
0.06529
0.0625039
0.0579343
0.0515342
0.0427598
0.0313442
0.016197
-0.00272893
-0.0284339
-0.0592638
-0.101777
-0.150938
-0.187164
-0.23397
0.0512566
0.0586402
0.0600421
0.0630933
0.063471
0.0634887
0.0617444
0.0587939
0.0540487
0.0474663
0.0385074
0.0269045
0.01161
-0.0074461
-0.0330017
-0.0635676
-0.104533
-0.150767
-0.181359
-0.225591
0.0486356
0.0558559
0.0571399
0.0600543
0.0602906
0.0601681
0.0582717
0.0551681
0.0502621
0.0435182
0.0344027
0.0226528
0.00726655
-0.0118311
-0.0371085
-0.0671746
-0.106464
-0.149049
-0.175224
-0.216141
0.0460718
0.0531359
0.0542933
0.0570766
0.0571712
0.0569148
0.0548723
0.0516259
0.0465724
0.0396857
0.0304388
0.0185778
0.00315045
-0.0159063
-0.0407829
-0.0701199
-0.107709
-0.145999
-0.168829
-0.20621
0.0435646
0.0504818
0.051501
0.0541606
0.054112
0.0537289
0.0515466
0.0481687
0.0429819
0.0359727
0.026621
0.0146859
-0.000735794
-0.019687
-0.0440954
-0.0725629
-0.108521
-0.141561
-0.161208
-0.195274
0.0411137
0.0478951
0.0487622
0.0513064
0.0511123
0.0506099
0.0482934
0.0447947
0.0394877
0.0323751
0.0229449
0.0109766
-0.00437237
-0.0230782
-0.0467565
-0.0738202
-0.107983
-0.135613
-0.154179
-0.180718
0.0975122
0.107883
0.110648
0.116202
0.118786
0.121225
0.12216
0.122158
0.120635
0.117588
0.112505
0.105234
0.0945674
0.0810898
0.0602247
0.0378834
-0.00631361
-0.0413513
-0.15136
-0.20819
0.0940889
0.10417
0.106894
0.112227
0.114677
0.116931
0.117679
0.117454
0.115691
0.112373
0.106983
0.0993575
0.0882586
0.0742531
0.0526755
0.0293102
-0.0161638
-0.0541578
-0.159247
-0.21177
0.0906883
0.100566
0.103202
0.108356
0.110634
0.112719
0.113249
0.112772
0.110718
0.107064
0.101274
0.0931711
0.0814772
0.066729
0.044189
0.0194841
-0.0271977
-0.0670073
-0.162343
-0.205992
0.0873322
0.0970159
0.0995574
0.104538
0.106644
0.108556
0.108868
0.10814
0.105798
0.101809
0.0956236
0.0870498
0.0747783
0.0593082
0.0358865
0.00992692
-0.0375784
-0.079271
-0.167191
-0.207818
0.0840271
0.0935046
0.0959549
0.10076
0.102705
0.104441
0.104548
0.103587
0.10098
0.0966895
0.0901535
0.0811704
0.0684112
0.0523395
0.0282332
0.00126367
-0.0466866
-0.0903646
-0.17305
-0.21256
0.0807723
0.090038
0.0923992
0.0970285
0.0988201
0.100385
0.100298
0.09912
0.096271
0.0917093
0.0848655
0.0755299
0.062365
0.0458015
0.0211814
-0.00658379
-0.0546745
-0.100114
-0.178245
-0.216712
0.077567
0.0866222
0.0888943
0.0933507
0.0949933
0.0963908
0.0961209
0.0947385
0.0916655
0.0868561
0.0797372
0.0700927
0.0565862
0.0396145
0.0146157
-0.0137782
-0.061736
-0.108572
-0.182339
-0.219962
0.0744111
0.0832594
0.0854422
0.0897285
0.0912264
0.0924619
0.0920167
0.0904423
0.0871616
0.0821259
0.0747616
0.0648474
0.051058
0.0337528
0.00850178
-0.0203638
-0.0679123
-0.115811
-0.185495
-0.222376
0.0713051
0.0799502
0.0820437
0.0861626
0.0875201
0.0885984
0.0879871
0.086233
0.0827616
0.0775223
0.0699441
0.0598012
0.0457912
0.028228
0.00285249
-0.0263467
-0.0732784
-0.122089
-0.187634
-0.222788
0.0682491
0.0766957
0.0787006
0.082655
0.0838775
0.0848047
0.0840378
0.0821181
0.0784752
0.0730573
0.0652999
0.0549732
0.0408098
0.0230741
-0.00227546
-0.0315749
-0.0774262
-0.126514
-0.188155
-0.223774
0.129514
0.142451
0.145915
0.153385
0.157457
0.162299
0.165515
0.168195
0.169695
0.170111
0.169078
0.166542
0.161994
0.155924
0.14694
0.139555
0.127215
0.134811
0.120328
0.218548
0.125296
0.138464
0.14143
0.148816
0.152461
0.156867
0.159516
0.161557
0.162284
0.161798
0.159701
0.155942
0.149936
0.142245
0.131088
0.121537
0.10481
0.110066
0.0839175
0.186335
0.121825
0.134854
0.13763
0.144871
0.148309
0.152454
0.154834
0.15659
0.157
0.156172
0.153687
0.149491
0.142894
0.134481
0.121915
0.110617
0.0890752
0.0901221
0.0490111
0.151594
0.118765
0.131462
0.134233
0.141298
0.14461
0.148573
0.150776
0.152338
0.15253
0.151458
0.148679
0.144119
0.136981
0.127837
0.113866
0.100681
0.0747082
0.0709277
0.0184641
0.117431
0.115744
0.128102
0.13088
0.137758
0.140939
0.144714
0.146721
0.148053
0.147978
0.14659
0.143421
0.138379
0.130566
0.120557
0.105113
0.0900652
0.0601211
0.0517832
-0.00967889
0.0823224
0.112684
0.124729
0.12749
0.134175
0.137217
0.140784
0.142578
0.143657
0.143287
0.141554
0.137966
0.132419
0.123929
0.113089
0.0962883
0.0795716
0.0460536
0.0332645
-0.037009
0.0455626
0.109627
0.121367
0.124103
0.130587
0.133501
0.136851
0.13844
0.139273
0.138625
0.13657
0.1326
0.126602
0.117519
0.105964
0.0879901
0.0698049
0.0331009
0.0157882
-0.0634693
0.00708034
0.106606
0.118033
0.120753
0.127027
0.129831
0.132961
0.134362
0.134966
0.134067
0.131723
0.127416
0.121027
0.111433
0.0992638