/*--------------------------------*- C++ -*----------------------------------*\
  =========                 |
  \\      /  F ield         | OpenFOAM: The Open Source CFD Toolbox
   \\    /   O peration     | Website:  https://openfoam.org
    \\  /    A nd           | Version:  7
     \\/     M anipulation  |
\*---------------------------------------------------------------------------*/
FoamFile
{
    version     2.0;
    format      ascii;
    class       volVectorField;
    location    "40";
    object      U;
}
// * * * * * * * * * * * * * * * * * * * * * * * * * * * * * * * * * * * * * //

dimensions      [0 1 -1 0 0 0 0];

internalField   nonuniform List<vector> 
115
(
(1.34059 0.186875 1.34864e-17)
(1.34402 0.188023 5.59252e-18)
(1.34713 0.189058 4.9115e-18)
(1.34995 0.189989 6.9243e-19)
(1.35249 0.190823 -1.05612e-18)
(1.35477 0.19157 1.50414e-18)
(1.35682 0.192237 -1.11335e-18)
(1.35866 0.192834 3.39421e-19)
(1.36031 0.193366 -1.00984e-18)
(1.36178 0.193841 6.59374e-20)
(1.3631 0.194263 -2.10568e-19)
(1.36426 0.194638 -2.59117e-19)
(1.36528 0.194968 -1.04292e-18)
(1.36617 0.195256 1.20157e-19)
(1.36692 0.195504 1.34937e-19)
(1.36754 0.195709 2.81558e-19)
(1.368 0.195873 5.99321e-20)
(1.32999 0.183236 3.55757e-17)
(1.33485 0.184729 3.12896e-17)
(1.33928 0.186088 2.55028e-17)
(1.34329 0.187319 1.37784e-17)
(1.34689 0.188431 -5.81447e-18)
(1.35013 0.189432 3.04564e-18)
(1.35302 0.190333 -1.43103e-18)
(1.35558 0.191141 1.49252e-19)
(1.35786 0.191866 3.17088e-19)
(1.35986 0.192518 -1.7453e-19)
(1.36162 0.193104 1.88821e-19)
(1.36315 0.193632 8.54178e-19)
(1.36448 0.19411 -6.32521e-19)
(1.3656 0.194542 6.42652e-19)
(1.36655 0.194936 3.87638e-19)
(1.36731 0.195293 6.05105e-19)
(1.36789 0.195618 -3.90906e-19)
(1.31112 0.179024 1.98097e-18)
(1.3182 0.180873 8.43194e-19)
(1.3247 0.182578 8.04459e-19)
(1.33063 0.184141 7.78082e-19)
(1.33601 0.18557 -5.80149e-19)
(1.34086 0.186871 4.54831e-19)
(1.3452 0.18805 -4.35901e-19)
(1.34907 0.189118 -7.42806e-19)
(1.35249 0.190082 -5.08572e-19)
(1.3555 0.190953 -2.3448e-19)
(1.35813 0.191739 -9.53456e-19)
(1.3604 0.19245 -3.51928e-19)
(1.36235 0.193094 -7.28559e-20)
(1.36399 0.193682 1.13331e-20)
(1.36535 0.19422 8.65996e-20)
(1.36645 0.194717 -3.08673e-19)
(1.36729 0.195179 1.38038e-20)
(1.28079 0.172877 2.43498e-19)
(1.29086 0.175188 -1.79336e-21)
(1.30023 0.177351 2.77701e-19)
(1.30889 0.179366 -5.47343e-20)
(1.31685 0.181235 2.64504e-19)
(1.32412 0.18296 3.00276e-19)
(1.33072 0.184547 -1.82866e-19)
(1.33666 0.186001 -1.50492e-19)
(1.34197 0.187329 -2.65814e-19)
(1.34669 0.188541 -9.46691e-19)
(1.35083 0.189644 -6.54001e-19)
(1.35445 0.190649 -1.65683e-20)
(1.35756 0.191566 2.85735e-19)
(1.36021 0.192406 -3.0621e-19)
(1.36242 0.19318 -1.76064e-21)
(1.36423 0.193897 1.15946e-19)
(1.36565 0.19457 -3.50225e-19)
(1.2351 0.164311 1.07815e-18)
(1.24882 0.167144 -7.93369e-19)
(1.26178 0.169842 1.98799e-19)
(1.27398 0.172399 8.94061e-20)
(1.28537 0.174811 1.31969e-19)
(1.29596 0.177077 -2.74369e-19)
(1.30572 0.179196 3.37436e-19)
(1.31468 0.181169 2.54072e-19)
(1.32282 0.183001 -1.68121e-19)
(1.33018 0.184696 -1.24723e-19)
(1.33676 0.186261 -9.08054e-19)
(1.34259 0.187703 -3.88749e-20)
(1.34771 0.189032 -5.25212e-20)
(1.35214 0.190257 -3.27046e-20)
(1.35592 0.191392 5.88254e-19)
(1.35909 0.192446 -2.79146e-19)
(1.36168 0.193435 -7.81657e-19)
(1.17055 0.152985 3.98262e-18)
(1.18823 0.156327 2.0692e-19)
(1.20524 0.159567 3.6677e-19)
(1.22152 0.162693 -3.76698e-19)
(1.23702 0.165698 -4.78963e-20)
(1.25169 0.168573 3.39465e-19)
(1.2655 0.171314 -3.39103e-19)
(1.2784 0.173916 5.42625e-19)
(1.29039 0.176376 -1.1915e-19)
(1.30144 0.178694 -6.52496e-19)
(1.31154 0.180872 -5.6781e-19)
(1.3207 0.182912 2.35294e-20)
(1.32892 0.18482 1.18089e-19)
(1.33623 0.186602 1.17721e-19)
(1.34263 0.188269 2.23053e-19)
(1.34817 0.189829 -6.81749e-20)
(1.35287 0.191297 1.25608e-19)
(1.08513 0.138881 1.29568e-17)
(1.10654 0.142621 7.92196e-18)
(1.1275 0.146309 5.04841e-18)
(1.14792 0.149935 1.035e-18)
(1.16773 0.153485 -1.58287e-18)
(1.18684 0.156948 1.02744e-18)
(1.20519 0.160315 -5.81522e-19)
(1.22271 0.163575 6.33197e-19)
(1.23933 0.166722 -9.28844e-19)
(1.255 0.169748 -2.07055e-19)
(1.26966 0.172648 -4.34376e-19)
(1.28329 0.17542 -9.72089e-19)
(1.29583 0.178061 1.32401e-19)
)
;

boundaryField
{
    inlet
    {
        type            uniformFixedValue;
        uniformValue    constant (1 0 0);
        value           nonuniform 0();
    }
    outlet
    {
        type            pressureInletOutletVelocity;
        value           nonuniform 0();
    }
    polygon
    {
        type            fixedValue;
        value           nonuniform 0();
    }
    top
    {
        type            symmetryPlane;
    }
    bottom
    {
        type            symmetryPlane;
    }
    outside
    {
        type            zeroGradient;
    }
    procBoundary59to51
    {
        type            processor;
        value           nonuniform List<vector> 
18
(
(1.30729 0.180573 -2.84012e-19)
(1.31762 0.182957 1.36755e-19)
(1.32685 0.185221 -1.85607e-20)
(1.33496 0.187371 7.19821e-20)
(0.979405 0.122442 4.32731e-17)
(1.00365 0.126374 3.71051e-17)
(1.02776 0.130316 3.08709e-17)
(1.05166 0.134258 1.63867e-17)
(1.07526 0.138187 -6.54776e-18)
(1.09847 0.142091 2.563e-18)
(1.12119 0.145961 -1.78696e-18)
(1.14333 0.149785 8.0449e-19)
(1.16479 0.153552 -4.03044e-19)
(1.18549 0.157252 1.6531e-19)
(1.20532 0.160876 9.99441e-20)
(1.22421 0.164414 5.77018e-20)
(1.30729 0.180573 -2.84012e-19)
(1.24206 0.16786 3.29647e-19)
)
;
    }
    procBoundary59to58
    {
        type            processor;
        value           nonuniform List<vector> 6((1.36831 0.19599 2.64496e-20) (1.36828 0.195913 3.27282e-19) (1.36788 0.195611 -3.79362e-19) (1.36672 0.195206 -1.71806e-19) (1.36373 0.19437 5.65659e-19) (1.35676 0.192685 2.09665e-19));
    }
    procBoundary59to60
    {
        type            processor;
        value           nonuniform List<vector> 7((1.33682 0.185605 3.95121e-18) (1.32466 0.181601 3.60955e-17) (1.30345 0.177028 1.23467e-18) (1.27003 0.17042 -2.34423e-19) (1.22068 0.16135 -1.53988e-18) (1.15226 0.149553 -8.57598e-19) (1.06334 0.135105 6.14891e-18));
    }
}


// ************************************************************************* //
