/*--------------------------------*- C++ -*----------------------------------*\
  =========                 |
  \\      /  F ield         | OpenFOAM: The Open Source CFD Toolbox
   \\    /   O peration     | Website:  https://openfoam.org
    \\  /    A nd           | Version:  7
     \\/     M anipulation  |
\*---------------------------------------------------------------------------*/
FoamFile
{
    version     2.0;
    format      ascii;
    class       surfaceScalarField;
    location    "92";
    object      phi;
}
// * * * * * * * * * * * * * * * * * * * * * * * * * * * * * * * * * * * * * //

dimensions      [0 3 -1 0 0 0 0];

internalField   nonuniform List<scalar> 
14496
(
0.00154268
1.46127e-07
-3.3197e-07
0.00154341
6.3282e-07
-1.36065e-06
0.00154498
1.39545e-06
-2.96072e-06
0.00154723
2.03481e-06
-4.28815e-06
0.00154989
2.41347e-06
-5.07393e-06
0.00155264
2.48612e-06
-5.23265e-06
0.00155516
2.25324e-06
-4.77124e-06
0.00155717
1.75006e-06
-3.76528e-06
0.00155846
1.02635e-06
-2.31696e-06
0.00155886
1.36297e-07
-5.33578e-07
0.00155824
-8.9228e-07
1.51584e-06
0.0015565
-2.009e-06
3.74644e-06
0.0015536
-3.17178e-06
6.06733e-06
0.00154953
-4.35225e-06
8.42312e-06
0.00154429
-5.52713e-06
1.0768e-05
0.0015379
-6.67702e-06
1.30638e-05
0.00153041
-7.78628e-06
1.528e-05
0.00152186
-8.84248e-06
1.73923e-05
0.00151231
-9.83583e-06
1.93816e-05
0.00150184
-1.07586e-05
2.12327e-05
0.00149051
-1.16048e-05
2.29336e-05
0.00147841
-1.23695e-05
2.44746e-05
0.00146561
-1.30491e-05
2.5848e-05
0.0014522
-1.36405e-05
2.70474e-05
0.00143827
-1.41416e-05
2.80681e-05
0.00142392
-1.45508e-05
2.89064e-05
0.00140923
-1.48674e-05
2.95603e-05
0.00139429
-1.50913e-05
3.00293e-05
0.0013792
-1.52235e-05
3.03145e-05
0.00136404
-1.52657e-05
3.04193e-05
0.00134892
-1.52209e-05
3.03486e-05
0.0013339
-1.50926e-05
3.01094e-05
0.00131907
-1.48853e-05
2.97106e-05
0.00130452
-1.46045e-05
2.91622e-05
0.0012903
-1.42558e-05
2.8476e-05
0.00127648
-1.38458e-05
2.76645e-05
0.00126312
-1.3381e-05
2.67411e-05
0.00125027
-1.28686e-05
2.57197e-05
0.00123797
-1.23154e-05
2.46144e-05
0.00122626
-1.17285e-05
2.34394e-05
0.00121516
-1.11146e-05
2.22085e-05
0.00120471
-1.04804e-05
2.09351e-05
0.00119491
-9.83222e-06
1.96321e-05
0.00118577
-9.17586e-06
1.83117e-05
0.0011773
-8.51688e-06
1.69854e-05
0.0011695
-7.86036e-06
1.56636e-05
0.00116235
-7.21092e-06
1.43562e-05
0.00115586
-6.57283e-06
1.3072e-05
0.00114999
-5.94983e-06
1.18191e-05
0.00114473
-5.34524e-06
1.06045e-05
0.00114005
-4.76193e-06
9.43446e-06
0.00113594
-4.20237e-06
8.31426e-06
0.00113236
-3.66862e-06
7.24845e-06
0.00112928
-3.16242e-06
6.24079e-06
0.00112667
-2.68515e-06
5.29433e-06
0.0011245
-2.23791e-06
4.41148e-06
0.00112273
-1.82157e-06
3.59411e-06
0.00112132
-1.43678e-06
2.84359e-06
0.00112025
-1.0841e-06
2.16094e-06
0.00111946
-7.63891e-07
1.54678e-06
0.00111894
-4.76947e-07
1.00155e-06
0.00111864
-2.23306e-07
5.24413e-07
0.00111852
8.32758e-09
1.08521e-07
0.00111855
1.88269e-07
-2.19066e-07
0.00111869
3.38435e-07
-4.77099e-07
0.0011189
4.50104e-07
-6.64411e-07
0.00111915
5.25604e-07
-7.75612e-07
0.0011194
5.62009e-07
-8.07905e-07
0.0011196
5.57618e-07
-7.58571e-07
0.00111971
5.11172e-07
-6.21949e-07
0.00111969
4.17031e-07
-3.98447e-07
0.00111951
2.65977e-07
-8.46551e-08
0.00111908
7.08574e-08
3.61827e-07
0.00111835
-1.98013e-07
9.21801e-07
0.00111728
-5.35849e-07
1.61198e-06
0.00111578
-9.47823e-07
2.45119e-06
0.00111376
-1.44621e-06
3.45925e-06
0.00111115
-2.04322e-06
4.66011e-06
0.00110782
-2.75359e-06
6.08322e-06
0.00110365
-3.5951e-06
7.76414e-06
0.00109849
-4.58957e-06
9.74659e-06
0.00109217
-5.76399e-06
1.20847e-05
0.00108448
-7.15205e-06
1.48456e-05
0.00107516
-8.79617e-06
1.8114e-05
0.00106391
-1.07502e-05
2.19968e-05
0.00105036
-1.30836e-05
2.66318e-05
0.00103405
-1.58863e-05
3.21966e-05
0.0010144
-1.92764e-05
3.89241e-05
0.000990691
-2.34136e-05
4.71275e-05
0.000961986
-2.84984e-05
5.72035e-05
0.000927059
-3.48588e-05
6.97858e-05
0.00088444
-4.27299e-05
8.53491e-05
0.000831728
-5.31232e-05
0.000105834
0.000767081
-6.54371e-05
0.000130084
0.000684294
-8.41817e-05
0.000166969
0.000584909
-0.000101632
0.000201016
0.000451381
-0.000136633
0.000270161
0.000304602
-0.000152045
0.000298824
0.000127764
-0.000179991
0.000356829
-0.000131191
0.000258955
0.00155821
-7.65191e-10
0.00155885
-6.21267e-09
0.00156026
-1.39988e-08
0.00156231
-2.30559e-08
0.00156476
-3.25343e-08
0.00156729
-4.193e-08
0.00156959
-5.09938e-08
0.0015714
-5.96854e-08
0.0015725
-6.78054e-08
0.00157271
-7.55126e-08
0.0015719
-8.49961e-08
0.00156998
-9.2165e-08
0.00156691
-9.84038e-08
0.00156266
-1.03591e-07
0.00155724
-1.07352e-07
0.00155068
-1.09289e-07
0.001543
-1.09058e-07
0.00153426
-1.06383e-07
0.00152453
-1.01083e-07
0.00151386
-9.30942e-08
0.00150234
-8.24723e-08
0.00149004
-6.93943e-08
0.00147704
-5.41477e-08
0.00146344
-3.71145e-08
0.00144932
-1.87515e-08
0.00143477
4.67512e-10
0.00141988
1.99272e-08
0.00140475
3.91614e-08
0.00138947
5.76138e-08
0.00137413
7.47826e-08
0.00135882
9.02105e-08
0.00134362
1.03492e-07
0.00132862
1.14282e-07
0.00131389
1.22303e-07
0.00129951
1.27345e-07
0.00128554
1.29273e-07
0.00127203
1.28023e-07
0.00125903
1.23606e-07
0.0012466
1.16106e-07
0.00123477
1.05676e-07
0.00122356
9.25373e-08
0.001213
7.69706e-08
0.00120311
5.9312e-08
0.0011939
3.99462e-08
0.00118536
1.92965e-08
0.0011775
-2.23137e-09
0.00117032
-2.40108e-08
0.00116379
-4.57023e-08
0.00115791
-6.67518e-08
0.00115265
-8.66662e-08
0.00114799
-1.04966e-07
0.00114391
-1.21194e-07
0.00114037
-1.34936e-07
0.00113736
-1.45822e-07
0.00113483
-1.53539e-07
0.00113275
-1.57839e-07
0.00113108
-1.58557e-07
0.0011298
-1.55603e-07
0.00112887
-1.49029e-07
0.00112824
-1.38899e-07
0.00112789
-1.2597e-07
0.00112778
-1.09259e-07
0.00112787
-8.61435e-08
0.00112812
-6.46354e-08
0.0011285
-4.09817e-08
0.00112897
-1.71382e-08
0.00112949
8.14753e-09
0.00113002
3.26984e-08
0.00113052
5.61307e-08
0.00113095
7.72907e-08
0.00113127
9.82183e-08
0.00113142
1.17789e-07
0.00113136
1.33376e-07
0.00113102
1.43186e-07
0.00113033
1.48123e-07
0.00112924
1.49146e-07
0.00112764
1.46374e-07
0.00112546
1.39881e-07
0.00112258
1.29855e-07
0.00111886
1.16665e-07
0.00111417
1.00834e-07
0.00110833
8.30065e-08
0.00110111
6.39119e-08
0.00109227
4.4323e-08
0.0010815
2.50159e-08
0.00106841
6.7123e-09
0.00105253
-9.82957e-09
0.00103328
-2.40923e-08
0.0010099
-3.57054e-08
0.000981445
-4.42866e-08
0.000946636
-4.9884e-08
0.000903958
-5.22956e-08
0.000850887
-5.22492e-08
0.0007855
-4.95237e-08
0.000701363
-4.51403e-08
0.000599771
-3.93342e-08
0.000463171
-3.32238e-08
0.000311153
-2.71597e-08
0.000131182
-2.01466e-08
-9.29078e-09
0.00141196
5.94971e-07
-1.00456e-06
0.00141315
2.24686e-06
-3.43717e-06
0.00141546
4.78136e-06
-7.09218e-06
0.0014186
6.84379e-06
-9.98299e-06
0.00142219
8.05119e-06
-1.16432e-05
0.00142586
8.29313e-06
-1.19609e-05
0.00142926
7.59593e-06
-1.10021e-05
0.00143213
6.08376e-06
-8.95308e-06
0.00143425
3.91432e-06
-6.03395e-06
0.00143547
1.25162e-06
-2.4661e-06
0.00143567
-1.79191e-06
1.58495e-06
0.00143479
-5.10682e-06
5.99032e-06
0.00143278
-8.5483e-06
1.05556e-05
0.00142964
-1.2038e-05
1.51784e-05
0.00142538
-1.5509e-05
1.97713e-05
0.00142002
-1.89058e-05
2.4263e-05
0.00141361
-2.21841e-05
2.85963e-05
0.00140619
-2.53089e-05
3.2726e-05
0.00139783
-2.82524e-05
3.66164e-05
0.00138858
-3.09926e-05
4.02393e-05
0.00137852
-3.35119e-05
4.3572e-05
0.00136772
-3.57963e-05
4.6596e-05
0.00135626
-3.78343e-05
4.92963e-05
0.00134422
-3.96164e-05
5.16605e-05
0.00133167
-4.11353e-05
5.36786e-05
0.00131872
-4.23856e-05
5.53433e-05
0.00130543
-4.33637e-05
5.66499e-05
0.0012919
-4.40687e-05
5.75968e-05
0.00127822
-4.45022e-05
5.8186e-05
0.00126446
-4.46688e-05
5.84233e-05
0.00125072
-4.45758e-05
5.83184e-05
0.00123707
-4.42334e-05
5.78849e-05
0.00122358
-4.36545e-05
5.71397e-05
0.00121033
-4.28544e-05
5.61031e-05
0.00119739
-4.185e-05
5.47978e-05
0.0011848
-4.06603e-05
5.32486e-05
0.00117262
-3.9305e-05
5.14821e-05
0.0011609
-3.78048e-05
4.95256e-05
0.00114967
-3.61807e-05
4.7407e-05
0.00113897
-3.44538e-05
4.51542e-05
0.00112882
-3.26445e-05
4.27945e-05
0.00111924
-3.07731e-05
4.03546e-05
0.00111024
-2.88586e-05
3.78598e-05
0.00110183
-2.69193e-05
3.53344e-05
0.001094
-2.49722e-05
3.2801e-05
0.00108675
-2.30331e-05
3.02805e-05
0.00108007
-2.11167e-05
2.77923e-05
0.00107396
-1.92363e-05
2.53541e-05
0.00106838
-1.74038e-05
2.29819e-05
0.00106332
-1.56299e-05
2.06895e-05
0.00105875
-1.3924e-05
1.84893e-05
0.00105466
-1.22939e-05
1.6392e-05
0.001051
-1.07464e-05
1.44063e-05
0.00104774
-9.28733e-06
1.25398e-05
0.00104487
-7.92108e-06
1.07983e-05
0.00104233
-6.65128e-06
9.18651e-06
0.0010401
-5.48063e-06
7.70788e-06
0.00103815
-4.41113e-06
6.36492e-06
0.00103643
-3.44415e-06
5.1593e-06
0.00103492
-2.58056e-06
4.09201e-06
0.00103358
-1.82092e-06
3.16351e-06
0.00103237
-1.16524e-06
2.37398e-06
0.00103126
-6.11431e-07
1.72167e-06
0.0010302
-1.613e-07
1.21779e-06
0.00102918
1.69383e-07
8.5747e-07
0.00102815
3.8547e-07
6.41449e-07
0.00102708
4.95514e-07
5.75303e-07
0.00102593
4.8945e-07
6.64765e-07
0.00102465
3.64317e-07
9.14645e-07
0.00102319
1.23722e-07
1.33327e-06
0.00102153
-2.67042e-07
1.92763e-06
0.00101963
-8.11377e-07
2.71477e-06
0.00101741
-1.50694e-06
3.71925e-06
0.00101484
-2.38132e-06
4.95639e-06
0.00101184
-3.45196e-06
6.45008e-06
0.00100835
-4.74146e-06
8.23236e-06
0.00100429
-6.27961e-06
1.03419e-05
0.000999564
-8.10194e-06
1.28251e-05
0.000994077
-1.0252e-05
1.57389e-05
0.000987708
-1.27824e-05
1.91517e-05
0.000980318
-1.57579e-05
2.3148e-05
0.000971745
-1.92582e-05
2.78315e-05
0.000961796
-2.33827e-05
3.33313e-05
0.000950244
-2.82561e-05
3.98087e-05
0.000936812
-3.40358e-05
4.74673e-05
0.000921169
-4.0924e-05
5.65675e-05
0.000902906
-4.9181e-05
6.74436e-05
0.00088152
-5.91485e-05
8.05342e-05
0.000856385
-7.12814e-05
9.64165e-05
0.000826704
-8.61669e-05
0.000115848
0.000791482
-0.000104696
0.000139918
0.000749433
-0.000127653
0.000169702
0.000698812
-0.000157644
0.000208265
0.00063779
-0.000193439
0.000254461
0.000562239
-0.000246868
0.000322419
0.00047324
-0.000296685
0.000385685
0.000357306
-0.000396349
0.000512283
0.000237577
-0.000433206
0.000552936
8.48562e-05
-0.000517951
0.000670671
-0.000352287
0.000437143
0.00145418
0.00145507
0.00145689
0.00145945
0.00146242
0.00146548
0.00146831
0.00147063
0.00147223
0.00147294
0.00147267
0.00147131
0.00146883
0.00146521
0.00146047
0.00145463
0.00144772
0.00143981
0.00143094
0.00142118
0.0014106
0.00139928
0.00138729
0.00137472
0.00136165
0.00134817
0.00133437
0.00132033
0.00130614
0.00129189
0.00127767
0.00126354
0.0012496
0.00123591
0.00122253
0.00120954
0.00119697
0.00118489
0.00117332
0.00116231
0.00115187
0.00114203
0.00113281
0.0011242
0.00111621
0.00110884
0.00110208
0.00109592
0.00109033
0.00108531
0.00108082
0.00107684
0.00107334
0.0010703
0.00106767
0.00106543
0.00106354
0.00106197
0.00106069
0.00105966
0.00105884
0.0010582
0.00105769
0.00105731
0.00105701
0.00105673
0.00105645
0.00105613
0.00105573
0.00105524
0.00105457
0.00105368
0.00105253
0.00105107
0.00104923
0.00104694
0.00104412
0.00104068
0.00103651
0.00103149
0.00102548
0.00101831
0.00100977
0.000999627
0.000987588
0.000973296
0.000956311
0.000936087
0.000911933
0.000882969
0.000848059
0.000805756
0.000753946
0.000690591
0.000610693
0.000515023
0.000388835
0.000254453
9.33315e-05
0.00119457
1.59853e-06
-2.51244e-06
0.00119668
4.96489e-06
-7.08048e-06
0.00120028
9.86631e-06
-1.34601e-05
0.00120481
1.36182e-05
-1.81529e-05
0.00120977
1.57097e-05
-2.06637e-05
0.00121471
1.60667e-05
-2.10086e-05
0.0012193
1.48181e-05
-1.94099e-05
0.00122329
1.22228e-05
-1.62136e-05
0.0012265
8.56548e-06
-1.1776e-05
0.00122881
4.12441e-06
-6.42865e-06
0.00123014
-8.74934e-07
-4.54188e-07
0.00123044
-6.30942e-06
6.00773e-06
0.00122969
-1.1921e-05
1.26669e-05
0.0012279
-1.75939e-05
1.93869e-05
0.00122508
-2.32226e-05
2.60443e-05
0.00122126
-2.87219e-05
3.25421e-05
0.00121648
-3.40241e-05
3.88032e-05
0.00121079
-3.90754e-05
4.47663e-05
0.00120424
-4.38335e-05
5.03832e-05
0.00119689
-4.82648e-05
5.56153e-05
0.0011888
-5.23422e-05
6.04317e-05
0.00118003
-5.60437e-05
6.48067e-05
0.00117067
-5.93509e-05
6.87192e-05
0.00116076
-6.22488e-05
7.21515e-05
0.0011504
-6.47252e-05
7.5089e-05
0.00113965
-6.67709e-05
7.75207e-05
0.00112859
-6.838e-05
7.94395e-05
0.0011173
-6.95505e-05
8.08428e-05
0.00110585
-7.02847e-05
8.17334e-05
0.00109432
-7.05897e-05
8.21199e-05
0.00108278
-7.04777e-05
8.20165e-05
0.0010713
-6.99654e-05
8.14433e-05
0.00105995
-6.90738e-05
8.04254e-05
0.00104879
-6.78279e-05
7.89929e-05
0.00103786
-6.62558e-05
7.71792e-05
0.00102723
-6.43883e-05
7.50211e-05
0.00101693
-6.22581e-05
7.25575e-05
0.001007
-5.98989e-05
6.98284e-05
0.00099747
-5.7345e-05
6.68748e-05
0.000988364
-5.46308e-05
6.37373e-05
0.000979698
-5.17899e-05
6.04557e-05
0.000971484
-4.88548e-05
5.70687e-05
0.000963728
-4.58569e-05
5.36132e-05
0.000956429
-4.28256e-05
5.01241e-05
0.000949584
-3.97888e-05
4.66341e-05
0.000943183
-3.6772e-05
4.31733e-05
0.000937212
-3.37988e-05
3.97696e-05
0.000931655
-3.0891e-05
3.64484e-05
0.00092649
-2.80678e-05
3.32324e-05
0.000921695
-2.53463e-05
3.01414e-05
0.000917243
-2.27413e-05
2.71928e-05
0.000913108
-2.02657e-05
2.44015e-05
0.000909258
-1.79302e-05
2.17798e-05
0.000905664
-1.57436e-05
1.93379e-05
0.000902293
-1.3713e-05
1.70838e-05
0.000899113
-1.18438e-05
1.50235e-05
0.000896091
-1.014e-05
1.31617e-05
0.000893195
-8.60455e-06
1.15013e-05
0.00089039
-7.23922e-06
1.00442e-05
0.000887643
-6.04506e-06
8.79159e-06
0.000884922
-5.02259e-06
7.7438e-06
0.000882193
-4.17234e-06
6.90143e-06
0.000879422
-3.49384e-06
6.2648e-06
0.000876575
-2.992e-06
5.83912e-06
0.000873619
-2.66902e-06
5.62438e-06
0.000870524
-2.52697e-06
5.62264e-06
0.000867253
-2.56795e-06
5.83898e-06
0.00086377
-2.79895e-06
6.28175e-06
0.000860037
-3.22697e-06
6.96013e-06
0.000856012
-3.85955e-06
7.88479e-06
0.000851655
-4.71458e-06
9.07152e-06
0.000846923
-5.81006e-06
1.05414e-05
0.000841768
-7.16651e-06
1.23219e-05
0.000836135
-8.80861e-06
1.44412e-05
0.000829967
-1.07671e-05
1.69353e-05
0.000823198
-1.30803e-05
1.98491e-05
0.000815756
-1.57952e-05
2.32372e-05
0.000807559
-1.89682e-05
2.71651e-05
0.000798515
-2.26685e-05
3.17132e-05
0.000788516
-2.69793e-05
3.69776e-05
0.000777443
-3.20028e-05
4.3076e-05
0.000765155
-3.78646e-05
5.01531e-05
0.000751488
-4.47202e-05
5.8387e-05
0.000736252
-5.27642e-05
6.79999e-05
0.000719223
-6.22409e-05
7.92696e-05
0.000700136
-7.34625e-05
9.25496e-05
0.000678675
-8.68275e-05
0.000108289
0.000654461
-0.000102859
0.000127073
0.000627042
-0.000122237
0.000149657
0.000595858
-0.000145868
0.000177052
0.000560286
-0.000174979
0.000210551
0.000519441
-0.000211003
0.000251848
0.000472696
-0.000257013
0.000303758
0.000418402
-0.000312821
0.000367115
0.000356388
-0.000391949
0.000453963
0.000285472
-0.000467735
0.000538651
0.000204852
-0.000612156
0.000692775
0.000125872
-0.000652096
0.000731076
1.78757e-05
-0.000793369
0.000901365
-0.000463206
0.000481082
0.00125202
0.00125355
0.00125632
0.00125996
0.00126402
0.00126813
0.00127195
0.00127522
0.00127775
0.00127941
0.00128012
0.0012798
0.00127843
0.00127602
0.00127256
0.00126811
0.00126268
0.00125633
0.00124911
0.00124109
0.00123232
0.00122287
0.00121281
0.00120222
0.00119118
0.00117975
0.00116802
0.00115607
0.00114397
0.0011318
0.00111964
0.00110756
0.00109563
0.0010839
0.00107244
0.0010613
0.00105053
0.00104016
0.00103022
0.00102074
0.00101175
0.00100325
0.000995248
0.000987757
0.000980769
0.000974278
0.000968271
0.000962734
0.000957648
0.000952992
0.00094874
0.000944866
0.000941342
0.000938138
0.000935224
0.000932566
0.000930134
0.000927895
0.000925815
0.000923862
0.000922002
0.000920204
0.000918432
0.000916658
0.000914846
0.000912961
0.000910968
0.000908834
0.000906521
0.000903995
0.000901208
0.000898113
0.000894666
0.000890813
0.000886496
0.000881649
0.000876195
0.000870052
0.000863123
0.000855295
0.00084644
0.000836407
0.000825018
0.000812063
0.000797289
0.000780394
0.00076101
0.000738685
0.000712865
0.000682845
0.000647784
0.000606482
0.000557734
0.000499374
0.000429843
0.000347794
0.000247921
0.000148761
2.60635e-05
0.000933472
3.70689e-06
-5.43739e-06
0.000936841
9.64007e-06
-1.30099e-05
0.000941887
1.75009e-05
-2.25462e-05
0.000947799
2.30733e-05
-2.89854e-05
0.000953953
2.59032e-05
-3.20572e-05
0.000959924
2.61575e-05
-3.21286e-05
0.000965426
2.41702e-05
-2.96722e-05
0.000970267
2.03747e-05
-2.52162e-05
0.000974325
1.51944e-05
-1.92515e-05
0.000977517
9.00901e-06
-1.22011e-05
0.000979786
2.14227e-06
-4.41132e-06
0.000981146
-5.23375e-06
3.87351e-06
0.000981572
-1.28302e-05
1.24039e-05
0.000981079
-2.04747e-05
2.09677e-05
0.000979689
-2.80374e-05
2.94273e-05
0.000977433
-3.54111e-05
3.76678e-05
0.000974346
-4.25112e-05
4.5598e-05
0.000970471
-4.92709e-05
5.31459e-05
0.000965854
-5.56372e-05
6.02544e-05
0.000960544
-6.15678e-05
6.68778e-05
0.000954593
-6.70284e-05
7.29789e-05
0.000948057
-7.19907e-05
7.85269e-05
0.000940992
-7.6431e-05
8.34956e-05
0.000933459
-8.03292e-05
8.78628e-05
0.000925518
-8.3669e-05
9.161e-05
0.000917233
-8.64376e-05
9.4723e-05
0.000908667
-8.8627e-05
9.71925e-05
0.000899886
-9.0234e-05
9.9015e-05
0.000890954
-9.1262e-05
0.000100194
0.000881933
-9.17208e-05
0.000100742
0.000872884
-9.16272e-05
0.000100676
0.000863864
-9.10043e-05
0.000100024
0.000854926
-8.98813e-05
9.88192e-05
0.000846119
-8.82928e-05
9.71003e-05
0.000837485
-8.62775e-05
9.49117e-05
0.000829061
-8.38776e-05
9.2301e-05
0.00082088
-8.11378e-05
8.93188e-05
0.000812967
-7.81039e-05
8.60169e-05
0.000805342
-7.48228e-05
8.24479e-05
0.000798019
-7.13407e-05
7.86637e-05
0.000791007
-6.7703e-05
7.47155e-05
0.000784308
-6.39537e-05
7.06523e-05
0.000777922
-6.01346e-05
6.6521e-05
0.000771841
-5.62854e-05
6.23657e-05
0.000766057
-5.2443e-05
5.82276e-05
0.000760554
-4.86415e-05
5.41445e-05
0.000755315
-4.49122e-05
5.01512e-05
0.000750319
-4.12837e-05
4.62793e-05
0.000745544
-3.77815e-05
4.25569e-05
0.000740963
-3.44278e-05
3.90085e-05
0.00073655
-3.12419e-05
3.56552e-05
0.000732275
-2.82402e-05
3.25148e-05
0.000728109
-2.54363e-05
2.96021e-05
0.000724022
-2.28414e-05
2.69289e-05
0.000719982
-2.04641e-05
2.45044e-05
0.000715957
-1.83107e-05
2.23352e-05
0.000711917
-1.63862e-05
2.04263e-05
0.00070783
-1.46935e-05
1.87808e-05
0.000703664
-1.32344e-05
1.74003e-05
0.000699388
-1.20101e-05
1.62858e-05
0.000694971
-1.10209e-05
1.54375e-05
0.000690383
-1.02673e-05
1.48561e-05
0.00068559
-9.7502e-06
1.45426e-05
0.000680563
-9.47346e-06
1.45008e-05
0.000675269
-9.43813e-06
1.47318e-05
0.000669677
-9.64744e-06
1.52397e-05
0.000663753
-1.01072e-05
1.60311e-05
0.000657463
-1.08265e-05
1.71166e-05
0.00065077
-1.1816e-05
1.85085e-05
0.000643637
-1.30884e-05
2.02218e-05
0.000636022
-1.46626e-05
2.22773e-05
0.000627884
-1.65624e-05
2.47012e-05
0.000619174
-1.88177e-05
2.75268e-05
0.000609845
-2.14615e-05
3.07913e-05
0.000599839
-2.45351e-05
3.45408e-05
0.000589097
-2.80892e-05
3.88313e-05
0.000577552
-3.21854e-05
4.37306e-05
0.000565129
-3.68975e-05
4.93198e-05
0.000551747
-4.23161e-05
5.5698e-05
0.000537314
-4.85482e-05
6.29815e-05
0.000521726
-5.57255e-05
7.13132e-05
0.000504868
-6.40089e-05
8.0867e-05
0.000486609
-7.35963e-05
9.18554e-05
0.000466801
-8.47329e-05
0.000104541
0.000445278
-9.77248e-05
0.000119248
0.000421852
-0.000112959
0.000136385
0.000396313
-0.000130924
0.000156463
0.000368429
-0.000152254
0.000180138
0.000337951
-0.000177758
0.000208236
0.000304625
-0.000208516
0.000241842
0.000268246
-0.00024585
0.000282228
0.000228522
-0.000291611
0.000331336
0.000185947
-0.000348227
0.000390802
0.000139636
-0.000417632
0.000463943
9.48234e-05
-0.000508177
0.00055299
4.62646e-05
-0.000600423
0.000648982
1.73374e-05
-0.000749442
0.000778369
-1.45874e-05
-0.000789811
0.000821736
-2.50964e-05
-0.000956974
0.000967483
-0.000437827
0.00041273
0.00099163
0.000994189
0.00099823
0.00100315
0.00100839
0.00101354
0.0010183
0.00102246
0.00102588
0.00102846
0.00103015
0.00103092
0.00103076
0.00102967
0.00102768
0.00102481
0.0010211
0.0010166
0.00101134
0.00100539
0.000998792
0.000991608
0.000983896
0.000975719
0.000967139
0.000958222
0.000949034
0.000939643
0.000930114
0.000920513
0.000910903
0.000901342
0.000891886
0.000882586
0.000873488
0.000864631
0.000856051
0.000847775
0.000839827
0.000832224
0.000824977
0.000818092
0.00081157
0.000805409
0.0007996
0.000794132
0.000788989
0.000784154
0.000779605
0.000775318
0.000771269
0.000767431
0.000763774
0.000760271
0.00075689
0.000753603
0.000750379
0.000747186
0.000743996
0.000740778
0.000737501
0.000734135
0.000730649
0.000727015
0.000723201
0.000719176
0.000714908
0.000710364
0.000705508
0.000700304
0.000694713
0.000688692
0.000682196
0.000675176
0.000667576
0.000659336
0.000650388
0.000640656
0.000630053
0.000618482
0.000605833
0.000591977
0.000576768
0.000560035
0.00054158
0.00052117
0.000498535
0.000473354
0.000445252
0.000413789
0.00037849
0.000338727
0.000294257
0.000243741
0.000189527
0.000127755
7.10883e-05
1.23532e-05
-4.32552e-05
-0.00088748
0.010534
-0.0103036
-0.00111856
0.0105251
-0.010294
-0.00135049
0.010512
-0.0102801
-0.00158368
0.0105025
-0.0102693
-0.00181824
0.0104983
-0.0102638
-0.0020546
0.0105005
-0.0102641
-0.00229318
0.0105102
-0.0102716
-0.0025346
0.010529
-0.0102876
-0.00277961
0.010559
-0.010314
-0.00302886
0.0106022
-0.0103529
-0.0032814
0.010658
-0.0104055
-0.00352919
0.0107155
-0.0104677
-0.00374281
0.0107303
-0.0105167
-0.00384428
0.0105789
-0.0104775
-0.00368351
0.010006
-0.0101667
-0.00307787
0.00864133
-0.00924697
-0.0019872
0.00615511
-0.00724578
-0.000772966
0.00279919
-0.00401342
-0.000100344
0.000219624
-0.000892246
-0.000521439
0.000421094
-0.000893266
0.0107631
-0.00112559
0.0107574
-0.00135773
0.0107441
-0.00159166
0.0107364
-0.00182678
0.0107334
-0.00206377
0.0107375
-0.00230291
0.0107493
-0.00254473
0.0107708
-0.00278949
0.0108038
-0.00303609
0.0108488
-0.00327852
0.0109005
-0.00349709
0.010934
-0.00364241
0.0108757
-0.00361873
0.0105552
-0.00328729
0.00967454
-0.00253855
0.00789259
-0.00144848
0.00506504
-0.000479964
0.00183068
-3.54448e-05
-0.000224895
-0.000556883
-0.000916759
0.01012
-0.00993577
-0.00110128
0.0101102
-0.00992566
-0.00128694
0.0100948
-0.00990915
-0.001474
0.0100828
-0.00989569
-0.0016627
0.0100756
-0.00988689
-0.00185336
0.0100741
-0.00988343
-0.00204638
0.0100794
-0.00988634
-0.0022423
0.0100927
-0.00989683
-0.00244185
0.0101161
-0.00991658
-0.00264589
0.010152
-0.00994794
-0.00285485
0.0102026
-0.00999367
-0.00306658
0.010268
-0.0100562
-0.00327023
0.0103358
-0.0101321
-0.00343021
0.0103593
-0.0101993
-0.00346375
0.0102112
-0.0101776
-0.00322293
0.00961733
-0.00985815
-0.00252618
0.00808327
-0.00878002
-0.00131544
0.00518874
-0.00639948
-0.000272674
0.0016707
-0.00271347
-0.000280733
8.05944e-06
-0.000925033
-0.00110885
-0.0012941
-0.00148062
-0.00166879
-0.00185881
-0.00205105
-0.00224589
-0.00244374
-0.0026447
-0.00284757
-0.00304726
-0.00322823
-0.00334641
-0.00330198
-0.00293163
-0.00209413
-0.000918818
-0.000140361
-0.000904865
0.00980471
-0.00967256
-0.00103752
0.00979424
-0.00966159
-0.00117146
0.00977625
-0.00964231
-0.00130712
0.00976136
-0.0096257
-0.00144467
0.00975065
-0.0096131
-0.00158447
0.00974514
-0.00960534
-0.00172691
0.00974563
-0.00960319
-0.00187247
0.00975337
-0.0096078
-0.0020218
0.00976992
-0.00962059
-0.00217567
0.00979762
-0.00964375
-0.00233478
0.0098393
-0.00968019
-0.00249905
0.00989791
-0.00973364
-0.00266587
0.00997275
-0.00980592
-0.0028239
0.0100553
-0.00989723
-0.00294125
0.0100974
-0.00998006
-0.00292645
0.00995621
-0.00997101
-0.00260362
0.0092384
-0.00956123
-0.001758
0.00734827
-0.00819389
-0.000572054
0.00373281
-0.00491876
0.000333135
-0.000905189
-0.000915112
-0.00104653
-0.00117942
-0.00131375
-0.00144999
-0.00158829
-0.001729
-0.00187246
-0.00201912
-0.00216944
-0.00232382
-0.00248215
-0.00264151
-0.00278556
-0.00286577
-0.00276771
-0.00230933
-0.00136053
-0.000341195
-0.000853687
0.00959762
-0.00952104
-0.000931217
0.00958582
-0.00950829
-0.00101041
0.0095648
-0.00948561
-0.00109145
0.00954663
-0.00946558
-0.00117485
0.00953175
-0.00944836
-0.0012609
0.00952161
-0.00943557
-0.00135002
0.0095167
-0.00942758
-0.00144266
0.00951822
-0.00942558
-0.00153948
0.00952742
-0.00943061
-0.00164126
0.00954637
-0.00944459
-0.00174894
0.00957779
-0.00947011
-0.00186315
0.00962544
-0.00951123
-0.00198461
0.00969144
-0.00956998
-0.00211109
0.00978027
-0.00965378
-0.00223622
0.00987491
-0.00974978
-0.00231539
0.00993729
-0.00985812
-0.00224785
0.00972017
-0.00978771
-0.00179554
0.00874135
-0.00919365
-0.000836426
0.00584912
-0.00680824
0.00147888
-0.00231531
-0.000865503
-0.000941274
-0.00101878
-0.00109784
-0.00117919
-0.00126291
-0.0013494
-0.00143899
-0.00153216
-0.00162954
-0.00173193
-0.00184013
-0.00195462
-0.00207158
-0.00217674
-0.00221045
-0.00205151
-0.00150406
-0.000573694
-0.000767369
0.00950356
-0.009484
-0.000788581
0.00948928
-0.00946807
-0.000811956
0.00946461
-0.00944123
-0.000837728
0.00944232
-0.00941654
-0.000866235
0.00942268
-0.00939417
-0.000897874
0.00940702
-0.00937538
-0.000933122
0.00939581
-0.00936056
-0.000972518
0.00939019
-0.0093508
-0.00101672
0.00939108
-0.00934688
-0.00106665
0.00940016
-0.00935022
-0.00112353
0.00941989
-0.00936302
-0.00118849
0.00945417
-0.00938921
-0.00126348
0.00950501
-0.00943002
-0.0013491
0.00958013
-0.00949451
-0.00144774
0.00966951
-0.00957087
-0.00154537
0.00978753
-0.0096899
-0.00160569
0.00978109
-0.00972077
-0.00144819
0.00942025
-0.00957776
-0.000855453
0.00739886
-0.00799159
0.00295011
-0.00380557
-0.000780037
-0.000799041
-0.000820045
-0.000843314
-0.000868994
-0.000897538
-0.000929306
-0.00096469
-0.00100422
-0.00104865
-0.00109887
-0.00115592
-0.0012209
-0.00129455
-0.00137482
-0.00144541
-0.00145203
-0.00122543
-0.000634805
-0.000652191
0.00952348
-0.00956063
-0.000617675
0.00950507
-0.00953959
-0.000585458
0.0094763
-0.00950852
-0.000556281
0.00944857
-0.00947775
-0.0005302
0.00942355
-0.00944963
-0.000507899
0.0094013
-0.0094236
-0.00049004
0.00938272
-0.00940058
-0.000476786
0.00936879
-0.00938205
-0.000469098
0.00936011
-0.0093678
-0.000468324
0.00935769
-0.00935847
-0.000475685
0.00936388
-0.00935652
-0.00049297
0.00938174
-0.00936445
-0.000522002
0.00941358
-0.00938455
-0.000567176
0.00946422
-0.00941904
-0.000630212
0.00952862
-0.00946558
-0.000721294
0.00962322
-0.00953214
-0.000820905
0.00966027
-0.00956066
-0.000863943
0.00958169
-0.00953865
-0.000623195
0.00822618
-0.00846692
0.00423424
-0.00485743
-0.000664662
-0.000627662
-0.000592595
-0.000560566
-0.000531181
-0.000505269
-0.000483109
-0.000465111
-0.000451876
-0.000444405
-0.000443543
-0.000451016
-0.000467451
-0.000497742
-0.000539996
-0.000606677
-0.000667182
-0.000663251
-0.000428669
-0.000516126
0.00965489
-0.00974666
-0.000428372
0.00963016
-0.00971791
-0.000342915
0.00959746
-0.00968292
-0.000260829
0.00956314
-0.00964522
-0.000181472
0.00953238
-0.00961173
-0.000106223
0.0095025
-0.00957775
-3.55728e-05
0.00947546
-0.00954611
2.89315e-05
0.00945073
-0.00951524
8.57386e-05
0.00943027
-0.00948708
0.000134812
0.00941411
-0.00946319
0.000174549
0.00940432
-0.00944406
0.000202692
0.00940255
-0.00943069
0.000216628
0.00941176
-0.0094257
0.000210916
0.00942958
-0.00942387
0.000181926
0.00945976
-0.00943077
0.000109919
0.00948542
-0.00941342
1.21864e-05
0.00949271
-0.00939498
-0.000179208
0.00938639
-0.00919499
-0.00019886
0.00844054
-0.00842089
0.0048718
-0.00507066
-0.000527106
-0.000436538
-0.000347594
-0.000262208
-0.000179465
-0.000100566
-2.56911e-05
4.29914e-05
0.000105464
0.000161109
0.000208915
0.00024701
0.000274216
0.000284752
0.000278932
0.000232217
0.000164269
1.20062e-05
-1.4372e-05
-0.000369012
0.00989185
-0.0100313
-0.000232312
0.00985719
-0.00999389
-9.59173e-05
0.00982227
-0.00995866
3.5057e-05
0.00977971
-0.00991069
0.000159694
0.00974136
-0.00986599
0.000279368
0.00970305
-0.00982272
0.000393017
0.00966629
-0.00977994
0.000500134
0.00963013
-0.00973724
0.000599721
0.00959581
-0.0096954
0.000690247
0.00956435
-0.00965487
0.000770059
0.0095363
-0.00961611
0.000836847
0.00951205
-0.00957884
0.000886916
0.00949278
-0.00954285
0.000914569
0.00947172
-0.00949938
0.000909458
0.00944907
-0.00944396
0.000853907
0.00938617
-0.00933062
0.000720416
0.00929576
-0.00916227
0.000449434
0.00895746
-0.00868647
0.000128634
0.00813516
-0.00781436
0.0046766
-0.00454796
-0.000376048
-0.000236766
-9.7419e-05
3.70707e-05
0.000166694
0.000291994
0.000412174
0.000527063
0.000635791
0.000736953
0.000829196
0.000910555
0.000977642
0.0010255
0.0010438
0.00101655
0.000917333
0.000679795
0.000394066
0.00378759
3.71275e-06
-2.88521e-06
0.00378837
-1.08338e-07
-6.72647e-07
0.0037858
1.25294e-05
-9.96366e-06
0.0037857
1.00625e-05
-9.95926e-06
0.00378171
2.05301e-05
-1.65428e-05
0.00377957
2.9511e-05
-2.73703e-05
0.00377283
3.63818e-05
-2.96394e-05
0.00376628
6.8253e-05
-6.17034e-05
0.00375409
6.87736e-05
-5.6585e-05
0.00373806
0.000146589
-0.000130557
0.00371439
0.000138163
-0.000114495
0.00367786
0.000308997
-0.000272467
0.00362827
0.000294006
-0.000244414
0.0035454
0.000666567
-0.0005837
0.00343071
0.000675057
-0.000560361
0.00323128
0.00155567
-0.00135624
0.00292085
0.00177897
-0.00146854
0.00236625
0.00431921
-0.00376461
0.00136255
0.00607812
-0.00507442
0.015356
-0.0139934
0.0037876
4.52413e-06
0.0037883
-8.01243e-07
0.00378585
1.49791e-05
0.00378565
1.02618e-05
0.00378175
2.44269e-05
0.00377953
3.17279e-05
0.0037728
4.31152e-05
0.0037662
7.48484e-05
0.00375379
8.11842e-05
0.00373777
0.00016261
0.00371326
0.000162675
0.00367684
0.000345413
0.00362478
0.000346071
0.00354226
0.000749082
0.00342082
0.000796499
0.0032231
0.00175339
0.00289591
0.00210615
0.00235802
0.00485711
0.00135196
0.00708418
0.0167079
0.00432155
2.14512e-06
-1.52752e-06
0.00432178
1.13608e-06
-1.36461e-06
0.00431977
7.65305e-06
-5.64444e-06
0.0043187
9.23754e-06
-8.1635e-06
0.00431548
1.28906e-05
-9.67102e-06
0.00431181
2.41936e-05
-2.05279e-05
0.00430622
2.33796e-05
-1.77854e-05
0.0042973
5.34497e-05
-4.45324e-05
0.0042869
4.51182e-05
-3.47135e-05
0.00426724
0.000111764
-9.21066e-05
0.00424654
9.19927e-05
-7.12929e-05
0.00420449
0.000231505
-0.000189452
0.00416049
0.000197062
-0.000153062
0.00406911
0.000493786
-0.000402408