/*--------------------------------*- C++ -*----------------------------------*\
  =========                 |
  \\      /  F ield         | OpenFOAM: The Open Source CFD Toolbox
   \\    /   O peration     | Website:  https://openfoam.org
    \\  /    A nd           | Version:  7
     \\/     M anipulation  |
\*---------------------------------------------------------------------------*/
FoamFile
{
    version     2.0;
    format      ascii;
    class       volVectorField;
    location    "92";
    object      U;
}
// * * * * * * * * * * * * * * * * * * * * * * * * * * * * * * * * * * * * * //

dimensions      [0 1 -1 0 0 0 0];

internalField   nonuniform List<vector> 
7360
(
(-0.316264 -1.96251e-05 4.97318e-20)
(-0.316343 -8.40236e-05 1.66851e-19)
(-0.316565 -0.000184881 2.30854e-19)
(-0.316968 -0.000269332 1.01079e-18)
(-0.317488 -0.000319518 -4.1149e-19)
(-0.318059 -0.000329508 9.66983e-19)
(-0.318614 -0.000299363 7.93252e-19)
(-0.319093 -0.000233675 -6.6237e-19)
(-0.319443 -0.000138847 1.7541e-18)
(-0.319624 -2.12585e-05 2.67755e-18)
(-0.319609 0.000110893 2.50212e-19)
(-0.319372 0.000255011 1.93865e-18)
(-0.318901 0.000405489 2.07988e-18)
(-0.31819 0.000558481 2.90087e-18)
(-0.317237 0.000710934 5.43115e-19)
(-0.316047 0.000860323 2.90968e-18)
(-0.314625 0.00100462 6.89814e-18)
(-0.312981 0.0011422 -1.40826e-18)
(-0.311126 0.00127181 4.4832e-18)
(-0.309074 0.00139242 8.35536e-18)
(-0.306838 0.00150325 -9.1536e-19)
(-0.304435 0.00160365 5.68282e-19)
(-0.301882 0.00169311 5.78272e-18)
(-0.299194 0.00177121 -1.3969e-18)
(-0.296391 0.00183764 1.64286e-18)
(-0.29349 0.00189215 6.94918e-18)
(-0.29051 0.00193461 1.06441e-18)
(-0.287471 0.00196498 5.52394e-18)
(-0.28439 0.00198332 1.06374e-17)
(-0.281287 0.00198983 -5.48937e-19)
(-0.27818 0.00198485 3.23842e-18)
(-0.275087 0.00196881 2.12854e-18)
(-0.272025 0.00194229 -8.14009e-19)
(-0.269009 0.00190597 4.19532e-18)
(-0.266056 0.00186063 1.20118e-18)
(-0.263178 0.0018071 3.49893e-19)
(-0.260389 0.00174628 3.25836e-18)
(-0.257699 0.0016791 1.11533e-18)
(-0.255117 0.00160649 4.06801e-18)
(-0.252653 0.00152939 1.9362e-18)
(-0.250312 0.00144872 2.15781e-18)
(-0.2481 0.00136535 9.50819e-18)
(-0.24602 0.00128012 3.64772e-18)
(-0.244076 0.00119384 1.68622e-18)
(-0.242269 0.00110724 2.52306e-19)
(-0.240598 0.00102102 -3.97849e-18)
(-0.239063 0.000935788 7.54703e-18)
(-0.237662 0.000852135 3.9698e-19)
(-0.236392 0.00077057 -2.50557e-18)
(-0.235249 0.000691547 9.29865e-18)
(-0.234229 0.000615459 3.67955e-18)
(-0.233326 0.000542648 -2.32669e-18)
(-0.232536 0.000473399 -7.49711e-19)
(-0.231852 0.000407952 3.32875e-18)
(-0.231268 0.000346499 3.2561e-19)
(-0.230776 0.000289193 2.39139e-18)
(-0.230371 0.000236151 1.59041e-18)
(-0.230044 0.000187466 7.72308e-18)
(-0.229789 0.000143208 4.27114e-18)
(-0.229598 0.000103431 7.97576e-19)
(-0.229463 6.82054e-05 7.00882e-18)
(-0.229379 3.75886e-05 8.17414e-18)
(-0.229336 1.15877e-05 3.45673e-18)
(-0.229328 -1.3188e-05 -1.45668e-19)
(-0.229346 -3.24009e-05 -3.83986e-18)
(-0.229383 -4.54231e-05 -6.84612e-18)
(-0.229431 -5.36776e-05 -9.28476e-19)
(-0.229484 -5.71955e-05 1.53202e-18)
(-0.229531 -5.57433e-05 3.24829e-18)
(-0.229566 -4.85089e-05 -3.84681e-19)
(-0.229579 -3.30087e-05 -5.39963e-18)
(-0.229562 -8.99009e-06 -4.01113e-18)
(-0.229503 1.93259e-05 -2.10131e-18)
(-0.22939 5.36079e-05 -6.61489e-18)
(-0.229212 9.61919e-05 1.77738e-18)
(-0.228955 0.000148626 -9.26105e-19)
(-0.228604 0.000212157 -3.69403e-18)
(-0.22814 0.000288283 -3.47529e-19)
(-0.227543 0.000378886 1.19063e-18)
(-0.226789 0.000486256 -2.14027e-18)
(-0.225851 0.000613226 -1.14385e-18)
(-0.224696 0.00076331 5.06608e-19)
(-0.223286 0.000940895 -1.10409e-17)
(-0.221573 0.00115152 -5.18588e-18)
(-0.219503 0.00140221 -5.31159e-18)
(-0.217008 0.00170204 9.97783e-19)
(-0.214003 0.00206278 -1.64453e-18)
(-0.21039 0.0024999 8.21609e-18)
(-0.206027 0.00303441 1.23058e-17)
(-0.200781 0.00369282 1.7731e-19)
(-0.194363 0.00451884 2.14656e-17)
(-0.186685 0.00554408 6.09524e-18)
(-0.176971 0.00690625 8.7408e-18)
(-0.165655 0.00850617 6.27908e-18)
(-0.15024 0.010954 -3.02213e-18)
(-0.133277 0.0132051 1.25032e-19)
(-0.108493 0.0177874 1.03424e-17)
(-0.0813501 0.0197765 -1.04711e-17)
(-0.0465201 0.0235511 1.46442e-17)
(-0.0106307 0.0173669 -3.07851e-19)
(-0.319454 -6.17199e-06 -4.03277e-20)
(-0.319519 -2.71624e-05 7.38521e-20)
(-0.319718 -5.99356e-05 -2.29261e-19)
(-0.320083 -8.75667e-05 -4.95714e-20)
(-0.320561 -0.000104023 2.79289e-20)
(-0.321086 -0.000107258 -1.02085e-18)
(-0.321597 -9.71992e-05 5.48379e-19)
(-0.322032 -7.52809e-05 -1.95217e-19)
(-0.322341 -4.3571e-05 1.2624e-18)
(-0.322483 -4.0922e-06 -2.17008e-19)
(-0.322429 4.01964e-05 1.96172e-19)
(-0.322154 8.84608e-05 -4.32502e-19)
(-0.321645 0.000138917 -4.3527e-19)
(-0.320896 0.000190258 -3.35687e-19)
(-0.319905 0.000241426 -1.29129e-18)
(-0.318676 0.000291537 -1.17909e-18)
(-0.317215 0.00033988 -1.00344e-18)
(-0.31553 0.000385887 -3.78949e-18)
(-0.313635 0.000429112 3.57965e-18)
(-0.311541 0.000469204 4.52611e-18)
(-0.309264 0.000505889 -1.42595e-18)
(-0.306819 0.000538955 1.25394e-18)
(-0.304222 0.000568238 1.24273e-18)
(-0.301492 0.000593614 1.07137e-18)
(-0.298646 0.000614996 -3.80757e-18)
(-0.295703 0.000632328 7.01755e-18)
(-0.292681 0.000645582 5.02223e-18)
(-0.2896 0.000654774 4.77808e-18)
(-0.286479 0.000659954 5.19604e-18)
(-0.283335 0.000661212 8.87159e-19)
(-0.280189 0.000658678 -7.08747e-19)
(-0.277058 0.000652523 -4.31905e-18)
(-0.273958 0.000642955 -1.43988e-18)
(-0.270907 0.000630213 4.047e-18)
(-0.26792 0.000614567 7.05034e-18)
(-0.265009 0.000596305 -2.94239e-19)
(-0.262189 0.000575731 1.4147e-18)
(-0.259469 0.000553153 -1.25264e-18)
(-0.25686 0.000528882 -1.94358e-18)
(-0.25437 0.000503223 2.31703e-19)
(-0.252006 0.000476471 3.27455e-18)
(-0.249773 0.000448906 6.13372e-18)
(-0.247676 0.000420793 6.80504e-18)
(-0.245716 0.000392377 -2.82973e-19)
(-0.243895 0.000363885 -9.70334e-20)
(-0.242213 0.000335518 -5.51425e-18)
(-0.24067 0.000307473 4.04856e-18)
(-0.239264 0.000279905 -2.01886e-18)
(-0.237992 0.000252958 -1.30235e-18)
(-0.23685 0.000226758 2.80723e-18)
(-0.235833 0.000201411 8.17615e-19)
(-0.234938 0.000177007 -2.76201e-18)
(-0.234158 0.000153622 -5.94148e-18)
(-0.233487 0.000131317 6.67574e-18)
(-0.232919 0.000110143 7.19387e-18)
(-0.232447 9.01429e-05 6.50228e-18)
(-0.232064 7.13532e-05 2.06648e-18)
(-0.231763 5.38093e-05 9.20034e-18)
(-0.231537 3.75525e-05 -4.27149e-18)
(-0.231378 2.26286e-05 -4.98774e-18)
(-0.231279 9.1675e-06 6.08362e-18)
(-0.231232 -2.73158e-06 1.1652e-17)
(-0.231232 -1.38623e-05 4.57848e-18)
(-0.231269 -2.36337e-05 -7.14505e-18)
(-0.231335 -3.20635e-05 -4.34693e-18)
(-0.231423 -3.93493e-05 -4.06739e-18)
(-0.231525 -4.48332e-05 -1.04006e-17)
(-0.231634 -4.81013e-05 3.96921e-18)
(-0.231742 -4.90806e-05 2.48192e-18)
(-0.23184 -4.82182e-05 4.92231e-19)
(-0.23192 -4.66043e-05 -1.14469e-18)
(-0.23197 -4.27937e-05 -7.3584e-18)
(-0.231983 -3.46859e-05 -1.95663e-18)
(-0.231945 -2.44162e-05 -1.59884e-18)
(-0.231844 -1.16645e-05 -5.88388e-18)
(-0.231666 4.63416e-06 -6.72175e-18)
(-0.231397 2.49693e-05 -8.73607e-18)
(-0.231016 4.98488e-05 -6.59459e-19)
(-0.230505 7.99082e-05 1.34816e-18)
(-0.229839 0.000115919 -3.78763e-20)
(-0.228989 0.000158833 -6.77926e-19)
(-0.227922 0.000209829 8.58104e-18)
(-0.2266 0.000270385 -9.79288e-19)
(-0.224973 0.000342371 -9.54944e-18)
(-0.222986 0.000428172 -4.17032e-18)
(-0.22057 0.000530867 7.85078e-18)
(-0.217636 0.000654485 1.36587e-18)
(-0.214083 0.000804264 6.9424e-18)
(-0.209764 0.000987446 7.89107e-18)
(-0.204541 0.00121281 1.55007e-18)
(-0.198113 0.00149569 7.35853e-18)
(-0.190381 0.00184544 1.52786e-17)
(-0.180549 0.00231204 3.39881e-18)
(-0.169012 0.00286074 1.18994e-17)
(-0.153286 0.00371081 -5.11034e-18)
(-0.135718 0.00447994 -1.0318e-18)
(-0.11029 0.00604903 1.13524e-17)
(-0.0819921 0.0067314 -4.9169e-18)
(-0.0458511 0.00794839 -1.50764e-18)
(-0.0101158 0.00578644 -4.92544e-20)
(-0.300981 -6.60419e-05 -3.79246e-20)
(-0.301148 -0.000239983 5.42879e-19)
(-0.301503 -0.000505258 3.3877e-20)
(-0.302102 -0.000719123 1.16152e-18)
(-0.302837 -0.000843956 1.61708e-19)
(-0.303627 -0.000869283 4.41102e-20)
(-0.304397 -0.000798444 -6.82792e-19)
(-0.30508 -0.000644447 -2.57681e-18)
(-0.305625 -0.000423313 1.25125e-18)
(-0.305994 -0.000151024 8.85697e-19)
(-0.306159 0.000155778 -2.49302e-18)
(-0.306103 0.000487002 5.33552e-19)
(-0.30581 0.000831999 -2.20129e-18)
(-0.305278 0.00118223 3.30953e-18)
(-0.304506 0.00153086 -1.614e-18)
(-0.303499 0.00187229 9.29727e-19)
(-0.302264 0.00220206 2.07399e-18)
(-0.30081 0.00251665 -4.29635e-18)
(-0.299149 0.00281325 3.14141e-18)
(-0.297293 0.00308964 -1.38281e-19)
(-0.295256 0.00334406 1.42016e-18)
(-0.293053 0.00357505 3.73098e-18)
(-0.290701 0.00378142 -8.40339e-19)
(-0.288215 0.00396219 -4.48067e-18)
(-0.285613 0.00411658 2.44308e-18)
(-0.282912 0.00424397 1.49921e-18)
(-0.280131 0.00434398 5.16831e-18)
(-0.277287 0.00441643 6.5759e-18)
(-0.274399 0.00446142 3.78165e-18)
(-0.271485 0.00447935 5.31707e-18)
(-0.268562 0.00447091 1.81299e-18)
(-0.265648 0.00443711 -2.37345e-18)
(-0.262759 0.00437922 -4.64335e-18)
(-0.259911 0.00429879 -8.93479e-19)
(-0.257117 0.00419757 4.78243e-18)
(-0.254392 0.00407752 9.60191e-19)
(-0.251747 0.00394068 4.43153e-18)
(-0.249191 0.00378921 2.39399e-18)
(-0.246736 0.00362528 3.5402e-19)
(-0.244387 0.00345104 1.26177e-18)
(-0.242151 0.00326863 -2.29701e-18)
(-0.240032 0.00308008 3.36941e-18)
(-0.238035 0.00288737 -3.06027e-19)
(-0.236161 0.00269235 1.33786e-18)
(-0.234411 0.00249675 -2.10573e-18)
(-0.232784 0.00230218 4.72333e-18)
(-0.23128 0.00211011 4.96206e-18)
(-0.229896 0.00192191 -7.88727e-19)
(-0.228629 0.00173878 6.39532e-18)
(-0.227474 0.00156179 -3.30436e-19)
(-0.226427 0.00139186 6.11963e-18)
(-0.225484 0.00122982 4.93308e-18)
(-0.224637 0.00107633 2.18138e-18)
(-0.223881 0.000931949 -6.67487e-19)
(-0.223209 0.00079714 2.10328e-18)
(-0.222615 0.000672251 7.92688e-19)
(-0.222091 0.00055755 6.26172e-18)
(-0.22163 0.000453231 -2.32972e-19)
(-0.221224 0.000359428 1.0185e-18)
(-0.220868 0.000276227 5.68782e-18)
(-0.220552 0.000203681 9.98725e-19)
(-0.22027 0.000141836 -3.83884e-19)
(-0.220015 9.06383e-05 -6.33419e-18)
(-0.219777 5.17462e-05 2.96039e-19)
(-0.21955 2.24021e-05 7.1797e-18)
(-0.219328 2.65002e-06 9.18318e-19)
(-0.219104 -5.87885e-06 -1.93711e-18)
(-0.218868 -2.66672e-06 5.68537e-18)
(-0.218613 1.28404e-05 1.68319e-18)
(-0.218328 4.15452e-05 1.45072e-18)
(-0.218006 8.11587e-05 8.87128e-18)
(-0.217639 0.000133466 8.69075e-18)
(-0.217217 0.000203469 8.85399e-18)
(-0.216729 0.000291557 6.30307e-18)
(-0.216161 0.000398925 1.83831e-18)
(-0.215502 0.000528054 1.16611e-17)
(-0.214737 0.000681954 1.12961e-17)
(-0.213848 0.000864167 5.44434e-18)
(-0.212817 0.00107904 6.14393e-18)
(-0.211622 0.00133183 -4.2408e-19)
(-0.210237 0.00162899 -3.35954e-18)
(-0.208633 0.00197853 -5.36976e-19)
(-0.206775 0.00239039 -5.27021e-18)
(-0.204623 0.00287707 -3.81212e-18)
(-0.202128 0.00345436 -5.56194e-18)
(-0.199233 0.00414259 -4.64599e-18)
(-0.195865 0.00496794 4.35499e-18)
(-0.191943 0.00596492 8.09882e-18)
(-0.187351 0.00717956 1.42602e-18)
(-0.181986 0.00867182 8.5871e-18)
(-0.175615 0.0105327 1.62251e-17)
(-0.168203 0.0128449 5.17181e-18)
(-0.159084 0.0158735 8.80432e-18)
(-0.148853 0.0194582 1.35229e-17)
(-0.135039 0.0248314 5.59314e-18)
(-0.121079 0.0297443 8.74922e-18)
(-0.0995593 0.0397865 8.20586e-18)
(-0.0784638 0.0432088 1.98914e-18)
(-0.0496321 0.0520434 9.0438e-19)
(-0.0128597 0.03521 5.88382e-18)
(-0.310016 -3.85923e-05 -1.34843e-20)
(-0.310128 -0.000153669 4.84705e-19)
(-0.310401 -0.000331574 -3.07875e-19)
(-0.31088 -0.000478583 1.19594e-18)
(-0.311486 -0.000565877 8.24017e-19)
(-0.312146 -0.000584441 1.37283e-18)
(-0.312788 -0.000535245 1.46059e-18)
(-0.313351 -0.000426585 -2.16073e-18)
(-0.313781 -0.000269406 5.42565e-19)
(-0.31404 -7.46455e-05 2.82035e-18)
(-0.314099 0.000144915 -3.58126e-19)
(-0.313937 0.000382954 7.03281e-19)
(-0.313539 0.000631428 -3.46521e-20)
(-0.312902 0.000884126 1.86093e-18)
(-0.312024 0.00113599 2.03848e-18)
(-0.310909 0.00138289 3.64998e-18)
(-0.309564 0.00162149 5.94991e-18)
(-0.307998 0.00184918 -3.6443e-18)
(-0.306222 0.00206388 4.31675e-18)
(-0.304251 0.00226394 3.0463e-18)
(-0.302097 0.00244803 3.28134e-18)
(-0.299776 0.00261509 1.84212e-18)
(-0.297305 0.00276424 -1.03065e-18)
(-0.294701 0.00289478 8.5968e-19)
(-0.29198 0.00300613 1.22944e-18)
(-0.289162 0.00309785 5.46016e-18)
(-0.286264 0.00316968 5.39037e-18)
(-0.283305 0.00322149 4.35824e-18)
(-0.280304 0.00325337 7.97244e-18)
(-0.277279 0.0032656 2.39879e-18)
(-0.274248 0.00325869 1.90893e-18)
(-0.271229 0.00323336 2.15528e-19)
(-0.268238 0.00319054 -1.69862e-18)
(-0.265292 0.00313133 8.04697e-19)
(-0.262405 0.003057 4.8548e-18)
(-0.25959 0.00296895 1.18436e-18)
(-0.256861 0.00286866 -5.99087e-19)
(-0.254227 0.00275768 3.85455e-18)
(-0.251698 0.00263756 4.74816e-18)
(-0.249282 0.00250986 4.61309e-18)
(-0.246985 0.00237611 3.41796e-18)
(-0.244812 0.00223778 4.4324e-18)
(-0.242768 0.00209629 1.57223e-18)
(-0.240854 0.00195297 4.21589e-18)
(-0.239071 0.00180908 -8.55883e-20)
(-0.23742 0.00166577 3.48451e-18)
(-0.235899 0.00152411 1.0201e-18)
(-0.234506 0.00138508 -2.68986e-20)
(-0.233239 0.00124955 4.51869e-18)
(-0.232093 0.00111831 6.54892e-18)
(-0.231063 0.000992026 7.24639e-18)
(-0.230146 0.000871293 5.18825e-18)
(-0.229334 0.000756609 4.60767e-18)
(-0.228623 0.000648391 5.03276e-18)
(-0.228005 0.000546978 5.15946e-18)
(-0.227473 0.00045264 1.63675e-18)
(-0.227021 0.000365589 2.61562e-18)
(-0.226642 0.000285986 2.60656e-18)
(-0.226327 0.000213956 1.79315e-18)
(-0.226071 0.000149594 6.33098e-18)
(-0.225865 9.29947e-05 3.20687e-18)
(-0.225702 4.41995e-05 -1.60601e-18)
(-0.225573 3.14752e-06 3.3841e-18)
(-0.225474 -3.05077e-05 4.95187e-18)
(-0.225396 -5.88827e-05 6.25833e-18)
(-0.225331 -8.02484e-05 -9.56071e-19)
(-0.225271 -9.24277e-05 -6.14366e-18)
(-0.225207 -9.49036e-05 1.44839e-18)
(-0.225134 -8.74544e-05 6.71707e-18)
(-0.225043 -6.99679e-05 -3.93599e-18)
(-0.224926 -4.50864e-05 5.77095e-19)
(-0.224769 -1.02154e-05 -3.91428e-18)
(-0.224563 3.39372e-05 -3.96289e-18)
(-0.224301 9.10235e-05 -3.09802e-19)
(-0.223968 0.000162896 -5.01864e-18)
(-0.223551 0.000250845 2.76819e-18)
(-0.223035 0.000356932 -3.53697e-18)
(-0.222402 0.00048374 1.38283e-18)
(-0.221633 0.00063446 2.3897e-18)
(-0.220703 0.000812953 -7.53244e-18)
(-0.219588 0.00102398 -2.35922e-18)
(-0.218254 0.00127344 -6.82619e-18)
(-0.216666 0.00156866 -1.304e-17)
(-0.214779 0.00191887 -4.21388e-18)
(-0.21254 0.00233577 -1.12988e-17)
(-0.209887 0.00283437 -2.29347e-18)
(-0.206738 0.00343409 -7.25623e-18)
(-0.203003 0.00416038 -3.67035e-18)
(-0.198549 0.00504759 3.74106e-18)
(-0.193257 0.00613906 -4.75776e-18)
(-0.186858 0.00750492 1.09607e-17)
(-0.179285 0.00919923 -3.50512e-18)
(-0.169803 0.0114433 -3.42026e-18)
(-0.15891 0.0140872 5.69265e-18)
(-0.144121 0.0181166 -7.05396e-18)
(-0.12835 0.0217738 1.95138e-18)
(-0.104869 0.0292754 -2.68152e-18)
(-0.0801236 0.032168 -1.07739e-17)
(-0.0479786 0.0383295 4.33575e-18)
(-0.0117227 0.026932 -5.00656e-18)
(-0.276171 -0.000170819 -1.0784e-19)
(-0.276559 -0.000508202 2.36672e-19)
(-0.27719 -0.000993449 8.39488e-19)
(-0.278158 -0.00135912 7.51263e-19)
(-0.279273 -0.00156073 -7.3077e-19)
(-0.280429 -0.00159408 -6.71138e-19)
(-0.281544 -0.00147343 -1.83297e-19)
(-0.282551 -0.00122446 -2.06627e-18)
(-0.283401 -0.000874551 -2.70432e-19)
(-0.284061 -0.000449525 1.39399e-18)
(-0.284508 3.07602e-05 -3.66366e-18)
(-0.284729 0.000536315 -1.40684e-19)
(-0.284716 0.00106289 2.39965e-20)
(-0.284465 0.00159605 -1.67735e-18)
(-0.283979 0.0021254 -3.46497e-18)
(-0.283262 0.00264292 1.52539e-19)
(-0.282323 0.0031422 -2.84199e-18)
(-0.28117 0.00361822 -4.57846e-18)
(-0.279814 0.00406699 -3.62689e-18)
(-0.278268 0.00448534 3.76073e-18)
(-0.276545 0.00487069 2.30346e-18)
(-0.274658 0.00522095 -2.10392e-18)
(-0.272623 0.00553434 -3.20783e-18)
(-0.270454 0.0058094 -2.20949e-18)
(-0.268167 0.00604491 -5.92858e-19)
(-0.26578 0.00623992 -3.74202e-18)
(-0.263309 0.00639378 1.34354e-18)
(-0.26077 0.00650622 2.67054e-18)
(-0.258181 0.00657738 6.33523e-19)
(-0.25556 0.00660785 6.08195e-18)
(-0.252922 0.00659871 1.56506e-18)
(-0.250283 0.00655152 1.02387e-18)
(-0.24766 0.00646828 -4.72278e-18)
(-0.245066 0.00635139 -1.67201e-18)
(-0.242515 0.00620358 2.28854e-19)
(-0.240019 0.00602783 3.70166e-19)
(-0.237589 0.0058273 1.39051e-18)
(-0.235234 0.00560524 8.29001e-19)
(-0.232962 0.00536496 -4.6496e-18)
(-0.23078 0.00510974 -2.82257e-18)
(-0.228692 0.0048428 -1.02861e-18)
(-0.226704 0.00456726 -9.24477e-19)
(-0.224817 0.00428607 -1.54189e-18)
(-0.223032 0.00400206 -3.8553e-19)
(-0.221349 0.00371784 2.42747e-18)
(-0.219768 0.00343585 1.59401e-18)
(-0.218287 0.00315831 1.28971e-18)
(-0.216902 0.00288727 -1.24038e-18)
(-0.215609 0.00262454 2.05338e-18)
(-0.214405 0.00237173 2.09557e-18)
(-0.213283 0.00213024 -1.31961e-19)
(-0.212239 0.00190125 -2.82647e-18)
(-0.211265 0.00168577 1.09102e-18)
(-0.210356 0.00148462 1.38664e-18)
(-0.209505 0.00129845 2.39909e-18)
(-0.208704 0.00112774 8.33e-19)
(-0.207947 0.000972876 8.20952e-18)
(-0.207225 0.000834087 8.60172e-18)
(-0.206532 0.000711525 1.8134e-18)
(-0.20586 0.000605257 1.54772e-18)
(-0.205202 0.000515295 -7.05704e-18)
(-0.20455 0.000441655 9.55136e-19)
(-0.203897 0.000384337 -7.90341e-18)
(-0.203235 0.000343768 -1.55569e-18)
(-0.202557 0.000319372 -1.15621e-19)
(-0.201856 0.000311201 5.95962e-20)
(-0.201124 0.000320042 -4.60236e-19)
(-0.200353 0.000346818 2.99947e-19)
(-0.199536 0.000392269 1.96286e-18)
(-0.198664 0.00045698 9.8669e-18)
(-0.197728 0.000541571 5.69411e-18)
(-0.196719 0.000647873 5.01827e-18)
(-0.195629 0.000778754 5.10009e-18)
(-0.194446 0.000936499 6.71414e-18)
(-0.19316 0.00112384 5.99439e-18)
(-0.191758 0.00134438 1.45723e-17)
(-0.190227 0.00160253 1.54246e-17)
(-0.188551 0.00190356 7.61476e-18)
(-0.186714 0.002254 1.83694e-17)
(-0.184698 0.00266158 4.09316e-18)
(-0.18248 0.00313588 1.15605e-18)
(-0.180037 0.00368862 -2.50715e-18)
(-0.177342 0.00433431 -1.00015e-17)
(-0.174364 0.00509108 -1.38313e-17)
(-0.171067 0.00598169 -1.22692e-17)
(-0.167411 0.00703517 -2.10954e-18)
(-0.163348 0.00828855 -9.66241e-18)
(-0.158826 0.00979038 3.22972e-18)
(-0.153777 0.0116037 -8.9973e-18)
(-0.148149 0.0138131 1.16984e-17)
(-0.141816 0.0165321 -2.73875e-18)
(-0.134825 0.0199 1.13105e-17)
(-0.126754 0.0242125 -4.16106e-19)
(-0.118389 0.0293993 1.20706e-17)
(-0.107567 0.0367816 5.83702e-19)
(-0.0988011 0.0436236 8.55494e-18)
(-0.0832882 0.0570987 8.76737e-19)
(-0.0736354 0.0600411 -1.44328e-17)
(-0.0531029 0.0742029 -1.24e-17)
(-0.0164126 0.042144 -3.70568e-18)
(-0.289537 -0.000108559 -5.55383e-20)
(-0.289794 -0.000356841 4.81584e-19)
(-0.290267 -0.000725541 3.27388e-19)
(-0.291029 -0.00101401 6.88151e-19)
(-0.291936 -0.00117883 -8.56223e-19)
(-0.292894 -0.00121074 -1.23824e-18)
(-0.293824 -0.00111739 -3.63472e-19)
(-0.294658 -0.000917557 -1.59226e-18)
(-0.295345 -0.000632683 1.40114e-19)
(-0.29585 -0.00028367 -7.87558e-19)
(-0.296148 0.000110583 -2.22202e-18)
(-0.296222 0.000530512 1.78067e-18)
(-0.296059 0.000967746 -5.58637e-19)
(-0.295658 0.00141136 2.63311e-18)
(-0.29502 0.00185264 -1.4205e-18)
(-0.294148 0.00228461 1.98619e-19)
(-0.29305 0.00270174 -1.71007e-19)
(-0.291737 0.00309964 -2.88273e-18)
(-0.290218 0.00347487 -7.37286e-19)
(-0.288506 0.00382469 3.76576e-18)
(-0.286615 0.00414687 1.61003e-18)
(-0.28456 0.0044396 7.31762e-19)
(-0.282355 0.00470139 -3.81472e-18)
(-0.280017 0.00493098 -5.4104e-18)
(-0.277562 0.00512735 -1.22357e-19)
(-0.275008 0.00528972 -9.53097e-19)
(-0.272372 0.00541754 2.01825e-18)
(-0.269671 0.0055106 6.16326e-18)
(-0.266923 0.00556899 2.06961e-18)
(-0.264146 0.00559322 4.16103e-18)
(-0.261356 0.00558415 1.52598e-18)
(-0.258572 0.00554305 -2.07041e-20)
(-0.255808 0.00547156 -3.13276e-18)
(-0.25308 0.00537164 -1.23971e-18)
(-0.250401 0.00524553 1.45191e-18)
(-0.247784 0.0050957 4.5985e-19)
(-0.245241 0.00492475 4.86766e-18)
(-0.242781 0.00473541 1.6443e-18)
(-0.240413 0.00453044 -4.2087e-18)
(-0.238145 0.00431258 -1.00894e-18)
(-0.235981 0.00408453 -1.1765e-18)
(-0.233926 0.00384891 -2.29079e-18)
(-0.231983 0.0036082 -3.83922e-18)
(-0.230154 0.00336477 -2.90987e-19)
(-0.228439 0.00312083 3.20449e-18)
(-0.226838 0.00287842 2.33822e-18)
(-0.225349 0.00263944 2.31368e-18)
(-0.223969 0.00240559 -3.76647e-18)
(-0.222694 0.00217842 5.60225e-18)
(-0.221522 0.0019593 1.10624e-18)
(-0.220446 0.0017494 2.15388e-18)
(-0.219461 0.00154974 -2.59449e-18)
(-0.218561 0.00136118 8.42793e-19)
(-0.217741 0.00118443 3.88594e-18)
(-0.216992 0.00102004 1.78374e-18)
(-0.216309 0.000868453 6.3882e-19)
(-0.215684 0.000729974 4.71477e-18)
(-0.215109 0.000604823 7.15089e-18)
(-0.214578 0.000493127 1.77298e-18)
(-0.214084 0.000394941 -1.63684e-18)
(-0.213618 0.000310253 -1.81218e-18)
(-0.213173 0.000239009 -1.42944e-19)
(-0.212743 0.000180936 -9.10988e-18)
(-0.212319 0.000136203 -1.21767e-18)
(-0.211894 0.000105822 2.07006e-18)
(-0.211461 8.97059e-05 6.24083e-19)
(-0.211012 8.6946e-05 -8.43259e-19)
(-0.21054 9.76251e-05 1.93818e-18)
(-0.210036 0.000122259 -4.00795e-18)
(-0.209493 0.000161824 8.57746e-18)
(-0.208901 0.000219367 1.09001e-17)
(-0.208251 0.000296248 1.10669e-17)
(-0.207534 0.000392798 1.14542e-17)
(-0.206739 0.000511139 -6.36309e-19)
(-0.205854 0.000654016 8.65451e-18)
(-0.204868 0.000824521 1.534e-17)
(-0.203765 0.00102637 1.65092e-17)
(-0.202529 0.00126405 1.21508e-17)
(-0.201143 0.00154309 1.55799e-17)
(-0.199587 0.00187014 3.10317e-18)
(-0.197836 0.00225337 -7.62158e-18)
(-0.195863 0.00270286 5.49848e-18)
(-0.193638 0.00323114 -4.33193e-18)
(-0.191124 0.0038539 -6.02261e-18)
(-0.188279 0.0045909 -6.53274e-18)
(-0.185051 0.0054675 -1.01213e-17)
(-0.181381 0.00651621 -2.90938e-18)
(-0.1772 0.00777972 3.64515e-18)
(-0.172414 0.00931434 -2.17585e-18)
(-0.166941 0.0111938 6.54541e-18)
(-0.160599 0.0135246 1.32565e-17)
(-0.153385 0.0164146 1.49876e-17)
(-0.144735 0.0201612 4.04377e-18)
(-0.135334 0.0246302 8.51273e-18)
(-0.122853 0.0311961 -5.83218e-18)
(-0.11123 0.0371623 -2.84452e-18)
(-0.0923934 0.049303 2.10903e-18)
(-0.0763493 0.0525752 -1.08942e-17)
(-0.0517338 0.0636525 -3.69338e-18)
(-0.0144807 0.0394719 3.07013e-19)
(-0.245945 -0.000382414 -4.84986e-20)
(-0.246765 -0.000962906 1.28547e-19)
(-0.247819 -0.00171161 6.60215e-19)
(-0.249301 -0.0022345 5.94157e-19)
(-0.2509 -0.0024945 -1.93976e-18)
(-0.252499 -0.00251367 -5.13713e-19)
(-0.254017 -0.00232616 -7.76962e-21)
(-0.255393 -0.00197294 -1.64696e-19)
(-0.256589 -0.00149311 1.72826e-19)
(-0.257581 -0.00092072 -1.58737e-18)
(-0.258349 -0.000282754 -2.89348e-18)
(-0.258888 0.000388784 -8.87734e-19)
(-0.259196 0.00107486 1.36793e-18)
(-0.259271 0.00176744 -3.1602e-18)
(-0.259116 0.00245387 -1.09117e-18)
(-0.258737 0.00312403 3.42433e-18)
(-0.258142 0.00377009 -2.74308e-18)
(-0.257339 0.00438587 -2.84443e-18)
(-0.256339 0.0049665 2.22672e-18)
(-0.255153 0.00550809 1.0518e-18)
(-0.253793 0.00600746 3.9366e-19)
(-0.252271 0.00646197 -1.69313e-19)
(-0.250602 0.00686937 -3.80114e-18)
(-0.248797 0.00722775 2.62787e-18)
(-0.246873 0.00753548 -3.26478e-18)
(-0.244844 0.00779129 -8.84954e-19)
(-0.242725 0.00799429 1.88437e-18)
(-0.240533 0.00814407 1.473e-18)
(-0.238282 0.00824078 -3.04324e-18)
(-0.235989 0.0082852 2.43253e-18)
(-0.233668 0.00827873 1.21083e-18)
(-0.231336 0.00822343 4.85081e-18)
(-0.229005 0.00812197 3.12429e-18)
(-0.226689 0.00797753 -3.59676e-18)
(-0.2244 0.00779376 -1.30722e-19)
(-0.222149 0.00757466 5.33833e-19)
(-0.219944 0.00732443 -3.18985e-18)
(-0.217796 0.00704744 1.88317e-19)
(-0.215709 0.00674806 -2.63197e-19)
(-0.213689 0.00643064 -5.73048e-18)
(-0.211741 0.00609943 -7.16992e-19)
(-0.209866 0.0057585 7.77714e-20)
(-0.208067 0.00541174 4.85696e-19)
(-0.206342 0.00506281 1.63774e-19)
(-0.204692 0.0047151 9.60023e-18)
(-0.203114 0.00437174 2.46253e-18)
(-0.201605 0.0040356 7.30111e-19)
(-0.200162 0.00370929 2.76196e-20)
(-0.198779 0.00339513 7.57036e-19)
(-0.197451 0.00309515 2.84344e-18)
(-0.196172 0.00281107 -4.59342e-19)
(-0.194937 0.00254436 -4.28398e-18)
(-0.193738 0.00229623 8.45646e-19)
(-0.192567 0.00206764 -1.92465e-18)
(-0.191419 0.00185932 2.03288e-18)
(-0.190284 0.00167181 9.22858e-19)
(-0.189156 0.00150547 4.0374e-18)
(-0.188028 0.00136052 3.08387e-18)
(-0.18689 0.00123705 1.63597e-18)
(-0.185736 0.00113507 3.06374e-18)
(-0.184557 0.00105453 -2.26512e-18)
(-0.183347 0.0009954 2.36128e-18)
(-0.182097 0.000957697 -5.25251e-19)
(-0.1808 0.000941653 -1.39209e-19)
(-0.179448 0.000947196 -5.64051e-18)
(-0.178034 0.000974567 -1.38878e-19)
(-0.176549 0.00102439 5.28371e-19)
(-0.174986 0.00109759 -6.01652e-18)
(-0.173337 0.00119517 -2.02758e-18)
(-0.171592 0.0013183 8.6255e-18)
(-0.169744 0.00146855 2.30415e-18)
(-0.167783 0.00164817 1.43911e-18)
(-0.1657 0.00186007 1.09509e-18)
(-0.163485 0.00210734 1.21083e-18)
(-0.161127 0.0023938 -3.71302e-18)
(-0.158615 0.00272413 1.08302e-17)
(-0.155936 0.003104 4.69642e-18)
(-0.153077 0.0035402 1.12587e-17)
(-0.150025 0.00404107 1.63841e-17)
(-0.146765 0.00461642 3.5674e-18)
(-0.14328 0.00527837 4.07916e-18)
(-0.139554 0.00604167 3.65853e-18)
(-0.135569 0.00692447 -9.19337e-19)
(-0.131305 0.00794925 3.73051e-18)
(-0.126745 0.00914402 -1.50849e-18)
(-0.121871 0.0105442 2.65348e-18)
(-0.116664 0.0121943 -2.53194e-19)
(-0.111116 0.0141522 4.18903e-18)
(-0.10522 0.0164915 1.12783e-18)
(-0.0989955 0.0193097 1.26321e-17)
(-0.0924591 0.0227268 -4.36808e-20)
(-0.085762 0.0269164 -1.56021e-18)
(-0.0788205 0.0320668 -4.44797e-18)
(-0.0725645 0.0383183 1.37036e-18)
(-0.0655708 0.046306 1.22561e-17)
(-0.0631125 0.0542825 2.0146e-18)
(-0.0557322 0.0668639 7.86965e-19)
(-0.0624139 0.0692628 -3.61358e-18)
(-0.0512043 0.0828323 -4.15228e-18)
(-0.0329726 0.0363765 -3.73197e-18)
(-0.261438 -0.000260848 -5.76582e-20)
(-0.262014 -0.000711586 3.34897e-19)
(-0.262841 -0.00132543 9.38503e-19)
(-0.264053 -0.00177186 1.18614e-18)
(-0.265402 -0.00200669 -1.56691e-18)
(-0.266776 -0.00203668 -5.98396e-19)
(-0.268091 -0.00188498 -1.01549e-19)
(-0.269281 -0.00158483 -7.59698e-19)
(-0.270304 -0.00116959 -1.11542e-19)
(-0.271128 -0.00066943 -2.28983e-20)
(-0.271735 -0.000107046 -4.12838e-18)
(-0.272115 0.000481521 -8.25663e-19)
(-0.272261 0.0010898 3.99093e-19)
(-0.272171 0.00170529 -1.7135e-18)
(-0.271849 0.00231592 -1.80256e-18)
(-0.2713 0.00291255 1.15375e-18)
(-0.27053 0.00348801 -1.75372e-18)
(-0.269551 0.00403665 -2.75627e-18)
(-0.268371 0.004554 -8.34264e-19)
(-0.267003 0.00503648 1.52479e-18)
(-0.26546 0.00548119 3.70581e-18)
(-0.263754 0.00588571 -3.07625e-19)
(-0.2619 0.00624802 -5.28181e-18)
(-0.259912 0.00656639 -2.96901e-19)
(-0.257806 0.00683939 -1.36968e-18)
(-0.255597 0.00706587 -1.881e-18)
(-0.253301 0.00724506 3.8255e-18)
(-0.250935 0.00737658 1.76136e-18)
(-0.248515 0.00746055 -7.56521e-19)
(-0.246058 0.00749766 5.72337e-18)
(-0.243579 0.00748915 1.48856e-18)
(-0.241094 0.00743684 2.31482e-18)
(-0.238618 0.00734309 -3.19794e-18)
(-0.236165 0.00721074 -2.18777e-18)
(-0.233747 0.00704302 -1.67881e-19)
(-0.231375 0.00684346 2.18226e-19)
(-0.229061 0.00661577 -5.03904e-19)
(-0.226812 0.0063638 2.8476e-19)
(-0.224636 0.00609142 -1.66966e-18)
(-0.222539 0.00580246 -5.99831e-18)
(-0.220526 0.00550067 -1.26642e-18)
(-0.218599 0.00518966 -3.82145e-19)
(-0.216762 0.00487287 -2.27716e-19)
(-0.215013 0.00455355 -2.28205e-19)
(-0.213354 0.0042347 4.32073e-18)
(-0.211783 0.00391913 1.73717e-18)
(-0.210296 0.00360939 8.44684e-19)
(-0.208891 0.0033078 -2.54424e-19)
(-0.207563 0.00301644 8.87991e-19)
(-0.206308 0.00273711 5.15874e-18)
(-0.20512 0.00247137 -3.00203e-18)
(-0.203993 0.00222055 -6.3473e-18)
(-0.20292 0.00198575 3.66652e-18)
(-0.201895 0.00176786 -5.54798e-20)
(-0.200911 0.00156756 5.31212e-18)
(-0.19996 0.00138534 1.19965e-18)
(-0.199036 0.00122157 8.05257e-18)
(-0.198129 0.00107646 4.78964e-18)
(-0.197234 0.000950097 1.57011e-18)
(-0.196343 0.000842506 5.85154e-18)
(-0.195447 0.00075364 -6.74371e-18)
(-0.19454 0.000683458 4.93058e-18)
(-0.193614 0.000631894 -2.47831e-18)
(-0.192661 0.000599242 -8.31653e-19)
(-0.191675 0.000585681 -2.05803e-18)
(-0.190647 0.000591428 -1.25324e-19)
(-0.189569 0.000616724 -1.37494e-19)
(-0.188435 0.000662165 -1.72453e-18)
(-0.187236 0.000728586 -5.69426e-18)
(-0.185964 0.00081713 5.70831e-18)
(-0.18461 0.000929598 3.3421e-18)
(-0.183165 0.0010679 2.3651e-18)
(-0.18162 0.00123425 2.4249e-18)
(-0.179964 0.00143128 2.5908e-18)
(-0.178187 0.00166236 7.13227e-18)
(-0.176277 0.00193165 9.24734e-18)
(-0.174221 0.00224415 7.55483e-18)
(-0.172006 0.00260588 7.1917e-18)
(-0.169615 0.00302422 1.87548e-17)
(-0.167031 0.00350798 4.24603e-18)
(-0.164238 0.00406796 9.18459e-18)
(-0.161213 0.00471746 8.42742e-18)
(-0.157934 0.00547284 -3.00308e-18)
(-0.154376 0.00635455 -1.17364e-17)
(-0.150511 0.00738818 -5.10893e-18)
(-0.14631 0.00860632 7.05928e-18)
(-0.14174 0.0100505 -2.3554e-18)
(-0.136769 0.0117749 1.0834e-17)
(-0.131359 0.0138502 -1.94251e-18)
(-0.125491 0.0163711 7.71818e-18)
(-0.11911 0.0194622 -9.28885e-19)
(-0.112314 0.0232884 -5.37353e-18)
(-0.104848 0.028109 -9.67918e-18)
(-0.0975559 0.0338999 3.5442e-18)
(-0.0886557 0.0417932 4.42037e-18)
(-0.0829986 0.0493 3.64101e-18)
(-0.0714899 0.0630846 1.02003e-18)
(-0.0695726 0.0655584 -6.64654e-18)
(-0.0536547 0.0806029 -7.47466e-18)
(-0.0209869 0.0402817 -1.11122e-17)
(1.30258 0.174282 1.45624e-18)
(1.30146 0.186051 2.65806e-18)
(1.29975 0.192669 -1.33668e-18)
(1.29844 0.201758 4.11443e-18)
(1.29773 0.210379 3.86007e-18)
(1.29772 0.219626 -1.40157e-18)
(1.29856 0.229066 -2.52982e-18)
(1.30042 0.238824 1.77488e-18)
(1.30356 0.248809 -6.10568e-19)
(1.30827 0.258981 6.32664e-19)
(1.31473 0.269138 1.08626e-18)
(1.32239 0.278683 3.2906e-19)
(1.32787 0.28578 -1.14976e-18)
(1.31934 0.284637 4.21597e-18)
(1.26822 0.26409 1.57511e-18)
(1.12722 0.211571 2.27793e-18)
(0.843836 0.127772 1.62218e-17)
(0.422036 0.0337198 3.33451e-18)
(0.0662029 0.0189951 1.98683e-17)
(-0.0598011 0.0237914 7.10467e-18)
(1.30598 0.175961 2.75451e-18)
(1.30502 0.187471 2.27043e-18)
(1.3034 0.193986 6.6292e-19)
(1.30226 0.203021 2.1363e-18)
(1.3017 0.211538 2.98508e-18)
(1.3019 0.220692 -7.10655e-21)