/*--------------------------------*- C++ -*----------------------------------*\
  =========                 |
  \\      /  F ield         | OpenFOAM: The Open Source CFD Toolbox
   \\    /   O peration     | Website:  https://openfoam.org
    \\  /    A nd           | Version:  10
     \\/     M anipulation  |
\*---------------------------------------------------------------------------*/
FoamFile
{
    format      ascii;
    class       volScalarField;
    location    "5";
    object      p;
}
// * * * * * * * * * * * * * * * * * * * * * * * * * * * * * * * * * * * * * //

dimensions      [0 2 -2 0 0 0 0];

internalField   nonuniform List<scalar> 
1200
(
0.00172739
0.00433766
0.0103754
0.00634194
0.0238576
0.00262066
0.0347148
-0.0286005
-0.020693
-0.175943
0.00173044
0.00432153
0.0103884
0.00630885
0.0239372
0.00266871
0.0351615
-0.0280241
-0.0190912
-0.172614
0.00173233
0.00430689
0.0103958
0.00627646
0.0240039
0.00269586
0.0355591
-0.0275015
-0.0176528
-0.169686
0.00173405
0.00429328
0.0104025
0.0062455
0.0240643
0.00271751
0.0359177
-0.0270162
-0.0162924
-0.16727
0.00173533
0.00428016
0.0104086
0.00621345
0.0241201
0.00272873
0.0362495
-0.0265607
-0.0150391
-0.16509
0.00173612
0.00426764
0.0104137
0.00618049
0.0241706
0.00272785
0.0365522
-0.0261412
-0.0138783
-0.16315
0.00173644
0.00425573
0.0104178
0.00614665
0.0242155
0.00271493
0.0368242
-0.025763
-0.0128077
-0.161449
0.00173628
0.00424444
0.0104208
0.00611219
0.0242552
0.00269136
0.0370648
-0.0254278
-0.0117933
-0.159976
0.00173575
0.00423443
0.0104228
0.00607908
0.0242905
0.00265779
0.0372796
-0.0251242
-0.0109555
-0.158726
0.00173424
0.00422185
0.0104236
0.00603219
0.0243161
0.00258492
0.0374531
-0.0249179
-0.00988389
-0.157636
-0.119715
-0.126877
-0.138135
-0.15439
-0.177748
-0.213395
-0.260117
-0.353274
-0.433211
-1.01216
-0.120089
-0.127652
-0.13875
-0.154914
-0.177897
-0.213262
-0.258027
-0.354577
-0.42881
-0.857605
-0.120329
-0.128464
-0.139683
-0.156313
-0.179791
-0.216542
-0.262572
-0.362306
-0.453819
-0.730029
-0.120408
-0.129154
-0.140534
-0.157733
-0.18173
-0.219898
-0.267414
-0.367358
-0.470949
-0.680828
-0.120305
-0.12962
-0.141056
-0.158683
-0.182856
-0.221814
-0.269982
-0.368515
-0.47773
-0.647002
-0.120023
-0.129853
-0.141234
-0.159142
-0.18321
-0.222468
-0.270755
-0.367701
-0.481027
-0.620824
-0.119576
-0.129876
-0.141118
-0.159204
-0.182982
-0.222187
-0.270186
-0.365245
-0.482142
-0.604464
-0.118981
-0.129711
-0.140749
-0.15893
-0.182273
-0.221147
-0.268676
-0.3619
-0.481913
-0.595574
-0.118246
-0.12937
-0.140136
-0.158323
-0.18106
-0.219204
-0.265674
-0.356134
-0.476816
-0.590305
-0.117409
-0.128885
-0.139363
-0.157516
-0.179621
-0.21691
-0.26255
-0.352031
-0.475202
-0.594441
-0.100104
-0.100823
-0.111377
-0.12276
-0.142427
-0.170699
-0.1984
-0.242381
-0.273683
-0.271359
-0.106265
-0.10833
-0.11994
-0.133241
-0.155116
-0.186452
-0.218576
-0.267157
-0.309801
-0.309414
-0.109696
-0.112532
-0.124136
-0.138137
-0.160259
-0.192667
-0.228096
-0.281693
-0.339588
-0.353485
-0.111447
-0.114882
-0.126346
-0.140813
-0.163197
-0.196683
-0.235709
-0.295322
-0.368207
-0.403024
-0.112881
-0.116952
-0.128469
-0.143531
-0.166561
-0.201392
-0.24403
-0.309875
-0.396368
-0.458589
-0.114419
-0.119154
-0.130811
-0.146489
-0.170198
-0.20621
-0.251908
-0.323736
-0.422013
-0.520844
-0.115941
-0.121304
-0.133053
-0.149221
-0.17339
-0.210179
-0.258187
-0.33571
-0.443996
-0.594655
-0.117271
-0.123197
-0.134953
-0.151446
-0.175841
-0.21305
-0.262637
-0.345583
-0.459073
-0.677335
-0.118341
-0.124763
-0.136459
-0.153115
-0.17753
-0.214787
-0.265059
-0.35272
-0.467421
-0.785489
-0.119158
-0.126014
-0.13758
-0.154231
-0.178434
-0.215394
-0.26525
-0.356574
-0.457143
-0.893708
0.0522221
0.0464856
0.0570125
0.0453329
0.0674624
0.0486498
0.101787
0.069608
0.254838
0.254361
0.0522107
0.046509
0.0569788
0.0454221
0.0674297
0.0490371
0.10183
0.071672
0.256743
0.249758
0.0521974
0.0465239
0.0569504
0.0454791
0.0673681
0.049257
0.101662
0.0726055
0.256179
0.242097
0.0521817
0.0465375
0.0569111
0.0455407
0.0672793
0.0495014
0.101376
0.0736068
0.255029
0.230953
0.0521633
0.0465486
0.0568669
0.0455972
0.0671637
0.0497079
0.100944
0.0742529
0.252525
0.216246
0.0521424
0.0465571
0.0568165
0.0456496
0.067022
0.0498884
0.100374
0.0746631
0.24887
0.19803
0.0521191
0.0465627
0.0567601
0.0456979
0.0668552
0.0500393
0.099669
0.0748145
0.243978
0.176301
0.0520935
0.0465647
0.0566986
0.0457407
0.0666658
0.0501559
0.0988281
0.0747076
0.237728
0.15101
0.052065
0.0465636
0.0566346
0.0457765
0.0664536
0.0502385
0.097874
0.0743566
0.230082
0.122077
0.0520323
0.0465682
0.0565509
0.0458289
0.0661928
0.0503504
0.0967778
0.0739824
0.222563
0.0897435
0.0520323
0.0465682
0.0565509
0.0458289
0.0661928
0.0503504
0.0967778
0.0739824
0.222563
0.0897435
0.052065
0.0465636
0.0566346
0.0457765
0.0664536
0.0502385
0.097874
0.0743566
0.230082
0.122077
0.0520935
0.0465647
0.0566986
0.0457407
0.0666658
0.0501559
0.0988281
0.0747076
0.237728
0.15101
0.0521191
0.0465627
0.0567601
0.0456979
0.0668552
0.0500393
0.099669
0.0748145
0.243978
0.176301
0.0521424
0.0465571
0.0568165
0.0456496
0.067022
0.0498884
0.100374
0.0746631
0.24887
0.19803
0.0521633
0.0465486
0.0568669
0.0455972
0.0671637
0.0497079
0.100944
0.0742529
0.252525
0.216246
0.0521817
0.0465375
0.0569111
0.0455407
0.0672792
0.0495014
0.101376
0.0736068
0.255029
0.230953
0.0521974
0.0465239
0.0569504
0.0454791
0.0673681
0.049257
0.101662
0.0726055
0.256179
0.242097
0.0522107
0.046509
0.0569788
0.0454221
0.0674297
0.0490371
0.10183
0.071672
0.256743
0.249758
0.0522221
0.0464856
0.0570125
0.0453329
0.0674624
0.0486498
0.101787
0.069608
0.254838
0.254361
-0.119157
-0.126013
-0.13758
-0.15423
-0.178434
-0.215394
-0.26525
-0.356574
-0.457143
-0.893708
-0.118341
-0.124763
-0.136459
-0.153114
-0.17753
-0.214787
-0.265059
-0.35272
-0.467421
-0.785489
-0.117271
-0.123197
-0.134953
-0.151446
-0.175841
-0.21305
-0.262637
-0.345583
-0.459073
-0.677335
-0.115941
-0.121304
-0.133052
-0.149221
-0.17339
-0.210179
-0.258187
-0.33571
-0.443996
-0.594655
-0.114419
-0.119153
-0.130811
-0.146489
-0.170198
-0.206209
-0.251908
-0.323736
-0.422013
-0.520844
-0.112881
-0.116952
-0.128469
-0.143531
-0.166561
-0.201392
-0.24403
-0.309875
-0.396368
-0.458588
-0.111447
-0.114882
-0.126346
-0.140813
-0.163197
-0.196683
-0.235709
-0.295322
-0.368207
-0.403024
-0.109696
-0.112532
-0.124136
-0.138137
-0.160259
-0.192667
-0.228096
-0.281693
-0.339588
-0.353485
-0.106265
-0.10833
-0.119939
-0.133241
-0.155116
-0.186452
-0.218576
-0.267157
-0.309801
-0.309414
-0.100104
-0.100823
-0.111377
-0.12276
-0.142427
-0.170699
-0.1984
-0.242381
-0.273682
-0.271359
-0.117409
-0.128885
-0.139363
-0.157516
-0.179621
-0.21691
-0.26255
-0.352031
-0.475202
-0.594441
-0.118246
-0.12937
-0.140136
-0.158323
-0.18106
-0.219204
-0.265674
-0.356134
-0.476816
-0.590305
-0.11898
-0.129711
-0.140749
-0.15893
-0.182273
-0.221147
-0.268676
-0.361899
-0.481913
-0.595574
-0.119576
-0.129876
-0.141118
-0.159204
-0.182982
-0.222187
-0.270186
-0.365245
-0.482142
-0.604464
-0.120023
-0.129853
-0.141234
-0.159142
-0.18321
-0.222468
-0.270755
-0.367701
-0.481027
-0.620824
-0.120305
-0.12962
-0.141056
-0.158683
-0.182856
-0.221814
-0.269982
-0.368515
-0.47773
-0.647002
-0.120408
-0.129154
-0.140534
-0.157732
-0.18173
-0.219898
-0.267414
-0.367358
-0.470949
-0.680828
-0.120329
-0.128463
-0.139683
-0.156313
-0.179791
-0.216542
-0.262572
-0.362306
-0.453819
-0.730029
-0.120089
-0.127652
-0.13875
-0.154914
-0.177897
-0.213262
-0.258026
-0.354577
-0.42881
-0.857605
-0.119715
-0.126876
-0.138135
-0.15439
-0.177748
-0.213395
-0.260116
-0.353274
-0.433211
-1.01216
0.00173424
0.00422185
0.0104236
0.00603219
0.0243161
0.00258492
0.0374531
-0.0249179
-0.00988389
-0.157636
0.00173575
0.00423443
0.0104228
0.00607908
0.0242905
0.00265778
0.0372796
-0.0251242
-0.0109555
-0.158726
0.00173628
0.00424444
0.0104208
0.00611219
0.0242552
0.00269136
0.0370648
-0.0254278
-0.0117933
-0.159976
0.00173643
0.00425573
0.0104178
0.00614665
0.0242156
0.00271493
0.0368242
-0.025763
-0.0128077
-0.161449
0.00173612
0.00426764
0.0104137
0.00618049
0.0241706
0.00272785
0.0365522
-0.0261412
-0.0138783
-0.16315
0.00173532
0.00428016
0.0104086
0.00621345
0.0241202
0.00272873
0.0362495
-0.0265607
-0.0150391
-0.16509
0.00173405
0.00429327
0.0104025
0.0062455
0.0240643
0.00271751
0.0359177
-0.0270162
-0.0162924
-0.16727
0.00173233
0.00430689
0.0103958
0.00627646
0.0240039
0.00269585
0.0355591
-0.0275015
-0.0176528
-0.169686
0.00173044
0.00432153
0.0103884
0.00630886
0.0239372
0.0026687
0.0351615
-0.0280241
-0.0190912
-0.172614
0.00172739
0.00433765
0.0103754
0.00634194
0.0238576
0.00262066
0.0347148
-0.0286005
-0.020693
-0.175943
0.0489723
0.0470395
0.0495324
0.0438291
0.0458716
0.0350855
0.0242683
0.013469
-0.027076
-0.0381452
0.0495729
0.0466603
0.0506039
0.0438436
0.0478849
0.0371423
0.0313978
0.020688
-0.0189694
-0.0240949
0.0498261
0.0466052
0.0512371
0.0439957
0.0496011
0.0383286
0.0352161
0.0243622
-0.0124935
-0.0188968
0.0502423
0.0464143
0.0521508
0.0441871
0.0517869
0.0399265
0.0424456
0.0299711
-0.00186735
-0.00974502
0.0505728
0.0463903
0.0529925
0.0444373
0.0541316
0.0414847
0.0492231
0.0350986
0.0110426
-0.00387169
0.0509133
0.046339
0.0538394
0.0447231
0.056636
0.0431251
0.0578595
0.0406397
0.0297658
0.00151128
0.0512226
0.0463376
0.0546272
0.0450257
0.0591288
0.0448765
0.0663368
0.0467593
0.0522669
0.00890867
0.0515053
0.046372
0.0552984
0.0453315
0.0615268
0.0465985
0.0757566
0.0530207
0.0853294
-0.00103588
0.0517639
0.0464124
0.0559546
0.0455567
0.063701
0.0482453
0.0846602
0.0608706
0.126288
0.0334572
0.051948
0.0465609
0.0562539
0.0458859
0.065354
0.0498648
0.0927143
0.069252
0.172465
-0.0133547
0.051948
0.0465609
0.0562539
0.0458859
0.065354
0.0498648
0.0927143
0.069252
0.172465
-0.0133547
0.0517639
0.0464124
0.0559546
0.0455567
0.063701
0.0482453
0.0846602
0.0608705
0.126288
0.0334571
0.0515053
0.046372
0.0552984
0.0453315
0.0615268
0.0465985
0.0757566
0.0530207
0.0853294
-0.00103593
0.0512226
0.0463376
0.0546272
0.0450256
0.0591288
0.0448765
0.0663368
0.0467593
0.0522669
0.00890862
0.0509133
0.046339
0.0538394
0.0447231
0.056636
0.0431251
0.0578595
0.0406397
0.0297658
0.00151122
0.0505728
0.0463903
0.0529925
0.0444373
0.0541316
0.0414847
0.0492231
0.0350986
0.0110426
-0.00387175
0.0502423
0.0464143
0.0521508
0.0441871
0.0517869
0.0399265
0.0424455
0.0299711
-0.00186739
-0.00974509
0.0498261
0.0466052
0.0512371
0.0439957
0.0496011
0.0383286
0.0352161
0.0243622
-0.0124936
-0.0188968
0.0495729
0.0466603
0.0506039
0.0438436
0.0478849
0.0371422
0.0313978
0.0206879
-0.0189695
-0.024095
0.0489723
0.0470395
0.0495324
0.0438291
0.0458716
0.0350855
0.0242683
0.013469
-0.027076
-0.0381453
0.00170819
0.0043723
0.0103122
0.00637597
0.0236261
0.00235759
0.0336509
-0.0301562
-0.0275598
-0.176966
0.00168724
0.00438421
0.0102608
0.00628802
0.0232948
0.00175442
0.0320722
-0.0309897
-0.0242772
-0.177927
0.00167
0.0044152
0.0102006
0.00624889
0.0228992
0.00114046
0.0300474
-0.0322823
-0.0303762
-0.178923
0.00165292
0.00443401
0.0101385
0.00619013
0.0225218
0.000598239
0.028436
-0.0323739
-0.0278528
-0.168798
0.00163927
0.00445491
0.0100815
0.0061402
0.0221696
0.000124711
0.0269591
-0.0326041
-0.0293023
-0.160152
0.00162751
0.00447445
0.0100305
0.00610117
0.0218694
-0.000225557
0.0258837
-0.03201
-0.0264346
-0.146173
0.00161802
0.00449331
0.00998628
0.0060724
0.0216159
-0.000491934
0.0249992
-0.0315252
-0.0260058
-0.137642
0.00161118
0.00451259
0.00995155
0.00605878
0.0214224
-0.000638053
0.0244814
-0.0302037
-0.0225506
-0.122654
0.00160574
0.00452903
0.00992464
0.0060527
0.0212766
-0.000726839
0.0240874
-0.0295136
-0.0217287
-0.117648
0.00160411
0.0045563
0.0099096
0.00608135
0.0212016
-0.00063945
0.0241223
-0.0270284
-0.0169924
-0.101242
0.00160411
0.00455631
0.0099096
0.00608135
0.0212016
-0.000639458
0.0241223
-0.0270284
-0.0169924
-0.101242
0.00160574
0.00452904
0.00992464
0.00605269
0.0212766
-0.000726846
0.0240874
-0.0295136
-0.0217287
-0.117648
0.00161118
0.00451259
0.00995155
0.00605878
0.0214224
-0.000638061
0.0244814
-0.0302037
-0.0225506
-0.122654
0.00161802
0.00449331
0.00998628
0.0060724
0.0216159
-0.00049194
0.0249992
-0.0315252
-0.0260058
-0.137642
0.00162752
0.00447446
0.0100305
0.00610117
0.0218693
-0.000225563
0.0258836
-0.03201
-0.0264346
-0.146173
0.00163927
0.00445491
0.0100815
0.0061402
0.0221696
0.000124706
0.0269591
-0.0326041
-0.0293023
-0.160152
0.00165293
0.00443401
0.0101385
0.00619012
0.0225218
0.000598235
0.028436
-0.032374
-0.0278528
-0.168798
0.00167
0.0044152
0.0102006
0.00624889
0.0228991
0.00114045
0.0300474
-0.0322823
-0.0303762
-0.178923
0.00168724
0.00438422
0.0102608
0.00628802
0.0232948
0.00175442
0.0320722
-0.0309897
-0.0242772
-0.177927
0.00170819
0.0043723
0.0103122
0.00637597
0.0236261
0.00235759
0.0336509
-0.0301562
-0.0275598
-0.176966
)
;

boundaryField
{
    inlet
    {
        type            zeroGradient;
    }
    outlet
    {
        type            fixedValue;
        value           uniform 0;
    }
    polygon
    {
        type            zeroGradient;
    }
    top
    {
        type            symmetryPlane;
    }
    bottom
    {
        type            symmetryPlane;
    }
    outside
    {
        type            slip;
    }
}


// ************************************************************************* //
