/*--------------------------------*- C++ -*----------------------------------*\
  =========                 |
  \\      /  F ield         | OpenFOAM: The Open Source CFD Toolbox
   \\    /   O peration     | Website:  https://openfoam.org
    \\  /    A nd           | Version:  10
     \\/     M anipulation  |
\*---------------------------------------------------------------------------*/
FoamFile
{
    format      ascii;
    class       surfaceScalarField;
    location    "5";
    object      phi;
}
// * * * * * * * * * * * * * * * * * * * * * * * * * * * * * * * * * * * * * //

dimensions      [0 3 -1 0 0 0 0];

internalField   nonuniform List<scalar> 
2280
(
-0.00356744
3.45098e-05
-3.81458e-05
-0.00355206
0.000152353
-0.000167727
-0.00352486
0.000267437
-0.00029464
-0.0034482
0.000787573
-0.000864237
-0.0033158
0.00138358
-0.00151598
-0.00305553
0.00286132
-0.00312159
-0.00269803
0.00406277
-0.00442027
-0.00212733
0.0064221
-0.0069928
-0.00150113
0.00494889
-0.00557508
0.0112167
-0.0127178
-0.00356735
3.08659e-05
-0.00355132
0.000136316
-0.00352386
0.000239982
-0.003443
0.00070671
-0.00330555
0.00124613
-0.00302613
0.00258191
-0.00264241
0.00367904
-0.00202429
0.00580398
-0.00142456
0.00434915
0.00979212
-0.00356722
2.71505e-05
-0.00355085
0.000119954
-0.00352253
0.000211662
-0.00343915
0.000623323
-0.00329547
0.00110245
-0.00300148
0.00228791
-0.00259197
0.00326954
-0.00193624
0.00514825
-0.00135629
0.0037692
0.00843582
-0.00356709
2.33735e-05
-0.00355045
0.000103309
-0.00352139
0.000182602
-0.00343584
0.000537773
-0.00328685
0.000953463
-0.00298038
0.00198144
-0.0025489
0.00283806
-0.00186223
0.00446159
-0.00129784
0.00320481
0.00713798
-0.00356699
1.9545e-05
-0.0035501
8.64237e-05
-0.00352044
0.000152935
-0.0034331
0.000450434
-0.00327974
0.000800109
-0.00296297
0.00166466
-0.00251345
0.00238854
-0.00180206
0.0037502
-0.00124981
0.00265256
0.00588817
-0.0035669
1.56753e-05
-0.00354982
6.93423e-05
-0.00351968
0.000122789
-0.00343093
0.000361685
-0.00327415
0.000643332
-0.00294926
0.00133978
-0.00248559
0.00192486
-0.00175515
0.00301977
-0.00121234
0.00210975
0.00467583
-0.00356684
1.17753e-05
-0.0035496
5.21111e-05
-0.00351911
9.22955e-05
-0.00342933
0.0002719
-0.00327005
0.000484052
-0.00293916
0.00100889
-0.00246507
0.00145077
-0.00172065
0.00227535
-0.00118527
0.00157437
0.00349056
-0.00356679
7.85548e-06
-0.00354945
3.47774e-05
-0.00351874
6.15813e-05
-0.00342829
0.000181449
-0.0032674
0.000323161
-0.00293254
0.000674039
-0.00245152
0.000969742
-0.00169759
0.00152142
-0.00116816
0.00104495
0.0023224
-0.00356676
3.92707e-06
-0.00354937
1.739e-05
-0.00351856
3.07745e-05
-0.00342781
9.06978e-05
-0.00326617
0.000161518
-0.00292927
0.000337141
-0.00244459
0.00048506
-0.00168502
0.000761844
-0.00116049
0.000520417
0.00116191
-0.00356675
-1.79534e-13
-0.00354936
-3.33963e-12
-0.00351858
-7.31019e-12
-0.00342789
-1.3501e-11
-0.00326637
-2.73634e-11
-0.00292923
-1.30976e-11
-0.00244417
1.71592e-11
-0.00168232
5.58359e-11
-0.00116191
2.52745e-11
-9.29745e-12
-0.000484259
0.0174147
-0.0172366
-0.000671419
0.0175588
-0.0173716
-0.000865162
0.0176716
-0.0174779
-0.00107008
0.0178707
-0.0176658
-0.00128962
0.0181556
-0.017936
-0.0015377
0.0185869
-0.0183388
-0.0018224
0.0192621
-0.0189774
-0.00217872
0.0203483
-0.019992
-0.00228109
0.0210601
-0.0209577
0.0186049
-0.020886
-0.000478954
0.0175905
-0.000663335
0.0177431
-0.000853525
0.0178618
-0.0010538
0.018071
-0.00126553
0.0183673
-0.0015046
0.018826
-0.00177033
0.0195279
-0.00204106
0.020619
-0.00200268
0.0210217
0.0166022
-0.000473307
0.0177637
-0.000655003
0.0179248
-0.000841699
0.0180485
-0.00103759
0.0182669
-0.00124264
0.0185724
-0.0014717
0.019055
-0.00172024
0.0197764
-0.00192542
0.0208242
-0.00178066
0.020877
0.0148216
-0.000467296
0.0179346
-0.000646321
0.0181039
-0.000829568
0.0182317
-0.00102114
0.0184585
-0.00121964
0.0187709
-0.0014377
0.0192731
-0.00166613
0.0200048
-0.00181838
0.0209765
-0.00159669
0.0206553
0.0132249
-0.000460928
0.018103
-0.000637235
0.0182802
-0.000816943
0.0184114
-0.00100391
0.0186454
-0.00119549
0.0189624
-0.00140161
0.0194792
-0.00160769
0.0202109
-0.00171174
0.0210805
-0.00142829
0.0203718
0.0117966
-0.000454309
0.018269
-0.000627836
0.0184537
-0.000803847
0.0185875
-0.000985809
0.0188274
-0.00116978
0.0191464
-0.00136248
0.0196719
-0.00154401
0.0203924
-0.00160261
0.0211391
-0.0012692
0.0200384
0.0105274
-0.000447304
0.0184328
-0.000618063
0.0186244
-0.000790336
0.0187597
-0.000967209
0.0190043
-0.00114354
0.0193227
-0.00132293
0.0198513
-0.00148117
0.0205507
-0.00149772
0.0211557
-0.00112094
0.0196616
0.00940645
-0.000440459
0.0185943
-0.000608368
0.0187924
-0.000776686
0.018928
-0.000947942
0.0191755
-0.00111553
0.0194903
-0.00127876
0.0200145
-0.0014089
0.0206808
-0.00138384
0.0211306
-0.000973906
0.0192517
0.00843255
-0.000432308
0.0187537
-0.00059765
0.0189577
-0.000762412
0.0190928
-0.000928911
0.019342
-0.00108942
0.0196508
-0.00124052
0.0201656
-0.00134895
0.0207892
-0.00129143
0.0210731
-0.000842046
0.0188023
0.0075905
-0.000427679
0.0189116
-0.000588915
0.0191189
-0.00074953
0.0192534
-0.000907964
0.0195005
-0.00105686
0.0197997
-0.00118388
0.0202927
-0.00125047
0.0208558
-0.00114212
0.0209648
-0.000675524
0.0183357
0.00691498
-0.000191845
0.0185317
-0.0186581
-7.84991e-05
0.0185935
-0.0187068
3.23063e-05
0.018677
-0.0187878
0.00012659
0.0188095
-0.0189037
0.000208867
0.0190333
-0.0191156
0.000272077
0.0193642
-0.0194275
0.000277303
0.0197372
-0.0197424
0.00021836
0.020109
-0.0200501
3.37706e-05
0.0203274
-0.0201428
0.016494
-0.0164602
-0.000187559
0.0184011
-6.93834e-05
0.0184753
4.59716e-05
0.0185616
0.000148105
0.0187073
0.000238787
0.0189426
0.000310711
0.0192923
0.000326065
0.0197218
0.000268774
0.0201663
8.62578e-05
0.02051
0.0165802
-0.000184052
0.0182669
-6.0871e-05
0.0183521
5.85652e-05
0.0184422
0.000167043
0.0185988
0.000264964
0.0188447
0.000344667
0.0192126
0.000371559
0.0196949
0.00032074
0.0202171
0.000146925
0.0206838
0.0167271
-0.000180515
0.0181293
-5.30262e-05
0.0182246
7.0752e-05
0.0183184
0.000185098
0.0184845
0.000290045
0.0187397
0.000379003
0.0191237
0.000420154
0.0196538
0.000380591
0.0202567
0.000219947
0.0208444
0.0169471
-0.000176728
0.0179886
-4.50552e-05
0.0180929
8.3298e-05
0.0181901
0.000203722
0.0183641
0.000316311
0.0186271
0.000416118
0.0190239
0.00047437
0.0195955
0.000450054
0.020281
0.000306246
0.0209882
0.0172533
-0.000172531
0.0178446
-3.66785e-05
0.0179571
9.64688e-05
0.0180569
0.000223286
0.0182373
0.000344184
0.0185063
0.000455778
0.0189123
0.000533236
0.0195181
0.000528427
0.0202858
0.000410329
0.0211063
0.0176637
-0.000167922
0.0176974
-2.77946e-05
0.017817
0.000110066
0.0179191
0.000243338
0.018104
0.000372798
0.0183768
0.000496641
0.0187884
0.000595317
0.0194194
0.000615445
0.0202657
0.000532674
0.0211891
0.0181963
-0.000162912
0.017547
-1.85498e-05
0.0176726
0.000124
0.0177765
0.000263749
0.0179642
0.000401947
0.0182386
0.000538766
0.0186516
0.000660315
0.0192978
0.00071168
0.0202143
0.000689919
0.0212108
0.0188863
-0.000157592
0.0173933
-9.21927e-06
0.0175242
0.000137792
0.0176295
0.000283707
0.0178183
0.000430374
0.0180919
0.00057975
0.0185022
0.0007254
0.0191522
0.000814339
0.0201254
0.000876852
0.0211483
0.0197631
-0.000151931
6.93494e-07
0.000152341
0.000304843
0.000460731
0.000624137
0.000798899
0.000932283
0.00112289
0.00351314
2.23905e-05
-5.95961e-12
0.00353341
-2.02657e-05
2.71513e-12
0.00352976
3.65299e-06
8.98507e-12
0.00349723
3.25292e-05
-1.74371e-11
0.00352404
-2.68162e-05
9.90541e-12
0.00343496
8.90782e-05
2.09151e-12
0.00341523
1.97389e-05
-3.00956e-12
0.00305974
0.000355484
-9.85757e-12
0.00275225
0.000307494
7.10924e-12
0.00275225
-8.69997e-12
0.0035131
4.48274e-05
0.00353362
-4.07896e-05
0.00352938
7.89233e-06
0.00349743
6.44764e-05
0.00352325
-5.26273e-05
0.00343449
0.000177839
0.00341019
4.40385e-05
0.0030554
0.000710267
0.00272617
0.00063673
0.00547841
0.00351303
6.7328e-05
0.00353397
-6.17235e-05
0.00352884
1.30207e-05
0.00349789
9.54273e-05
0.00352219
-7.69318e-05
0.00343457
0.000265462
0.00340441
7.41946e-05
0.00305393
0.00106075
0.00270742
0.000983238
0.00818584
0.00351297
8.98967e-05
0.00353443
-8.31931e-05
0.00352816
1.93002e-05
0.00349856
0.000125022
0.00352093
-9.92988e-05
0.00343516
0.000351234
0.0033982
0.000111151
0.00305561
0.00140334
0.00269599
0.00134285
0.0108818
0.00351291
0.000112517
0.003535
-0.000105278
0.00352738
2.69189e-05
0.00349942
0.000152979
0.00351955
-0.000119426
0.00343621
0.00043458
0.00339187
0.000155484
0.00306062
0.00173459
0.00269112
0.00171235
0.013573
0.0035129
0.000135147
0.00353563
-0.000128008
0.00352656
3.59881e-05
0.00350044
0.000179104
0.00351815
-0.000137135
0.00343762
0.00051511
0.00338562
0.000207481
0.00306918
0.00205104
0.00269239
0.00208914
0.0162653
0.00351296
0.000157721
0.00353631
-0.000151357
0.00352576
4.65325e-05
0.00350156
0.000203309
0.00351682
-0.000152399
0.00343926
0.000592677
0.00337973
0.000267004
0.00308135
0.00234943
0.00269901
0.00247147
0.0189644
0.00351311
0.000180142
0.003537
-0.000175241
0.00352504
5.84867e-05
0.00350274
0.000225612
0.00351569
-0.000165355
0.00344096
0.000667408
0.00337465
0.00033332
0.00309703
0.00262704
0.00270988
0.00285862
0.0216742
0.00351339
0.000202289
0.00353767
-0.000199524
0.00352446
7.16998e-05
0.00350394
0.000246132
0.00351486
-0.00017628
0.00344255
0.000739719
0.00337099
0.000404884
0.00311538
0.00288265
0.00272354
0.00325046
0.0243978
0.0035144
0.000223421
0.00353737
-0.000222494
0.00352526
8.38081e-05
0.00350376
0.000267634
0.00351618
-0.0001887
0.00344219
0.000813705
0.00337214
0.000474941
0.00313294
0.00312185
0.00274309
0.0036403
0.0271409
0.0035144
-0.000202289
0.000223421
0.00353737
0.000199524
-0.000222494
0.00352526
-7.16998e-05
8.38081e-05
0.00350376
-0.000246132
0.000267634
0.00351618
0.00017628
-0.0001887
0.00344219
-0.000739719
0.000813705
0.00337214
-0.000404884
0.000474941
0.00313294
-0.00288265
0.00312185
0.00274309
-0.00325046
0.0036403
-0.0243978
0.0271409
0.00351339
-0.000180142
0.00353767
0.000175241
0.00352446
-5.84867e-05
0.00350394
-0.000225612
0.00351486
0.000165355
0.00344255
-0.000667408
0.00337099
-0.00033332
0.00311538
-0.00262704
0.00272354
-0.00285862
-0.0216742
0.00351311
-0.000157721
0.003537
0.000151357
0.00352504
-4.65325e-05
0.00350274
-0.000203309
0.00351569
0.000152399
0.00344096
-0.000592677
0.00337465
-0.000267004
0.00309703
-0.00234943
0.00270988
-0.00247147
-0.0189644
0.00351296
-0.000135147
0.00353631
0.000128008
0.00352576
-3.59881e-05
0.00350156
-0.000179104
0.00351682
0.000137135
0.00343926
-0.00051511
0.00337973
-0.000207481
0.00308135
-0.00205104
0.00269901
-0.00208914
-0.0162653
0.0035129
-0.000112517
0.00353563
0.000105278
0.00352656
-2.69189e-05
0.00350044
-0.000152979
0.00351815
0.000119426
0.00343762
-0.00043458
0.00338562
-0.000155484
0.00306918
-0.00173459
0.00269239
-0.00171235
-0.013573
0.00351291
-8.98967e-05
0.003535
8.31931e-05
0.00352738
-1.93002e-05
0.00349942
-0.000125022
0.00351955
9.92988e-05
0.00343621
-0.000351234
0.00339187
-0.000111151
0.00306062
-0.00140334
0.00269112
-0.00134285
-0.0108818
0.00351297
-6.7328e-05
0.00353443
6.17235e-05
0.00352816
-1.30207e-05
0.00349856
-9.54273e-05
0.00352093
7.69317e-05
0.00343516
-0.000265462
0.0033982
-7.41946e-05
0.00305561
-0.00106075
0.00269599
-0.000983238
-0.00818584
0.00351303
-4.48274e-05
0.00353397
4.07896e-05
0.00352884
-7.89235e-06
0.00349789
-6.44764e-05
0.00352219
5.26272e-05
0.00343457
-0.000177839
0.00340441
-4.40385e-05
0.00305393
-0.000710267
0.00270742
-0.00063673
-0.00547841
0.0035131
-2.23905e-05
0.00353362
2.02657e-05
0.00352938
-3.65301e-06
0.00349743
-3.25292e-05
0.00352325
2.68162e-05
0.00343449
-8.90782e-05
0.00341019
-1.97389e-05
0.0030554
-0.000355484
0.00272617
-0.000307494
-0.00275225
0.00351314
0.00353341
0.00352976
0.00349723
0.00352404
0.00343496
0.00341523
0.00305974
0.00275225
-0.000151931
-0.0173933
0.0172366
6.93516e-07
-0.0175242
0.0173716
0.000152341
-0.0176295
0.0174779
0.000304843
-0.0178183
0.0176658
0.000460731
-0.0180919
0.017936
0.000624137
-0.0185022
0.0183388
0.000798899
-0.0191522
0.0189774
0.000932283
-0.0201254
0.019992
0.00112289
-0.0211483
0.0209577
-0.0197631
0.020886
-0.000157592
-0.017547
-9.21925e-06
-0.0176726
0.000137792
-0.0177765
0.000283707
-0.0179642
0.000430374
-0.0182386
0.00057975
-0.0186516
0.0007254
-0.0192978
0.000814339
-0.0202143
0.000876852
-0.0212108
-0.0188863
-0.000162912
-0.0176974
-1.85499e-05
-0.017817
0.000124
-0.0179191
0.000263749
-0.018104
0.000401947
-0.0183768
0.000538766
-0.0187884
0.000660315
-0.0194194
0.00071168
-0.0202657
0.000689919
-0.0211891
-0.0181963
-0.000167922
-0.0178446
-2.77946e-05
-0.0179571
0.000110066
-0.0180569
0.000243338
-0.0182373
0.000372798
-0.0185063
0.000496641
-0.0189123
0.000595317
-0.0195181
0.000615445
-0.0202858
0.000532674
-0.0211063
-0.0176637
-0.000172531
-0.0179886
-3.66785e-05
-0.0180929
9.64689e-05
-0.0181901
0.000223286
-0.0183641
0.000344184
-0.0186271
0.000455778
-0.0190239
0.000533236
-0.0195955
0.000528427
-0.020281
0.000410329
-0.0209882
-0.0172533
-0.000176728
-0.0181293
-4.50551e-05
-0.0182246
8.32979e-05
-0.0183184
0.000203722
-0.0184845
0.000316311
-0.0187397
0.000416118
-0.0191237
0.00047437
-0.0196538
0.000450054
-0.0202567
0.000306246
-0.0208444
-0.0169471
-0.000180515
-0.0182669
-5.30262e-05
-0.0183521
7.0752e-05
-0.0184422
0.000185098
-0.0185988
0.000290045
-0.0188447
0.000379003
-0.0192126
0.000420154
-0.0196949
0.000380591
-0.0202171
0.000219947
-0.0206838
-0.0167271
-0.000184052
-0.0184011
-6.08711e-05
-0.0184753
5.85652e-05
-0.0185616
0.000167043
-0.0187073
0.000264964
-0.0189426
0.000344667
-0.0192923
0.000371559
-0.0197218
0.00032074
-0.0201663
0.000146925
-0.02051
-0.0165802
-0.000187559
-0.0185317
-6.93834e-05
-0.0185935
4.59715e-05
-0.018677
0.000148105
-0.0188095
0.000238787
-0.0190333
0.000310712
-0.0193642
0.000326065
-0.0197372
0.000268774
-0.020109
8.62578e-05
-0.0203274
-0.016494
-0.000191845
-0.0186581
-7.84991e-05
-0.0187068
3.23064e-05
-0.0187878
0.00012659
-0.0189037
0.000208867
-0.0191156
0.000272077
-0.0194275
0.000277303
-0.0197424
0.00021836
-0.0200501
3.37706e-05
-0.0201428
-0.0164602
-0.000427679
-0.0187537
0.0189116
-0.000588915
-0.0189577
0.0191189
-0.00074953
-0.0190928
0.0192534
-0.000907963
-0.019342
0.0195005
-0.00105686
-0.0196508
0.0197997
-0.00118388
-0.0201656
0.0202927
-0.00125047
-0.0207892
0.0208558
-0.00114212
-0.0210731
0.0209648
-0.000675524
-0.0188023
0.0183357
-0.0075905
0.00691498
-0.000432308
-0.0185943
-0.000597651
-0.0187924
-0.000762412
-0.018928
-0.000928911
-0.0191755
-0.00108942
-0.0194903
-0.00124052
-0.0200145
-0.00134895
-0.0206808
-0.00129143
-0.0211306
-0.000842046
-0.0192517
-0.00843255
-0.000440459
-0.0184328
-0.000608368
-0.0186244
-0.000776686
-0.0187597
-0.000947942
-0.0190043
-0.00111553
-0.0193227
-0.00127876
-0.0198513
-0.0014089
-0.0205507
-0.00138384
-0.0211557
-0.000973906
-0.0196616
-0.00940645
-0.000447304
-0.018269
-0.000618063
-0.0184537
-0.000790336
-0.0185875
-0.000967209
-0.0188274
-0.00114354
-0.0191464
-0.00132293
-0.0196719
-0.00148117
-0.0203924
-0.00149772
-0.0211391
-0.00112094
-0.0200384
-0.0105274
-0.000454309
-0.018103
-0.000627837
-0.0182802
-0.000803847
-0.0184114
-0.000985809
-0.0186454
-0.00116978
-0.0189624
-0.00136248
-0.0194792
-0.00154401
-0.0202109
-0.00160261
-0.0210805
-0.0012692
-0.0203718
-0.0117966
-0.000460928
-0.0179346
-0.000637235
-0.0181039
-0.000816943
-0.0182317
-0.00100391
-0.0184585
-0.00119549
-0.0187709
-0.00140161
-0.0192731
-0.00160769
-0.0200048
-0.00171174
-0.0209765
-0.00142829
-0.0206553
-0.0132249
-0.000467296
-0.0177637
-0.000646321
-0.0179248
-0.000829568
-0.0180485
-0.00102114
-0.0182669
-0.00121964
-0.0185724
-0.0014377
-0.019055
-0.00166613
-0.0197764
-0.00181838
-0.0208242
-0.00159669
-0.020877
-0.0148216
-0.000473307
-0.0175905
-0.000655003
-0.0177431
-0.000841699
-0.0178618
-0.00103759
-0.018071
-0.00124264
-0.0183673
-0.0014717
-0.018826
-0.00172024
-0.0195279
-0.00192542
-0.020619
-0.00178066
-0.0210217
-0.0166022
-0.000478954
-0.0174147
-0.000663335
-0.0175588
-0.000853525
-0.0176716
-0.0010538
-0.0178707
-0.00126553
-0.0181556
-0.0015046
-0.0185869
-0.00177033
-0.0192621
-0.00204106
-0.0203483
-0.00200268
-0.0210601
-0.0186049
-0.000484259
-0.000671419
-0.000865162
-0.00107008
-0.00128962
-0.0015377
-0.0018224
-0.00217872
-0.00228109
-0.00356675
-3.92707e-06
-0.00354936
-1.739e-05
-0.00351858
-3.07746e-05
-0.00342789
-9.06978e-05
-0.00326637
-0.000161518
-0.00292923
-0.000337141
-0.00244417
-0.00048506
-0.00168232
-0.000761844
-0.00116191
-0.000520417
-0.00116191
-0.00356676
-7.85548e-06
-0.00354937
-3.47774e-05
-0.00351856
-6.15813e-05
-0.00342781
-0.000181449
-0.00326617
-0.000323161
-0.00292927
-0.000674039
-0.00244459
-0.000969742
-0.00168502
-0.00152142
-0.00116049
-0.00104495
-0.0023224
-0.00356679
-1.17753e-05
-0.00354945
-5.21111e-05
-0.00351874
-9.22955e-05
-0.00342829
-0.0002719
-0.0032674
-0.000484052
-0.00293254
-0.00100889
-0.00245152
-0.00145077
-0.00169759
-0.00227535
-0.00116816
-0.00157437
-0.00349056
-0.00356684
-1.56753e-05
-0.0035496
-6.93423e-05
-0.00351911
-0.000122789
-0.00342933
-0.000361685
-0.00327005
-0.000643332
-0.00293916
-0.00133978
-0.00246507
-0.00192486
-0.00172065
-0.00301977
-0.00118527
-0.00210975
-0.00467583
-0.0035669
-1.9545e-05
-0.00354982
-8.64237e-05
-0.00351968
-0.000152935
-0.00343093
-0.000450434
-0.00327415
-0.000800109
-0.00294926
-0.00166466
-0.00248559
-0.00238854
-0.00175515
-0.0037502
-0.00121234
-0.00265256
-0.00588817
-0.00356699
-2.33735e-05
-0.0035501
-0.000103309
-0.00352044
-0.000182602
-0.0034331
-0.000537773
-0.00327974
-0.000953463
-0.00296297
-0.00198144
-0.00251345
-0.00283806
-0.00180206
-0.00446159
-0.00124981
-0.00320481
-0.00713798
-0.00356709
-2.71505e-05
-0.00355045
-0.000119954
-0.00352139
-0.000211662
-0.00343584
-0.000623323
-0.00328685
-0.00110245
-0.00298038
-0.00228791
-0.0025489
-0.00326954
-0.00186223
-0.00514825
-0.00129784
-0.0037692
-0.00843582
-0.00356722
-3.08659e-05
-0.00355085
-0.000136316
-0.00352253
-0.000239982
-0.00343915
-0.00070671
-0.00329547
-0.00124613
-0.00300148
-0.00258191
-0.00259197
-0.00367904
-0.00193624
-0.00580398
-0.00135629
-0.00434915
-0.00979212
-0.00356735
-3.45098e-05
-0.00355132
-0.000152353
-0.00352386
-0.000267437
-0.003443
-0.000787573
-0.00330555
-0.00138358
-0.00302613
-0.00286132
-0.00264241
-0.00406277
-0.00202429
-0.0064221
-0.00142456
-0.00494889
-0.0112167
-0.00356744
-3.81458e-05
-0.00355206
-0.000167727
-0.00352486
-0.00029464
-0.0034482
-0.000864237
-0.0033158
-0.00151598
-0.00305553
-0.00312159
-0.00269803
-0.00442027
-0.00212733
-0.0069928
-0.00150113
-0.00557508
-0.0127178
0.0165009
-7.7496e-05
0.016456
-0.000119707
0.0165243
0.000414844
0.0165045
-0.00115354
0.0165956
0.00112744
0.0167336
-0.00209294
0.016862
0.000228027
0.0173375
-0.0031247
0.0175759
-0.00146757
-0.00593303
0.0165113
-0.000124358
0.0164466
-5.49386e-05
0.0165239
0.000337543
0.0164925
-0.00112215
0.0165714
0.00104853
0.0166728
-0.00219438
0.0168019
9.89133e-05
0.0172559
-0.00357866
0.0174332
-0.00164489
-0.00720661
0.0165172
-0.000177072
0.0164411
2.11859e-05
0.0165215
0.000257119
0.0164786
-0.00107926
0.0165488
0.000978282
0.0166206
-0.00226612
0.016739
-1.94984e-05
0.0171618
-0.00400144
0.0173074
-0.00179056
-0.00868698
0.0165217
-0.000234294
0.0164345
0.000108414
0.016518
0.000173587
0.0164595
-0.00102072
0.0165265
0.000911275
0.0165417
-0.00228135
0.0166647
-0.000142522
0.0170425
-0.00437922
0.017152
-0.0019001
-0.0104387
0.0165189
-0.000288714
0.0164322
0.00019514
0.0165137
9.20187e-05
0.0164332
-0.00094016
0.0165117
0.000832778
0.0164611
-0.00223075
0.016582
-0.000263408
0.016885
-0.00468224
0.0170002
-0.0020153
-0.0125541
0.0165079
-0.000332139
0.0164326
0.00027045
0.0165085
1.60727e-05
0.0164015
-0.00083309
0.0165019
0.000732315
0.0163648
-0.00209366
0.0164793
-0.000377844
0.0166354
-0.00483843
0.0168147
-0.0021945
-0.0151669
0.0164866
-0.000354253
0.0164373
0.000319757
0.0165008
-4.7464e-05
0.0163668
-0.000699054
0.0164972
0.000601898
0.0162651
-0.00186158
0.0163683
-0.000481071
0.0163508
-0.00482088
0.0165476
-0.0023913
-0.0183617
0.0164553
-0.000345044
0.0164457
0.000329289
0.0164866
-8.838e-05
0.0163371
-0.000549558
0.0164879
0.000451115
0.0161675
-0.00154114
0.0162524
-0.000565976
0.0159798
-0.00454828
0.0163034
-0.00271488
-0.0221084
0.0164192
-0.000299794
0.0164546
0.000293934
0.0164663
-0.00010007
0.016317
-0.000400296
0.0164681
0.000300018
0.016089
-0.00116206
0.0161368
-0.000613719
0.0154791
-0.00389062
0.0158362
-0.00307198
-0.026415
0.0163881
0.0164595
0.0164433
0.0163106
0.0164219
0.0160736
0.0159348
0.015166
0.0157343
0.0163881
0.000299794
0.0164595
-0.000293934
0.0164433
0.00010007
0.0163106
0.000400296
0.0164219
-0.000300018
0.0160736
0.00116206
0.0159348
0.000613719
0.015166
0.00389062
0.0157343
0.00307198
0.026415
0.0164192
0.000345044
0.0164546
-0.000329289
0.0164663
8.838e-05
0.016317
0.000549558
0.0164681
-0.000451115
0.016089
0.00154114
0.0161368
0.000565976
0.0154791
0.00454828
0.0158362
0.00271488
0.0221084
0.0164553
0.000354253
0.0164457
-0.000319757
0.0164866
4.7464e-05
0.0163371
0.000699054
0.0164879
-0.000601898
0.0161675
0.00186158
0.0162524
0.000481071
0.0159798
0.00482088
0.0163034
0.0023913
0.0183617
0.0164866
0.000332139
0.0164373
-0.00027045
0.0165008
-1.60727e-05
0.0163668
0.00083309
0.0164972
-0.000732315
0.0162651
0.00209366
0.0163683
0.000377844
0.0163508
0.00483843
0.0165476
0.0021945
0.0151669
0.0165079
0.000288714
0.0164326
-0.00019514
0.0165085
-9.20187e-05
0.0164015
0.00094016
0.0165019
-0.000832778
0.0163648
0.00223075
0.0164793
0.000263408
0.0166354
0.00468224
0.0168147
0.0020153
0.0125541
0.0165189
0.000234294
0.0164322
-0.000108414
0.0165137
-0.000173587
0.0164332
0.00102072
0.0165117
-0.000911275
0.0164611
0.00228135
0.016582
0.000142522
0.016885
0.00437922
0.0170002
0.0019001
0.0104387
0.0165217
0.000177072
0.0164345
-2.11859e-05
0.016518
-0.000257119
0.0164595
0.00107926
0.0165265
-0.000978282
0.0165417
0.00226612
0.0166647
1.94984e-05
0.0170425
0.00400144
0.017152
0.00179056
0.00868698
0.0165172
0.000124358
0.0164411
5.49386e-05
0.0165215
-0.000337543
0.0164786
0.00112215
0.0165488
-0.00104853
0.0166206
0.00219438
0.016739
-9.89133e-05
0.0171618
0.00357866
0.0173074
0.00164489
0.00720661
0.0165113
7.7496e-05
0.0164466
0.000119707
0.0165239
-0.000414844
0.0164925
0.00115354
0.0165714
-0.00112744
0.0166728
0.00209294
0.0168019
-0.000228027
0.0172559
0.0031247
0.0174332
0.00146757
0.00593303
0.0165009
0.016456
0.0165243
0.0165045
0.0165956
0.0167336
0.016862
0.0173375
0.0175759
-0.0166129
-5.62818e-05
-0.0165605
-0.000220131
-0.016435
-0.00042008
-0.0161715
-0.00112777
-0.0156648
-0.00202264
-0.0148021
-0.00398434
-0.0136234
-0.00559892
-0.0117296
-0.00888668
-0.00883283
-0.0084718
-0.0146357
-0.0166178
-7.15249e-05
-0.0165781
-0.00025988
-0.0164857
-0.000512474
-0.0163178
-0.00129567
-0.0160315
-0.0023089
-0.0156635
-0.00435238
-0.0153765
-0.00588591
-0.0152757
-0.00898744
-0.0156572
-0.00809036
-0.0119571
-0.0166234
-8.36432e-05
-0.0165941
-0.000289116
-0.0165303
-0.000576345
-0.0164321
-0.00139379
-0.0162892
-0.00245182
-0.0161865
-0.00445513
-0.0162668
-0.00580559
-0.0168133
-0.00844098
-0.0179633
-0.00694035
-0.00895566
-0.0166284
-9.30748e-05
-0.0166073
-0.000310158
-0.0165627
-0.000620911
-0.0165056
-0.0014509
-0.0164326
-0.00252485
-0.0164336
-0.00445419
-0.01661
-0.00562918
-0.0172845
-0.00776643
-0.0184448
-0.00578003
-0.00654467
-0.0166329
-0.000100198
-0.0166182
-0.000324917
-0.0165864
-0.000652679
-0.016552
-0.00148529
-0.0165089
-0.0025679
-0.0165394
-0.00442371
-0.0167099
-0.00545868
-0.0173574
-0.00711893
-0.0184171
-0.00472037
-0.00466908
-0.0166373
-0.000105205
-0.0166279
-0.000334312
-0.0166059
-0.000674649
-0.0165868
-0.0015044
-0.0165605
-0.0025942
-0.0166032
-0.00438097
-0.0167592
-0.0053027
-0.0173631
-0.00651504
-0.0183136
-0.00376993
-0.0031829
-0.0166415
-0.000108217
-0.016637
-0.000338828
-0.0166233
-0.000688301
-0.016616
-0.00151169
-0.0166006
-0.00260967
-0.0166474
-0.00433419
-0.0167823
-0.00516781
-0.0173414
-0.00595593
-0.0182089
-0.00290238
-0.00189135
-0.0166455
-0.000109383
-0.0166454
-0.00033889
-0.0166392
-0.000694581
-0.016642
-0.0015088
-0.0166358
-0.00261588
-0.0166876
-0.00428245
-0.0168102
-0.00504513
-0.0173351
-0.00543112
-0.0181031
-0.00213433
-0.000741034
-0.0166489
-0.000109021
-0.0166524
-0.000335297
-0.016652
-0.000694978
-0.0166628
-0.00149803
-0.0166634
-0.00261526
-0.0167182
-0.00422773
-0.016828
-0.00493525
-0.017319
-0.00494012
-0.0180186
-0.00143474
0.000359275
-0.0166507
-0.0166577
-0.0166588
-0.0166771
-0.0166806
-0.0167469
-0.0168579
-0.0173378
-0.0179302
-0.0166507
0.000109021
-0.0166577
0.000335297
-0.0166588
0.000694978
-0.0166771
0.00149803
-0.0166806
0.00261526
-0.0167469
0.00422773
-0.0168579
0.00493525
-0.0173378
0.00494012
-0.0179302
0.00143474
-0.000359275
-0.0166489
0.000109383
-0.0166524
0.00033889
-0.016652
0.000694581
-0.0166628
0.0015088
-0.0166634
0.00261588
-0.0167182
0.00428245
-0.016828
0.00504513
-0.017319
0.00543112
-0.0180186
0.00213433
0.000741034
-0.0166455
0.000108217
-0.0166454
0.000338828
-0.0166392
0.000688301
-0.016642
0.00151169
-0.0166358
0.00260967
-0.0166876
0.00433419
-0.0168102
0.00516781
-0.0173351
0.00595593
-0.0181031
0.00290238
0.00189135
-0.0166415
0.000105205
-0.016637
0.000334312
-0.0166233
0.000674649
-0.016616
0.0015044
-0.0166006
0.0025942
-0.0166474
0.00438097
-0.0167823
0.0053027
-0.0173414
0.00651504
-0.0182089
0.00376993
0.0031829
-0.0166373
0.000100198
-0.0166279
0.000324917
-0.0166059
0.000652679
-0.0165868
0.00148529
-0.0165605
0.0025679
-0.0166032
0.00442371
-0.0167592
0.00545868
-0.0173631
0.00711893
-0.0183136
0.00472037
0.00466908
-0.0166329
9.30748e-05
-0.0166182
0.000310158
-0.0165864
0.000620911
-0.016552
0.0014509
-0.0165089
0.00252485
-0.0165394
0.00445419
-0.0167099
0.00562918
-0.0173574
0.00776643
-0.0184171
0.00578003
0.00654467
-0.0166284
8.36432e-05
-0.0166073
0.000289116
-0.0165627
0.000576345
-0.0165056
0.00139379
-0.0164326
0.00245182
-0.0164336
0.00445513
-0.01661
0.00580559
-0.0172845
0.00844098
-0.0184448
0.00694035
0.00895566
-0.0166234
7.15249e-05
-0.0165941
0.00025988
-0.0165303
0.000512474
-0.0164321
0.00129567
-0.0162892
0.0023089
-0.0161865
0.00435238
-0.0162668
0.00588591
-0.0168133
0.00898744
-0.0179633
0.00809036
0.0119571
-0.0166178
5.62818e-05
-0.0165781
0.000220131
-0.0164857
0.00042008
-0.0163178
0.00112777
-0.0160315
0.00202264
-0.0156635
0.00398434
-0.0153765
0.00559892
-0.0152757
0.00888668
-0.0156572
0.0084718
0.0146357
-0.0166129
-0.0165605
-0.016435
-0.0161715
-0.0156648
-0.0148021
-0.0136234
-0.0117296
-0.00883283
)
;

boundaryField
{
    inlet
    {
        type            calculated;
        value           nonuniform List<scalar> 
40
(
-0.00353553
-0.00353553
-0.00353553
-0.00353553
-0.00353553
-0.00353553
-0.00353553
-0.00353553
-0.00353553
-0.00353553
-0.00353553
-0.00353553
-0.00353553
-0.00353553
-0.00353553
-0.00353553
-0.00353553
-0.00353553
-0.00353553
-0.00353553
-0.0164645
-0.0164645
-0.0164645
-0.0164645
-0.0164645
-0.0164645
-0.0164645
-0.0164645
-0.0164645
-0.0164645
-0.0164645
-0.0164645
-0.0164645
-0.0164645
-0.0164645
-0.0164645
-0.0164645
-0.0164645
-0.0164645
-0.0164645
)
;
    }
    outlet
    {
        type            calculated;
        value           nonuniform List<scalar> 
40
(
0.00357107
0.003571
0.00357093
0.00357087
0.00357082
0.00357077
0.00357074
0.00357071
0.00357069
0.00357068
0.00357068
0.00357069
0.00357071
0.00357074
0.00357077
0.00357082
0.00357087
0.00357093
0.003571
0.00357107
0.016631
0.0166331
0.0166355
0.0166378
0.01664
0.0166423
0.0166445
0.0166467
0.0166485
0.0166497
0.0166497
0.0166485
0.0166467
0.0166445
0.0166423
0.01664
0.0166378
0.0166355
0.0166331
0.016631
)
;
    }
    polygon
    {
        type            calculated;
        value           uniform 0;
    }
    top
    {
        type            symmetryPlane;
        value           uniform 0;
    }
    bottom
    {
        type            symmetryPlane;
        value           uniform 0;
    }
    outside
    {
        type            calculated;
        value           nonuniform List<scalar> 
80
(
0.000306094
0.000303232
0.000300036
0.000296467
0.000292508
0.000288253
0.000283545
0.000278961
0.000272903
0.000269825
0.000318276
0.000318112
0.000318301
0.00031807
0.000317478
0.000316498
0.000315123
0.000313344
0.00031124
0.000308663
0.000308663
0.00031124
0.000313344
0.000315123
0.000316498
0.000317478
0.00031807
0.000318301
0.000318112
0.000318276
0.000269825
0.000272903
0.000278961
0.000283545
0.000288253
0.000292508
0.000296467
0.000300036
0.000303232
0.000306094
4.11094e-05
0.000164527
-0.000483122
0.00117339
-0.0012186
0.00195492
-0.000356369
0.00264921
0.00122911
0.00485087
4.11094e-05
0.000164527
-0.000483122
0.00117339
-0.0012186
0.00195492
-0.000356369
0.00264921
0.00122911
0.00485087
-0.00010804
-0.000328306
-0.000693855
-0.0014797
-0.00261181
-0.00416139
-0.00482424
-0.00446026
-0.00084234
0.00134063
-0.00010804
-0.000328306
-0.000693855
-0.0014797
-0.00261181
-0.00416139
-0.00482424
-0.00446026
-0.00084234
0.00134063
)
;
    }
}


// ************************************************************************* //
