/*--------------------------------*- C++ -*----------------------------------*\
  =========                 |
  \\      /  F ield         | OpenFOAM: The Open Source CFD Toolbox
   \\    /   O peration     | Website:  https://openfoam.org
    \\  /    A nd           | Version:  10
     \\/     M anipulation  |
\*---------------------------------------------------------------------------*/
FoamFile
{
    format      ascii;
    class       volVectorField;
    location    "5";
    object      U;
}
// * * * * * * * * * * * * * * * * * * * * * * * * * * * * * * * * * * * * * //

dimensions      [0 1 -1 0 0 0 0];

internalField   nonuniform List<vector> 
1200
(
(1.01005 -0.000309562 1.14524e-20)
(1.00821 -0.00136552 -1.4164e-19)
(1.001 -0.00241152 2.80528e-19)
(0.995193 -0.00705879 -2.06275e-18)
(0.95676 -0.0125017 -5.66882e-19)
(0.929656 -0.0256588 -4.72667e-18)
(0.810388 -0.0367236 3.10665e-18)
(0.747983 -0.058057 -8.15549e-19)
(0.485104 -0.0455852 -2.43329e-18)
(0.426585 -0.104204 1.80819e-17)
(1.01003 -0.000279355 5.15551e-20)
(1.00814 -0.00123386 -1.06737e-19)
(1.00074 -0.00218013 -6.35116e-20)
(0.99449 -0.00639581 -3.03146e-18)
(0.954685 -0.011348 -5.69509e-19)
(0.924563 -0.0233662 -4.68228e-18)
(0.798294 -0.0335127 -2.81964e-18)
(0.725301 -0.0529036 -2.08634e-18)
(0.446768 -0.040427 -2.10084e-18)
(0.41402 -0.0909381 -8.61389e-18)
(1.01001 -0.000248522 1.15291e-19)
(1.00807 -0.00109631 -1.53735e-19)
(1.00051 -0.0019455 -5.51207e-19)
(0.993859 -0.00569877 -2.875e-18)
(0.952814 -0.0101515 -7.99396e-19)
(0.91999 -0.0209331 -4.15416e-18)
(0.787445 -0.030121 -2.63707e-18)
(0.705041 -0.0474598 1.06125e-18)
(0.413738 -0.0354105 -1.82584e-18)
(0.401833 -0.0789024 -5.20313e-18)
(1.00999 -0.000216512 1.99198e-19)
(1.00801 -0.00095544 -2.25406e-19)
(1.0003 -0.0017007 -1.28042e-18)
(0.993303 -0.00497719 -2.90075e-18)
(0.951164 -0.0089012 -1.19634e-18)
(0.915984 -0.0183662 -3.84888e-18)
(0.777961 -0.0265238 -3.14633e-18)
(0.687438 -0.0417125 3.66971e-20)
(0.385928 -0.0304911 -1.76564e-18)
(0.390352 -0.0676325 -4.9333e-18)
(1.00998 -0.000183992 3.36092e-19)
(1.00796 -0.00081221 -3.34417e-19)
(1.00012 -0.00144891 -2.26268e-18)
(0.992826 -0.00423781 -1.75252e-18)
(0.949744 -0.00760422 -1.90148e-18)
(0.912568 -0.0156951 -3.28238e-18)
(0.769903 -0.0227385 -4.56053e-18)
(0.672594 -0.0357049 1.27171e-18)
(0.363133 -0.025685 -1.8943e-18)
(0.379964 -0.0567147 -9.71248e-18)
(1.00997 -0.000151025 1.75969e-19)
(1.00792 -0.00066681 -4.18521e-19)
(0.99997 -0.00119201 -3.69418e-18)
(0.992429 -0.00348318 -7.43639e-19)
(0.948559 -0.00627022 -3.3065e-18)
(0.909749 -0.0129395 -4.07413e-18)
(0.763281 -0.0188032 -7.38555e-18)
(0.660502 -0.0294928 -3.91366e-19)
(0.345042 -0.0209555 -1.40993e-18)
(0.371021 -0.0461263 -2.41893e-17)
(1.00996 -0.000117674 7.94791e-20)
(1.00789 -0.000519619 -4.42944e-19)
(0.999845 -0.000930929 -3.61784e-18)
(0.992111 -0.00271632 2.22472e-19)
(0.94761 -0.00490695 -2.98736e-19)
(0.907518 -0.0101164 -4.58197e-18)
(0.758069 -0.0147503 -3.75136e-18)
(0.651072 -0.0231204 -9.02505e-19)
(0.331266 -0.0162739 -1.86216e-18)
(0.363775 -0.0357878 -1.87865e-17)
(1.00995 -8.40306e-05 1.80098e-20)
(1.00786 -0.000370999 -4.25465e-19)
(0.999749 -0.000666772 -2.16611e-18)
(0.991872 -0.00194071 1.12118e-18)
(0.946896 -0.00352198 -2.64594e-18)
(0.90586 -0.00724605 -5.17984e-18)
(0.754217 -0.0106081 -9.30729e-19)
(0.644171 -0.0166255 -1.01425e-18)
(0.321396 -0.0116612 -2.08832e-18)
(0.358352 -0.0255989 1.39483e-17)
(1.00994 -5.04063e-05 -1.62268e-20)
(1.00784 -0.00022264 -4.31471e-19)
(0.999683 -0.000400644 -1.22726e-18)
(0.991713 -0.00116407 3.42533e-18)
(0.946416 -0.00212458 -5.23845e-18)
(0.904761 -0.00435231 -5.04878e-18)
(0.751677 -0.00641333 1.51003e-18)
(0.639656 -0.0100671 -1.42697e-18)
(0.315057 -0.0069633 -1.27632e-18)
(0.354773 -0.0154622 2.18662e-17)
(1.00994 -1.60226e-05 -3.50026e-20)
(1.00784 -7.00351e-05 -4.90275e-19)
(0.999649 -0.00013305 -9.63492e-19)
(0.991632 -0.000369257 3.32303e-18)
(0.946173 -0.000715614 -3.43724e-18)
(0.90421 -0.00140409 -4.33058e-18)
(0.750411 -0.00218204 4.0483e-18)
(0.637427 -0.0034031 -1.42021e-18)
(0.311964 -0.00255553 -2.31593e-18)
(0.352996 -0.00539958 9.10108e-18)
(1.14947 0.0858794 -5.18321e-19)
(1.15867 0.0929886 1.1709e-17)
(1.16583 0.094227 -1.23375e-18)
(1.17852 0.103571 1.71366e-17)
(1.19665 0.107203 2.62633e-18)
(1.22397 0.120275 -4.11347e-18)
(1.26676 0.124831 -8.69184e-18)
(1.33638 0.155875 -9.94657e-18)
(1.38594 0.143533 -2.39328e-17)
(1.34573 0.168349 -6.09484e-17)
(1.14998 0.0850509 1.36674e-18)
(1.15952 0.0908646 1.21601e-17)
(1.16677 0.091541 -2.9432e-18)
(1.17961 0.0996341 2.15134e-17)
(1.19772 0.101905 1.71007e-18)
(1.22565 0.112838 -3.77662e-18)
(1.26816 0.11349 2.46694e-18)
(1.33847 0.139896 -7.71089e-18)
(1.36315 0.0966056 1.06109e-17)
(1.15481 0.11867 -5.10962e-19)
(1.15036 0.0841184 -4.24523e-18)
(1.16037 0.0886552 6.92685e-19)
(1.1679 0.0887547 6.4849e-18)
(1.18125 0.0955534 2.36045e-17)
(1.19991 0.09634 2.18091e-18)
(1.2294 0.104981 -2.35746e-18)
(1.27328 0.101323 1.37808e-17)
(1.34199 0.121078 -1.07334e-17)
(1.35123 0.0629986 -1.29075e-17)
(0.997873 0.0840405 -4.34314e-20)
(1.1506 0.0830799 -5.33953e-18)
(1.16108 0.086348 7.62044e-18)
(1.16889 0.0858427 4.71561e-18)
(1.18277 0.0912921 2.82264e-17)
(1.2019 0.0904537 -1.69339e-18)
(1.23276 0.0965963 -1.69103e-18)
(1.27753 0.0884553 1.72056e-17)
(1.34129 0.100417 -4.43004e-18)
(1.33038 0.0340527 -1.12408e-17)
(0.889493 0.0553861 3.03066e-18)
(1.15067 0.0819358 3.49809e-18)
(1.16158 0.0839522 5.73383e-18)
(1.16959 0.0828262 1.09763e-17)
(1.18387 0.086899 2.33491e-17)
(1.20322 0.0843579 7.36679e-18)
(1.23491 0.0878929 -1.04827e-18)
(1.2797 0.0753041 2.62333e-18)
(1.33672 0.0792461 -2.10496e-17)
(1.30199 0.00799727 -8.35318e-18)
(0.789459 0.0302777 -2.74274e-18)
(1.15059 0.0807128 1.58358e-18)
(1.16189 0.0815024 6.07917e-18)
(1.17 0.0797441 1.50959e-17)
(1.18455 0.0824186 1.92551e-17)
(1.20389 0.0780981 9.38096e-18)
(1.23594 0.0788675 4.31248e-19)
(1.27984 0.0616556 -3.67294e-18)
(1.32865 0.0574006 -1.93447e-17)
(1.26956 -0.0160317 -1.25354e-17)
(0.697377 0.00806356 4.49947e-17)
(1.15036 0.0793657 8.03441e-18)
(1.162 0.0789669 3.99577e-19)
(1.17016 0.0765878 1.98203e-17)
(1.18491 0.0778812 1.57366e-17)
(1.20411 0.0718115 -1.69191e-18)
(1.23625 0.0698724 -3.56505e-18)
(1.27893 0.0482953 1.00347e-17)
(1.31942 0.0362087 -1.63816e-17)
(1.23711 -0.0383515 1.65083e-17)
(0.616911 -0.0126163 3.67972e-17)
(1.14998 0.0780563 7.09938e-18)
(1.16195 0.076492 -6.39237e-18)
(1.17009 0.0734617 1.85333e-17)
(1.18494 0.0733224 1.02923e-17)
(1.20381 0.0653427 -4.29942e-18)
(1.23555 0.0603257 1.05118e-17)
(1.27584 0.033659 8.25242e-18)
(1.30555 0.0128984 -1.37624e-17)
(1.19878 -0.0617137 1.52325e-17)
(0.546601 -0.032956 2.90488e-17)
(1.14952 0.0763345 4.42977e-18)
(1.16174 0.0736961 -5.48426e-18)
(1.16983 0.0701205 8.35886e-18)
(1.18473 0.0687052 1.40726e-17)
(1.20323 0.0592056 5.55667e-18)
(1.23443 0.0517897 5.40164e-18)
(1.27278 0.0215695 6.20364e-18)
(1.29442 -0.00565339 -1.19995e-17)
(1.16809 -0.0814122 1.46878e-17)
(0.489566 -0.0544911 1.89223e-17)
(1.14887 0.0755531 8.76476e-18)
(1.1614 0.0717362 -4.5928e-18)
(1.16938 0.0673529 5.6926e-18)
(1.18423 0.0642976 1.89021e-17)
(1.20216 0.0523401 5.45878e-18)
(1.23216 0.0408141 1.52522e-17)
(1.26613 0.00345644 4.15114e-18)
(1.27294 -0.0353528 -9.87593e-18)
(1.1159 -0.113369 1.25219e-17)
(0.425008 -0.0762304 1.43954e-17)
(1.13204 0.0896099 2.12626e-17)
(1.13545 0.111175 4.18593e-18)
(1.14055 0.121163 -4.39301e-18)
(1.14848 0.144031 1.15496e-17)
(1.16252 0.165046 1.09219e-17)
(1.18262 0.199218 -1.39453e-17)
(1.20501 0.234919 4.52659e-17)
(1.22719 0.308175 -3.71793e-18)
(1.23675 0.378873 -5.05662e-18)
(1.00889 0.436293 -6.02438e-18)
(1.13694 0.0897058 1.75606e-17)
(1.14147 0.109792 4.56732e-18)
(1.14732 0.118882 -2.55814e-18)
(1.1567 0.140558 8.18993e-18)
(1.17223 0.159982 9.77734e-18)
(1.19441 0.19305 1.44253e-17)
(1.22057 0.227436 3.86724e-17)
(1.24673 0.299589 9.11545e-18)
(1.26263 0.37504 -3.31086e-18)
(1.02046 0.422727 -5.3705e-18)
(1.13963 0.0896819 1.41549e-17)
(1.14487 0.108289 4.21352e-18)
(1.15081 0.116475 -6.9106e-18)
(1.16083 0.13693 1.49644e-17)
(1.1767 0.154732 1.13509e-17)
(1.19988 0.186413 -1.06704e-18)
(1.22933 0.219147 3.68051e-17)
(1.26037 0.289163 1.77483e-17)
(1.28498 0.368552 -3.58473e-18)
(1.03739 0.408269 -4.92238e-18)
(1.14121 0.0895604 1.21653e-17)
(1.14706 0.106714 4.23945e-18)
(1.15308 0.114 -1.28873e-17)
(1.16364 0.133194 1.28669e-17)
(1.18001 0.14932 1.92868e-18)
(1.20432 0.179291 1.38726e-17)
(1.2373 0.20991 2.11813e-17)
(1.27411 0.276779 3.40785e-17)
(1.30773 0.358934 -2.19297e-18)
(1.05987 0.392337 -4.31623e-18)
(1.14265 0.0893366 7.08679e-18)
(1.14912 0.105041 1.37385e-18)
(1.1554 0.111421 -1.11129e-17)
(1.16659 0.129293 1.17656e-17)
(1.18371 0.143669 1.97386e-18)
(1.20931 0.171637 6.21664e-19)
(1.24573 0.19969 1.33883e-17)
(1.28856 0.262497 2.45002e-17)
(1.33041 0.345698 -2.74375e-18)
(1.08657 0.374383 -2.94458e-18)
(1.14416 0.0890038 1.3058e-17)
(1.15126 0.103251 8.5914e-18)
(1.15784 0.108715 -9.31076e-18)
(1.16964 0.125203 6.90498e-18)
(1.18747 0.13776 1.95369e-18)
(1.21417 0.16348 4.69707e-18)
(1.25352 0.188494 2.29765e-17)
(1.30223 0.246484 3.89548e-17)
(1.35336 0.328788 2.2669e-18)
(1.12253 0.354076 -5.42314e-18)
(1.14563 0.0885643 6.66451e-18)
(1.1533 0.101352 5.27146e-18)
(1.16013 0.105903 -7.45034e-18)
(1.17244 0.120968 1.50672e-17)
(1.19079 0.131683 2.38182e-18)
(1.2183 0.154984 -8.02664e-18)
(1.26007 0.176573 2.21826e-17)
(1.31466 0.228933 3.48113e-17)
(1.37287 0.30652 -2.89423e-18)
(1.16098 0.329767 1.76086e-18)
(1.14691 0.0880174 -1.36093e-18)
(1.15508 0.0993495 1.14834e-17)
(1.16211 0.102984 -5.51733e-18)
(1.17476 0.116585 1.01179e-17)
(1.19344 0.125405 2.57867e-18)
(1.22139 0.146111 -7.21011e-18)
(1.26489 0.163645 9.55679e-18)
(1.32483 0.210033 2.89369e-17)
(1.39397 0.279419 8.11904e-18)
(1.22164 0.301766 -1.95919e-17)
(1.14798 0.0873848 -1.11246e-18)
(1.15659 0.0972822 9.93873e-18)
(1.16377 0.100056 -3.64803e-18)
(1.17667 0.112215 1.8123e-17)
(1.19553 0.119235 2.58963e-18)
(1.22379 0.137355 -5.3082e-18)
(1.26856 0.150806 -6.74315e-18)
(1.33347 0.190887 2.87538e-17)
(1.40261 0.243551 -1.81907e-17)
(1.26908 0.265879 -6.45347e-17)
(1.1488 0.0866238 -1.11776e-18)
(1.15778 0.0950851 6.6849e-18)
(1.16504 0.0969161 -2.90098e-18)
(1.17794 0.107541 1.31132e-17)
(1.19665 0.112534 2.65642e-18)
(1.22444 0.12786 -4.35971e-18)
(1.26895 0.135822 -5.65929e-18)
(1.33711 0.170558 1.35031e-17)
(1.42043 0.200703 -7.62256e-18)
(1.37435 0.225084 -5.25031e-17)
(1.0252 0.000197282 -2.16724e-18)
(0.961078 -0.00017127 5.73246e-18)
(1.03953 2.40942e-05 -6.62886e-18)
(0.954675 0.000330284 5.14436e-18)
(1.027 -0.000252631 -1.49926e-17)
(0.961887 0.000931156 -1.2473e-17)
(0.987746 0.000200021 -6.12845e-18)
(0.935064 0.00382849 1.10254e-17)
(0.810545 0.00340071 -2.27623e-17)
(0.749088 0.0244093 1.98961e-18)
(1.02515 0.000603057 -2.88543e-18)
(0.961114 -0.000542566 1.01968e-17)
(1.03957 9.86167e-05 -1.00784e-17)
(0.954518 0.000902619 1.12395e-17)
(1.02726 -0.000730269 -1.95975e-17)
(0.961436 0.00248455 -8.47872e-18)
(0.988347 0.000575694 -7.83219e-18)
(0.933625 0.00994586 1.52409e-17)
(0.813515 0.00866575 -8.20834e-18)
(0.750733 0.0751455 -7.19034e-18)
(1.02505 0.00100621 -3.59807e-18)
(0.961187 -0.000910941 1.54806e-17)
(1.03966 0.000177191 -3.11749e-18)
(0.954224 0.00148366 9.63863e-18)
(1.0278 -0.00118234 -1.69072e-17)
(0.960582 0.00413399 -5.06782e-18)
(0.989648 0.00108616 -9.80372e-18)
(0.931122 0.0166323 7.54662e-18)
(0.819202 0.0152292 2.24201e-19)
(0.753705 0.124104 -2.31611e-17)
(1.0249 0.00140881 -3.68278e-18)
(0.961304 -0.00128847 1.34931e-17)
(1.03977 0.000278241 2.75079e-18)
(0.953831 0.002029 9.72165e-18)
(1.02855 -0.00159903 -2.05155e-17)
(0.959399 0.00569282 -2.20205e-18)
(0.991569 0.00169236 -1.44027e-17)
(0.927761 0.022854 2.55078e-18)
(0.827511 0.0215077 6.09245e-18)
(0.757968 0.172507 -6.72198e-17)
(1.02471 0.00181073 -4.11305e-18)
(0.961479 -0.00167484 4.2624e-18)
(1.03987 0.000400305 8.46127e-18)
(0.953386 0.00254525 1.02559e-17)
(1.02946 -0.00197538 -1.60157e-17)
(0.957993 0.00721481 7.86007e-19)
(0.99399 0.00242917 -4.59247e-19)
(0.923821 0.0289502 4.30505e-19)
(0.838282 0.0281179 8.97018e-18)
(0.763449 0.220569 -4.43215e-17)
(1.02446 0.00221129 -5.72701e-18)
(0.961727 -0.00207087 -2.84442e-18)
(1.03995 0.000547519 1.6731e-17)
(0.952952 0.00302623 1.11328e-17)
(1.03045 -0.00230761 -1.68985e-17)
(0.956497 0.00867515 5.31375e-18)
(0.996721 0.00329666 1.30622e-17)
(0.919597 0.0347375 -1.88704e-18)
(0.851287 0.03475 1.20666e-17)
(0.770098 0.268321 -3.0405e-17)
(1.02416 0.00260957 1.53797e-18)
(0.962067 -0.00247639 -7.51349e-18)
(1.03996 0.000720315 1.73477e-17)
(0.952593 0.00347047 1.61843e-18)
(1.03143 -0.00259478 -8.0577e-18)
(0.955063 0.0100742 1.40346e-17)
(0.999533 0.00429824 7.34076e-18)
(0.91546 0.0401949 -5.812e-18)
(0.86616 0.0414726 1.96842e-17)
(0.777861 0.315868 -2.01006e-17)
(1.0238 0.00300449 -2.8546e-18)
(0.962517 -0.00289127 -1.82061e-18)
(1.03986 0.000918363 1.04834e-17)
(0.95238 0.00387692 8.57508e-19)
(1.03229 -0.00283488 -4.76123e-19)
(0.953851 0.011409 1.56972e-17)
(1.00217 0.00541966 1.96446e-18)
(0.911894 0.0452546 -1.18803e-17)
(0.882301 0.0481572 3.87838e-17)
(0.786698 0.363308 -1.21043e-17)
(1.02338 0.00339317 -8.77642e-18)
(0.963097 -0.00331422 4.71236e-18)
(1.03963 0.00114488 6.62875e-18)
(0.952379 0.00424241 -9.6023e-20)
(1.03295 -0.00302714 8.26058e-18)
(0.95301 0.0126782 9.54219e-18)
(1.0044 0.00666147 1.69993e-17)
(0.909509 0.0498604 -1.99132e-17)
(0.898722 0.0545583 2.13341e-17)
(0.796797 0.410524 -7.86839e-18)
(1.0229 0.00376805 -5.74408e-18)
(0.963823 -0.00372593 2.88424e-18)
(1.03923 0.00137554 4.37864e-18)
(0.952649 0.00460679 -1.26437e-19)
(1.03333 -0.00322231 5.15106e-18)
(0.952674 0.014007 5.38915e-18)
(1.006 0.00798378 1.32805e-17)
(0.909038 0.0543944 -1.8437e-17)
(0.913805 0.0637132 1.02081e-17)
(0.811443 0.458514 -5.23326e-18)
(1.0229 -0.00376805 -6.15778e-18)
(0.963823 0.00372593 -1.38282e-21)
(1.03923 -0.00137554 4.09204e-19)
(0.952649 -0.00460679 4.07548e-20)
(1.03333 0.0032223 7.80295e-19)
(0.952674 -0.014007 -1.63062e-18)
(1.006 -0.00798378 -3.7477e-18)
(0.909038 -0.0543944 -8.26909e-18)
(0.913805 -0.0637132 -4.16037e-17)
(0.811443 -0.458514 -2.00681e-17)
(1.02338 -0.00339317 -9.91191e-18)
(0.963097 0.00331422 9.01268e-19)
(1.03963 -0.00114488 3.32842e-19)
(0.952379 -0.00424241 1.58394e-19)
(1.03295 0.00302714 9.28918e-19)
(0.95301 -0.0126782 -3.0026e-18)
(1.0044 -0.00666147 -6.97417e-18)
(0.909509 -0.0498604 -1.47258e-17)
(0.898722 -0.0545583 -2.59948e-17)
(0.796797 -0.410524 -2.31964e-17)
(1.0238 -0.00300449 -5.75242e-18)
(0.962517 0.00289127 2.97167e-18)
(1.03986 -0.000918363 4.1631e-19)
(0.95238 -0.00387692 9.82181e-20)
(1.03229 0.00283488 1.17967e-18)
(0.953851 -0.011409 -6.02437e-18)
(1.00217 -0.00541966 8.51789e-18)
(0.911894 -0.0452546 -9.6141e-18)
(0.882301 -0.0481572 -2.35465e-17)
(0.786698 -0.363308 -2.86339e-17)
(1.02416 -0.00260957 -2.62225e-18)
(0.962067 0.00247639 6.02857e-18)
(1.03996 -0.000720315 5.13041e-19)
(0.952593 -0.00347047 2.11229e-19)
(1.03143 0.00259478 1.05511e-18)
(0.955063 -0.0100742 -9.60367e-18)
(0.999533 -0.00429824 4.13849e-18)
(0.91546 -0.0401949 5.74118e-18)
(0.86616 -0.0414726 -3.32646e-17)
(0.777861 -0.315868 -1.56512e-17)
(1.02446 -0.00221129 -6.66502e-20)
(0.961727 0.00207086 3.72941e-20)
(1.03995 -0.000547519 -5.00459e-19)
(0.952952 -0.00302623 3.02491e-19)
(1.03045 0.00230761 1.91765e-19)
(0.956497 -0.00867515 -3.64636e-18)
(0.996721 -0.00329666 2.28937e-18)
(0.919597 -0.0347375 2.45355e-18)
(0.851287 -0.03475 -5.7467e-17)
(0.770098 -0.268321 -1.51514e-17)
(1.02471 -0.00181073 2.20138e-18)
(0.961479 0.00167484 -6.12581e-18)
(1.03987 -0.000400305 -1.18966e-18)
(0.953386 -0.00254525 7.22301e-19)
(1.02946 0.00197538 -1.14232e-18)
(0.957993 -0.00721481 1.60899e-18)
(0.99399 -0.00242917 2.09349e-18)
(0.923821 -0.0289502 -3.68591e-18)
(0.838282 -0.0281179 -4.9054e-17)
(0.763449 -0.220569 1.65071e-17)
(1.0249 -0.00140881 4.396e-18)
(0.961304 0.00128847 -3.4736e-18)
(1.03977 -0.000278241 -1.54193e-18)
(0.953831 -0.002029 1.75583e-18)
(1.02855 0.00159903 -2.72222e-18)
(0.959399 -0.00569282 6.97265e-18)
(0.991569 -0.00169236 7.80616e-19)
(0.927761 -0.022854 2.77427e-18)
(0.827511 -0.0215077 -6.07618e-17)
(0.757968 -0.172507 3.8458e-17)
(1.02505 -0.00100621 -4.02162e-18)
(0.961187 0.000910941 -1.75016e-18)
(1.03966 -0.000177192 -1.89624e-18)
(0.954224 -0.00148366 3.58623e-18)
(1.0278 0.00118234 -4.7049e-18)
(0.960582 -0.00413399 2.12742e-18)
(0.989648 -0.00108616 -6.34372e-19)
(0.931122 -0.0166323 5.3305e-18)
(0.819202 -0.0152292 -4.05804e-17)
(0.753705 -0.124104 2.77196e-17)
(1.02515 -0.000603057 -2.66314e-18)
(0.961114 0.000542566 3.28893e-20)
(1.03957 -9.8617e-05 -2.99735e-18)
(0.954518 -0.000902618 6.12296e-18)
(1.02726 0.000730269 -8.67781e-18)
(0.961436 -0.00248455 -2.46892e-18)
(0.988347 -0.000575694 -2.44217e-18)
(0.933625 -0.00994586 7.17366e-18)
(0.813515 -0.00866575 -3.70491e-17)
(0.750733 -0.0751455 3.68295e-17)
(1.0252 -0.000197282 -2.13562e-18)
(0.961078 0.00017127 2.4675e-18)
(1.03953 -2.40945e-05 -4.49985e-18)
(0.954675 -0.000330284 9.952e-18)
(1.027 0.000252631 -1.61157e-17)
(0.961887 -0.000931156 -7.38711e-18)
(0.987746 -0.000200021 -3.92396e-18)
(0.935064 -0.00382849 9.22515e-18)
(0.810545 -0.00340071 -4.75887e-17)
(0.749088 -0.0244093 1.21484e-17)
(1.1488 -0.0866238 -4.77803e-18)
(1.15778 -0.0950851 -6.96643e-18)
(1.16504 -0.0969161 3.3528e-19)
(1.17794 -0.107541 -3.49877e-18)
(1.19665 -0.112534 -3.74951e-18)
(1.22444 -0.12786 -1.99881e-17)
(1.26895 -0.135822 2.61418e-17)
(1.33711 -0.170558 1.56458e-18)
(1.42043 -0.200703 -6.55366e-18)
(1.37435 -0.225084 1.80183e-18)
(1.14798 -0.0873848 2.13009e-18)
(1.15659 -0.0972822 -1.52934e-18)
(1.16377 -0.100056 3.61282e-18)
(1.17667 -0.112215 -5.03611e-18)
(1.19553 -0.119235 -7.75669e-18)
(1.22379 -0.137355 1.06784e-17)
(1.26856 -0.150806 2.47379e-17)
(1.33347 -0.190887 -3.07805e-17)
(1.40261 -0.243551 -6.54321e-18)
(1.26908 -0.265879 -5.19865e-18)
(1.14691 -0.0880174 1.06235e-18)
(1.15508 -0.0993495 -4.98567e-18)
(1.16211 -0.102984 2.67999e-18)
(1.17476 -0.116585 -6.34851e-18)
(1.19344 -0.125405 3.56809e-18)
(1.22139 -0.146111 2.15783e-18)
(1.26489 -0.163645 1.12666e-17)
(1.32483 -0.210033 -2.87262e-18)
(1.39397 -0.279419 -5.30951e-18)
(1.22164 -0.301766 -7.10209e-19)
(1.14563 -0.0885643 2.75621e-18)
(1.1533 -0.101352 -6.18364e-18)
(1.16013 -0.105903 3.68437e-18)
(1.17244 -0.120968 -8.58353e-18)
(1.19079 -0.131683 -1.71645e-19)
(1.2183 -0.154984 -7.69721e-18)
(1.26007 -0.176573 1.97164e-18)
(1.31466 -0.228933 -3.64429e-17)
(1.37287 -0.30652 2.15861e-17)
(1.16098 -0.329767 4.14444e-17)
(1.14416 -0.0890038 1.11363e-17)
(1.15126 -0.103251 -1.57479e-17)
(1.15784 -0.108715 -4.55915e-18)
(1.16964 -0.125203 -1.05598e-17)
(1.18747 -0.13776 -1.12325e-17)
(1.21417 -0.16348 -5.61636e-18)
(1.25352 -0.188494 6.82166e-18)
(1.30223 -0.246484 1.27186e-17)
(1.35336 -0.328788 1.49484e-17)
(1.12253 -0.354076 -3.56562e-18)
(1.14265 -0.0893366 4.33304e-18)
(1.14912 -0.105041 -8.18254e-18)
(1.1554 -0.111421 6.13756e-18)
(1.16659 -0.129293 -1.34301e-17)
(1.18371 -0.143669 -2.09548e-17)
(1.20931 -0.171637 -7.52861e-18)
(1.24573 -0.19969 7.09519e-18)
(1.28856 -0.262497 1.52638e-17)
(1.33041 -0.345698 2.137e-17)
(1.08657 -0.374383 4.91663e-17)
(1.14121 -0.0895604 7.65004e-18)
(1.14706 -0.106714 -5.32243e-18)
(1.15308 -0.114 3.93712e-18)
(1.16364 -0.133194 -1.65576e-17)
(1.18001 -0.14932 -2.2629e-17)
(1.20432 -0.179291 -7.97838e-18)
(1.2373 -0.20991 1.01462e-17)
(1.27411 -0.276779 1.95698e-17)
(1.30773 -0.358934 2.23133e-17)
(1.05987 -0.392337 4.56092e-17)
(1.13963 -0.0896819 8.02281e-18)
(1.14487 -0.108289 1.091e-19)
(1.15081 -0.116475 5.50919e-18)
(1.16083 -0.13693 -1.1446e-17)
(1.1767 -0.154732 -2.73556e-17)
(1.19988 -0.186413 -8.98232e-18)
(1.22933 -0.219147 2.81936e-17)
(1.26037 -0.289163 4.04921e-17)
(1.28498 -0.368552 2.50402e-17)
(1.03739 -0.408269 3.0088e-17)
(1.13694 -0.0897058 2.51371e-18)
(1.14147 -0.109792 -1.51034e-18)
(1.14732 -0.118882 5.54205e-18)
(1.1567 -0.140558 -1.73542e-17)
(1.17223 -0.159982 -3.13148e-17)
(1.19441 -0.19305 -1.01115e-17)
(1.22057 -0.227436 3.02779e-17)
(1.24673 -0.299589 4.11255e-17)
(1.26263 -0.37504 7.3426e-18)
(1.02046 -0.422727 4.32219e-17)
(1.13204 -0.0896099 -2.11633e-18)
(1.13545 -0.111175 5.58276e-18)
(1.14055 -0.121163 5.7198e-18)
(1.14848 -0.144031 -2.04863e-17)
(1.16252 -0.165046 -2.6627e-17)
(1.18262 -0.199218 -1.0042e-17)
(1.20501 -0.234919 5.08541e-17)
(1.22719 -0.308175 4.99408e-17)
(1.23675 -0.378873 -4.74851e-18)
(1.00889 -0.436293 2.91259e-17)
(1.14887 -0.0755531 6.92061e-18)
(1.1614 -0.0717362 -2.37673e-18)
(1.16938 -0.0673529 -2.5393e-18)
(1.18423 -0.0642976 -2.79654e-18)
(1.20216 -0.0523401 -6.42041e-18)
(1.23216 -0.0408141 8.97357e-18)
(1.26613 -0.00345644 -2.66647e-17)
(1.27294 0.0353528 -3.91482e-18)
(1.1159 0.113369 -5.1821e-17)
(0.425008 0.0762304 2.3474e-17)
(1.14952 -0.0763345 8.68106e-18)
(1.16174 -0.0736961 -3.07205e-18)
(1.16983 -0.0701205 -1.9263e-18)
(1.18473 -0.0687052 7.82864e-18)
(1.20323 -0.0592056 -8.06469e-18)
(1.23443 -0.0517897 1.11143e-17)
(1.27278 -0.0215695 -1.6945e-17)
(1.29442 0.00565339 -2.00216e-18)
(1.16809 0.0814122 -3.33204e-17)
(0.489566 0.0544911 3.24849e-17)
(1.14998 -0.0780563 1.13617e-17)
(1.16195 -0.076492 -3.44132e-18)
(1.17009 -0.0734617 1.45317e-17)
(1.18494 -0.0733224 6.2825e-18)
(1.20381 -0.0653427 1.05021e-18)
(1.23555 -0.0603257 1.28257e-17)
(1.27584 -0.033659 -2.41853e-17)
(1.30555 -0.0128984 -5.28208e-19)
(1.19878 0.0617137 -4.98586e-17)
(0.546601 0.032956 -1.78614e-17)
(1.15036 -0.0793657 7.12125e-18)
(1.162 -0.0789669 -4.14555e-18)
(1.17016 -0.0765878 2.7785e-18)
(1.18491 -0.0778812 -7.74813e-19)
(1.20411 -0.0718115 -1.48746e-17)
(1.23625 -0.0698724 4.40579e-19)
(1.27893 -0.0482953 -1.00317e-17)
(1.31942 -0.0362087 5.39035e-19)
(1.23711 0.0383515 -5.25252e-17)
(0.616911 0.0126163 -2.3652e-17)
(1.15059 -0.0807128 1.03291e-17)
(1.16189 -0.0815024 -4.21945e-18)
(1.17 -0.0797441 8.00069e-18)
(1.18455 -0.0824186 1.30531e-17)
(1.20389 -0.0780981 -1.40179e-17)
(1.23594 -0.0788675 -9.14392e-18)
(1.27984 -0.0616556 -2.46276e-18)
(1.32865 -0.0574006 3.22821e-18)
(1.26956 0.0160317 -3.05012e-17)
(0.697377 -0.00806356 2.80065e-17)
(1.15067 -0.0819358 1.17672e-17)
(1.16158 -0.0839522 2.85103e-18)
(1.16959 -0.0828262 -1.27282e-18)
(1.18387 -0.086899 2.80903e-18)
(1.20322 -0.0843579 -1.66828e-17)
(1.23491 -0.0878929 -7.09967e-18)
(1.2797 -0.0753041 -7.03589e-18)
(1.33672 -0.0792461 -1.70967e-17)
(1.30199 -0.00799727 -1.68956e-17)
(0.789459 -0.0302777 2.76164e-17)
(1.1506 -0.0830799 5.61804e-18)
(1.16108 -0.086348 6.99923e-19)
(1.16889 -0.0858427 1.54635e-18)
(1.18277 -0.0912921 8.19174e-18)
(1.2019 -0.0904537 -8.44245e-18)
(1.23276 -0.0965963 -9.66646e-18)
(1.27753 -0.0884553 -5.33787e-18)
(1.34129 -0.100417 -9.32087e-18)
(1.33038 -0.0340527 -2.89952e-17)
(0.889493 -0.0553861 3.46155e-17)
(1.15036 -0.0841184 3.70779e-19)
(1.16037 -0.0886552 2.12232e-18)
(1.1679 -0.0887547 6.20024e-19)
(1.18125 -0.0955534 8.53057e-18)
(1.19991 -0.09634 -1.31561e-17)
(1.2294 -0.104981 -2.27927e-17)
(1.27328 -0.101323 -5.84466e-18)
(1.34199 -0.121078 -1.28656e-17)
(1.35123 -0.0629986 -3.18054e-17)
(0.997873 -0.0840405 3.6302e-17)
(1.14998 -0.0850509 1.49213e-18)
(1.15952 -0.0908646 1.44152e-18)
(1.16677 -0.091541 1.13829e-18)
(1.17961 -0.0996341 1.08963e-18)
(1.19772 -0.101905 -1.22831e-17)
(1.22565 -0.112838 -7.54546e-18)
(1.26816 -0.11349 1.03235e-17)
(1.33847 -0.139896 -1.3879e-17)
(1.36315 -0.0966056 -1.45212e-17)
(1.15481 -0.11867 3.78119e-17)
(1.14947 -0.0858794 -6.84668e-18)
(1.15867 -0.0929886 -7.33696e-18)
(1.16583 -0.094227 1.06453e-17)
(1.17852 -0.103571 -5.44002e-18)
(1.19665 -0.107203 -1.39172e-17)
(1.22397 -0.120275 -2.0819e-18)
(1.26676 -0.124831 5.82077e-18)
(1.33638 -0.155875 -1.69338e-17)
(1.38594 -0.143533 -1.99568e-18)
(1.34573 -0.168349 -1.33908e-17)
(1.00994 1.60226e-05 -4.33685e-20)
(1.00784 7.00352e-05 -6.04031e-19)
(0.999649 0.00013305 -1.18349e-18)
(0.991632 0.000369257 1.99999e-18)
(0.946173 0.000715614 -2.04995e-18)
(0.90421 0.00140409 -3.80391e-18)
(0.750411 0.00218204 7.17744e-18)
(0.637427 0.0034031 -3.00853e-19)
(0.311964 0.00255552 -2.75685e-18)
(0.352996 0.00539958 3.30587e-18)
(1.00994 5.04063e-05 -3.82699e-20)
(1.00784 0.00022264 1.06577e-19)
(0.999683 0.000400644 -1.79472e-18)
(0.991713 0.00116407 8.42876e-19)
(0.946416 0.00212458 -9.25522e-19)
(0.904761 0.00435231 -2.81834e-18)
(0.751677 0.00641333 4.08029e-18)
(0.639656 0.0100671 -1.50464e-18)
(0.315057 0.0069633 -2.38003e-18)
(0.354773 0.0154622 -5.9284e-19)
(1.00995 8.40306e-05 -6.71847e-20)
(1.00786 0.000370999 -3.95862e-20)
(0.999749 0.000666772 -5.22604e-19)
(0.991872 0.00194071 -3.70151e-20)
(0.946896 0.00352198 8.37522e-20)
(0.90586 0.00724605 -1.96753e-18)
(0.754217 0.0106081 1.73153e-18)
(0.644171 0.0166255 -2.07098e-19)
(0.321396 0.0116612 -2.57647e-18)
(0.358352 0.0255989 -4.8228e-18)
(1.00996 0.000117674 -1.28877e-19)
(1.00789 0.000519619 -2.28781e-19)
(0.999845 0.000930929 6.8074e-19)
(0.992111 0.00271632 4.9684e-19)
(0.94761 0.00490695 1.15056e-18)
(0.907518 0.0101164 -6.75575e-19)
(0.758069 0.0147503 -1.24388e-19)
(0.651072 0.0231204 -1.68282e-18)
(0.331266 0.0162739 -2.22805e-18)
(0.363775 0.0357878 -1.17849e-17)
(1.00997 0.000151025 -2.38191e-19)
(1.00792 0.00066681 -5.81734e-19)
(0.99997 0.00119201 1.93317e-18)
(0.992429 0.00348318 -2.90204e-19)
(0.948559 0.00627022 2.09287e-18)
(0.909749 0.0129395 -5.24778e-19)
(0.763281 0.0188032 -1.73501e-18)
(0.660502 0.0294928 -1.78791e-18)
(0.345042 0.0209555 -1.9889e-18)
(0.371021 0.0461263 -2.53926e-17)
(1.00998 0.000183992 -3.79034e-19)
(1.00796 0.00081221 -1.1398e-18)
(1.00012 0.00144891 1.25423e-18)
(0.992826 0.00423781 -1.32793e-18)
(0.949744 0.00760422 -1.72917e-18)
(0.912568 0.0156951 -4.9859e-19)
(0.769903 0.0227385 -3.8803e-18)
(0.672594 0.0357049 -1.16038e-18)
(0.363133 0.025685 -1.90327e-18)
(0.379964 0.0567147 -1.89302e-17)
(1.00999 0.000216512 -5.65464e-19)
(1.00801 0.00095544 -9.80021e-19)
(1.0003 0.0017007 6.98228e-19)
(0.993303 0.00497719 -2.38659e-18)
(0.951164 0.0089012 -5.96857e-18)
(0.915984 0.0183662 -1.11052e-19)
(0.777961 0.0265238 -6.8651e-18)
(0.687438 0.0417125 9.24997e-19)
(0.385928 0.0304911 -1.65218e-18)
(0.390352 0.0676325 -2.51603e-17)
(1.01001 0.000248522 -4.78645e-19)
(1.00807 0.00109631 -9.91018e-19)
(1.00051 0.0019455 2.76052e-19)
(0.993859 0.00569877 -1.99768e-18)
(0.952814 0.0101515 -6.64018e-18)
(0.91999 0.0209331 1.47532e-18)
(0.787445 0.030121 -1.11899e-17)
(0.705041 0.0474598 1.20527e-18)
(0.413738 0.0354105 -7.6119e-20)
(0.401833 0.0789024 -1.15855e-17)
(1.01003 0.000279355 -4.56785e-19)
(1.00814 0.00123386 -2.52303e-19)
(1.00074 0.00218013 -1.57525e-19)
(0.99449 0.00639581 -1.60351e-18)
(0.954685 0.011348 -9.19748e-18)
(0.924563 0.0233662 3.20268e-18)
(0.798294 0.0335127 -1.03678e-17)
(0.725301 0.0529036 5.32917e-20)
(0.446768 0.040427 2.61183e-19)
(0.41402 0.0909381 -9.68829e-18)
(1.01005 0.000309562 -5.37477e-19)
(1.00821 0.00136552 3.52685e-19)
(1.001 0.00241152 -2.79538e-18)
(0.995193 0.00705879 -1.08385e-18)
(0.95676 0.0125017 -8.99445e-18)
(0.929656 0.0256588 3.56229e-18)
(0.810388 0.0367236 -1.15261e-17)
(0.747983 0.058057 2.13659e-18)
(0.485104 0.0455852 1.56259e-18)
(0.426585 0.104204 -1.50504e-17)
(0.99803 -0.000753415 1.59433e-19)
(1.005 -0.00287469 3.19744e-19)
(0.996432 0.00844293 5.70724e-21)
(1.00795 -0.0207738 1.8474e-19)
(1.00038 0.0213346 3.97833e-19)
(1.01289 -0.034934 -4.15067e-19)
(1.02079 0.00605082 -1.30171e-20)
(1.03168 -0.047613 -1.04746e-18)
(1.06789 -0.0222763 2.19901e-18)
(1.07765 -0.0872389 2.46916e-18)
(0.998634 -0.0019306 1.84512e-19)
(1.0052 -0.00142935 1.83964e-19)
(0.995575 0.00642573 1.46084e-19)
(1.00825 -0.0201581 -3.24689e-19)
(0.998956 0.0189539 1.28818e-18)
(1.01074 -0.0386646 -3.39234e-18)
(1.01682 0.00238413 -4.10601e-19)
(1.02779 -0.0617751 5.59623e-18)
(1.06173 -0.0288533 -3.90126e-18)
(1.06784 -0.120273 -1.23924e-18)
(0.999143 -0.00252919 3.43211e-19)
(1.00522 -0.000482316 -1.59845e-19)
(0.99512 0.00542368 1.22072e-19)
(1.00811 -0.0195299 -9.90145e-19)
(0.997778 0.0179981 6.20514e-18)
(1.00868 -0.0394052 -2.74017e-17)
(1.01321 0.000928008 1.3728e-17)
(1.02314 -0.0659467 2.31237e-17)
(1.05538 -0.030095 4.46702e-18)
(1.05972 -0.137136 7.60006e-18)
(1.00016 -0.00369896 -1.00215e-19)
(1.00445 0.00121334 1.96624e-19)
(0.995459 0.00374736 2.63356e-19)
(1.00693 -0.0187138 -6.03131e-19)
(0.997062 0.0167632 2.03625e-18)
(1.00592 -0.0406731 -7.34611e-18)
(1.00769 -0.001559 2.61865e-17)
(1.01744 -0.0751309 -3.3907e-19)
(1.04751 -0.0329365 1.0522e-17)
(1.04968 -0.16882 5.28349e-18)
(1.00175 -0.00462868 -1.12487e-18)
(1.00233 0.00265893 3.11544e-18)
(0.997552 0.00237742 -8.54151e-19)
(1.00398 -0.0174238 -2.75011e-18)
(0.99724 0.0155039 -3.05142e-18)
(1.00329 -0.0402164 -2.11417e-18)
(1.00147 -0.00362011 6.03332e-18)
(1.01035 -0.0803712 -2.65662e-17)
(1.03756 -0.0349326 -2.445e-18)
(1.04193 -0.202064 -1.04825e-17)
(1.00428 -0.00557896 -7.33606e-18)
(0.998264 0.00422789 2.90574e-17)
(1.00192 0.000896346 -1.68225e-17)
(0.998641 -0.0158556 -2.31528e-17)
(0.999131 0.0140665 -3.59288e-17)
(0.999493 -0.0388215 -2.96985e-18)
(0.994719 -0.00554593 -2.28864e-17)
(1.0022 -0.0856179 -3.25081e-17)
(1.02225 -0.0360185 -5.65856e-19)
(1.03532 -0.243786 -1.32974e-17)
(1.00786 -0.00618841 -2.29094e-17)
(0.991946 0.00536085 -2.60159e-18)
(1.00901 -0.000323734 -1.91344e-18)
(0.990321 -0.013655 -2.03109e-18)
(1.0036 0.0119178 -3.79599e-18)
(0.993818 -0.0352483 -9.15622e-19)
(0.989186 -0.00797668 -1.28653e-18)
(0.992486 -0.0854988 -8.35516e-18)
(1.00079 -0.0425675 2.95735e-17)
(1.02477 -0.28962 -1.30163e-17)
(1.01238 -0.00636153 -1.66366e-18)
(0.983498 0.00598166 -5.4478e-19)
(1.01864 -0.0013717 -3.00839e-19)
(0.978718 -0.0110618 -3.40547e-19)
(1.01193 0.00945378 -1.7958e-19)
(0.983747 -0.0306382 6.61178e-20)
(0.988333 -0.00888042 3.94666e-19)
(0.977227 -0.0857898 -3.04754e-18)
(0.975129 -0.0415896 9.26044e-18)
(1.01928 -0.368376 -1.3479e-17)
(1.01725 -0.00583765 -1.73661e-19)