/*--------------------------------*- C++ -*----------------------------------*\
  =========                 |
  \\      /  F ield         | OpenFOAM: The Open Source CFD Toolbox
   \\    /   O peration     | Website:  https://openfoam.org
    \\  /    A nd           | Version:  7
     \\/     M anipulation  |
\*---------------------------------------------------------------------------*/
FoamFile
{
    version     2.0;
    format      ascii;
    class       surfaceScalarField;
    location    "36";
    object      phi;
}
// * * * * * * * * * * * * * * * * * * * * * * * * * * * * * * * * * * * * * //

dimensions      [0 3 -1 0 0 0 0];

internalField   nonuniform List<scalar> 
225
(
-0.00480152
0.00104912
-0.00490483
0.00103976
-0.00501945
0.00103732
-0.0051442
0.00104136
-0.00527798
0.00105134
0.00106663
-0.00530776
0.00138763
-0.00528209
0.00137635
-0.00526532
0.00135522
-0.00525985
0.00132766
-0.00526751
0.00129678
-0.00528948
0.00126524
-0.00532637
0.00123525
-0.00537821
0.00120852
-0.00544457
0.00118632
-0.0055247
0.00116951
-0.00561763
0.0011586
-0.00572229
0.00115379
-0.00583758
0.00115504
-0.0059624
0.00116214
-0.00609577
0.00117473
-0.00623674
0.00119232
0.00121439
-0.00606319
0.00137427
-0.0060574
0.00137057
-0.00606138
0.00135919
-0.00607675
0.00134303
-0.00610461
0.00132464
-0.00614551
0.00130614
-0.00619951
0.00128926
-0.00626633
0.00127534
-0.00634539
0.00126538
-0.00643593
0.00126005
-0.00653709
0.00125976
-0.00664796
0.00126466
-0.00676763
0.00127471
-0.00689519
0.00128971
-0.00702979
0.00130933
-0.0071706
0.00133313
0.00136064
-0.00685656
0.00138024
-0.00686958
0.00138359
-0.00689122
0.00138082
-0.00692257
0.00137439
-0.00696433
0.00136639
-0.00701676
0.00135857
-0.00707983
0.00135233
-0.00715328
0.00134879
-0.00723663
0.00134874
-0.00732931
0.00135273
-0.00743064
0.00136109
-0.00753989
0.00137391
-0.0076563
0.00139112
-0.00777909
0.00141249
-0.00790745
0.00143769
-0.00804058
0.00146627
0.00149774
-0.00766465
0.001401
-0.00769044
0.00140937
-0.00772253
0.00141291
-0.00776185
0.00141372
-0.00780903
0.00141357
-0.00786439
0.00141393
-0.00792802
0.00141597
-0.00799983
0.00142059
-0.00807953
0.00142844
-0.00816673
0.00143993
-0.00826091
0.00145527
-0.00836146
0.00147446
-0.0084677
0.00149736
-0.00857889
0.00152369
-0.00869427
0.00155306
-0.00881301
0.00158501
0.00161903
-0.00844869
0.00142926
-0.00847941
0.00144009
-0.00851387
0.00144738
-0.00855309
0.00145294
-0.00859785
0.00145832
-0.00864864
0.00146472
-0.00870575
0.00147308
-0.00876923
0.00148408
-0.00883899
0.0014982
-0.00891472
0.00151567
-0.00899603
0.00153657
-0.00908237
0.0015608
-0.00917312
0.00158811
-0.00926758
0.00161814
-0.00936498
0.00165047
-0.00946455
0.00168458
0.00171996
-0.0091543
0.00145858
-0.00918362
0.00146942
-0.00921445
0.00147821
-0.00924803
0.00148651
-0.00928532
0.00149561
-0.009327
0.0015064
-0.0093735
0.00151958
-0.00942499
0.00153557
-0.00948144
0.00155465
-0.00954266
0.00157688
-0.00960827
0.00160218
-0.00967779
0.00163032
-0.00975064
0.00166095
-0.00982615
0.00169366
-0.00990362
0.00172794
-0.00998231
0.00176327
0.00179914
-0.00967487
-0.00970096
-0.009727
-0.00975447
-0.00978452
-0.00981794
-0.0098552
-0.00989653
-0.0099419
-0.00999112
-0.0100438
-0.0100996
-0.0101577
-0.0102178
-0.010279
-0.0103407
)
;

boundaryField
{
    inlet
    {
        type            calculated;
        value           nonuniform 0();
    }
    outlet
    {
        type            calculated;
        value           nonuniform 0();
    }
    polygon
    {
        type            calculated;
        value           nonuniform 0();
    }
    top
    {
        type            symmetryPlane;
        value           uniform 0;
    }
    bottom
    {
        type            symmetryPlane;
        value           uniform 0;
    }
    outside
    {
        type            calculated;
        value           nonuniform List<scalar> 
17
(
0.00148654
0.0014955
0.00150425
0.00151399
0.00152566
0.00153981
0.00155684
0.0015769
0.00160002
0.0016261
0.00165489
0.00168605
0.00171914
0.00175368
0.00178914
0.00182499
0.0018607
)
;
    }
    procBoundary5to4
    {
        type            processor;
        value           nonuniform List<scalar> 7(-0.00638451 -0.00731684 -0.00817768 -0.00893431 -0.00956548 -0.0100615 -0.0104023);
    }
    procBoundary5to6
    {
        type            processor;
        value           nonuniform List<scalar> 7(0.00533949 0.00607655 0.00685058 0.0076439 0.00842042 0.00912498 0.00964692);
    }
    procBoundary5to12
    {
        type            processor;
        value           uniform -0.0054198;
    }
    procBoundary5to13
    {
        type            processor;
        value           nonuniform List<scalar> 
18
(
-0.000958374
-0.000936454
-0.000922691
-0.000916612
-0.000917568
-0.00092481
-0.00141936
-0.00140202
-0.00137198
-0.00133313
-0.00128913
-0.00124327
-0.00119836
-0.00115669
-0.00111996
-0.00108938
0.00471077
-0.00106566
)
;
    }
}


// ************************************************************************* //
