/*--------------------------------*- C++ -*----------------------------------*\
  =========                 |
  \\      /  F ield         | OpenFOAM: The Open Source CFD Toolbox
   \\    /   O peration     | Website:  https://openfoam.org
    \\  /    A nd           | Version:  7
     \\/     M anipulation  |
\*---------------------------------------------------------------------------*/
FoamFile
{
    version     2.0;
    format      ascii;
    class       volScalarField;
    location    "26";
    object      p;
}
// * * * * * * * * * * * * * * * * * * * * * * * * * * * * * * * * * * * * * //

dimensions      [0 2 -2 0 0 0 0];

internalField   nonuniform List<scalar> 
115
(
-0.00443393
-0.00674852
-0.0089157
-0.0109165
-0.0127363
-0.014362
-0.0157819
-0.0169789
-0.0179449
-0.0186403
-0.0191377
-0.0191492
-0.0194618
-0.018146
-0.0208206
-0.0162716
-0.0291787
-0.00372128
-0.00607888
-0.00829444
-0.0103475
-0.012222
-0.0139028
-0.0153765
-0.0166217
-0.0145034
-0.0153734
-0.0159445
-0.0161914
-0.0160977
-0.0156558
-0.0148597
-0.0137864
-0.0129314
-0.0134389
-0.00451394
-0.00688604
-0.00904587
-0.010989
-0.0127128
-0.0142128
-0.0154804
-0.0165011
-0.0172542
-0.0177144
-0.017859
-0.0176766
-0.0171799
-0.016473
-0.0161599
-0.0159688
-0.00481101
-0.00720431
-0.00939847
-0.0113886
-0.0131721
-0.0147457
-0.0161029
-0.0172316
-0.0181144
-0.0187287
-0.0190535
-0.0190799
-0.018854
-0.0182824
-0.0189707
-0.0161796
-0.00491727
-0.00731284
-0.00952307
-0.0115411
-0.0133632
-0.014986
-0.0164038
-0.0176059
-0.0185777
-0.0192987
-0.0197522
-0.0199141
-0.0199682
-0.0192015
-0.0213848
-0.0164838
-0.00482934
-0.00721364
-0.00942825
-0.0114621
-0.0133083
-0.0149612
-0.0164147
-0.0176585
-0.0186811
-0.0194646
-0.0200081
-0.0202253
-0.0205801
-0.0195482
-0.0228318
-0.0170508
-0.0049216
-0.0072792
-0.00947315
-0.0114914
-0.0133259
-0.0149697
-0.0164157
-0.0176534
-0.0186724
-0.0194539
-0.02001
-0.0202487
-0.0206724
-0.0198571
-0.0225293
-0.0187981
)
;

boundaryField
{
    inlet
    {
        type            zeroGradient;
    }
    outlet
    {
        type            fixedValue;
        value           nonuniform 0();
    }
    polygon
    {
        type            zeroGradient;
    }
    top
    {
        type            symmetryPlane;
    }
    bottom
    {
        type            symmetryPlane;
    }
    outside
    {
        type            slip;
    }
    procBoundary42to33
    {
        type            processor;
        value           nonuniform List<scalar> 7(-0.0233879 -0.0324489 -0.0244333 -0.0306098 -0.0361919 -0.0391367 -0.0324489);
    }
    procBoundary42to34
    {
        type            processor;
        value           nonuniform List<scalar> 
18
(
-0.00331551
-0.00564944
-0.00785588
-0.00991076
-0.0117954
-0.0134926
-0.0149883
-0.0162589
-0.0176292
-0.0183412
-0.0188404
-0.0188266
-0.0191057
-0.0176255
-0.0198026
-0.0150399
-0.0245176
-0.0176292
)
;
    }
    procBoundary42to35
    {
        type            processor;
        value           nonuniform List<scalar> 2(-0.00199791 -0.00124891);
    }
    procBoundary42to41
    {
        type            processor;
        value           uniform -0.0170274;
    }
    procBoundary42to43
    {
        type            processor;
        value           nonuniform List<scalar> 5(-0.00193902 -0.00222942 -0.00234972 -0.00229336 -0.00241934);
    }
    procBoundary42to50
    {
        type            processor;
        value           nonuniform List<scalar> 
17
(
-0.0131431
-0.0138156
-0.0141488
-0.0141153
-0.0136955
-0.0128584
-0.0115403
-0.00977172
-0.00807965
-0.00759205
-0.00399571
-0.00632992
-0.00843894
-0.0103172
-0.0119597
-0.0133592
-0.0133592
)
;
    }
}


// ************************************************************************* //
