/*--------------------------------*- C++ -*----------------------------------*\
  =========                 |
  \\      /  F ield         | OpenFOAM: The Open Source CFD Toolbox
   \\    /   O peration     | Website:  https://openfoam.org
    \\  /    A nd           | Version:  7
     \\/     M anipulation  |
\*---------------------------------------------------------------------------*/
FoamFile
{
    version     2.0;
    format      ascii;
    class       volScalarField;
    location    "28";
    object      p;
}
// * * * * * * * * * * * * * * * * * * * * * * * * * * * * * * * * * * * * * //

dimensions      [0 2 -2 0 0 0 0];

internalField   nonuniform List<scalar> 
125
(
-0.452111
-0.435497
-0.414763
-0.390669
-0.364013
-0.335599
-0.3062
-0.27653
-0.247217
-0.218792
-0.191681
-0.443316
-0.461568
-0.473196
-0.478293
-0.477084
-0.469931
-0.457333
-0.439903
-0.418351
-0.393456
-0.36603
-0.33689
-0.306821
-0.276542
-0.24669
-0.217796
-0.190289
-0.447816
-0.466061
-0.477553
-0.482398
-0.480843
-0.473277
-0.460214
-0.44229
-0.420231
-0.39483
-0.366913
-0.337307
-0.306805
-0.276134
-0.245935
-0.216745
-0.188991
-0.448275
-0.46672
-0.478315
-0.483174
-0.481559
-0.473874
-0.46065
-0.442535
-0.42027
-0.394657
-0.366532
-0.336731
-0.306049
-0.27522
-0.244888
-0.21559
-0.187756
-0.444838
-0.46367
-0.475581
-0.480688
-0.479268
-0.471735
-0.45863
-0.440609
-0.418423
-0.392882
-0.364828
-0.3351
-0.304494
-0.273746
-0.243499
-0.21429
-0.186549
-0.437738
-0.457126
-0.469545
-0.47511
-0.474112
-0.466972
-0.454238
-0.436572
-0.414732
-0.389532
-0.36181
-0.332415
-0.302133
-0.271697
-0.241749
-0.212823
-0.185345
-0.427305
-0.447393
-0.460486
-0.466702
-0.466328
-0.459802
-0.447665
-0.430591
-0.409338
-0.384726
-0.357563
-0.32874
-0.29901
-0.269101
-0.239649
-0.211184
-0.184126
-0.414011
-0.434903
-0.448809
-0.455839
-0.45628
-0.450539
-0.439191
-0.422912
-0.402456
-0.378636
-0.352276
-0.32422
)
;

boundaryField
{
    inlet
    {
        type            zeroGradient;
    }
    outlet
    {
        type            fixedValue;
        value           nonuniform 0();
    }
    polygon
    {
        type            zeroGradient;
    }
    top
    {
        type            symmetryPlane;
    }
    bottom
    {
        type            symmetryPlane;
    }
    outside
    {
        type            slip;
    }
    procBoundary53to45
    {
        type            processor;
        value           nonuniform List<scalar> 
18
(
-0.295236
-0.266036
-0.237249
-0.209397
-0.182886
-0.398492
-0.420237
-0.435046
-0.443012
-0.444436
-0.439613
-0.429215
-0.413898
-0.394411
-0.371558
-0.34616
-0.295236
-0.319036
)
;
    }
    procBoundary53to46
    {
        type            processor;
        value           uniform -0.386199;
    }
    procBoundary53to52
    {
        type            processor;
        value           nonuniform List<scalar> 6(-0.164494 -0.162998 -0.161709 -0.160599 -0.159639 -0.1588);
    }
    procBoundary53to54
    {
        type            processor;
        value           nonuniform List<scalar> 6(-0.418504 -0.422873 -0.423024 -0.419118 -0.411408 -0.400262);
    }
    procBoundary53to60
    {
        type            processor;
        value           uniform -0.166208;
    }
    procBoundary53to61
    {
        type            processor;
        value           nonuniform List<scalar> 
18
(
-0.444748
-0.429282
-0.409677
-0.386672
-0.361048
-0.333596
-0.305079
-0.276203
-0.247592
-0.219775
-0.193178
-0.434722
-0.453213
-0.465246
-0.470888
-0.470335
-0.463918
-0.463918
)
;
    }
}


// ************************************************************************* //
