/*--------------------------------*- C++ -*----------------------------------*\
  =========                 |
  \\      /  F ield         | OpenFOAM: The Open Source CFD Toolbox
   \\    /   O peration     | Website:  https://openfoam.org
    \\  /    A nd           | Version:  7
     \\/     M anipulation  |
\*---------------------------------------------------------------------------*/
FoamFile
{
    version     2.0;
    format      ascii;
    class       surfaceScalarField;
    location    "84";
    object      phi;
}
// * * * * * * * * * * * * * * * * * * * * * * * * * * * * * * * * * * * * * //

dimensions      [0 3 -1 0 0 0 0];

internalField   nonuniform List<scalar> 
226
(
-0.00928927
0.00177343
-0.00946609
0.00181291
-0.0096371
0.00185143
-0.00980157
0.00188889
-0.00995877
0.00192523
-0.010108
0.00196038
-0.0102487
0.00199429
-0.0103803
0.00202693
-0.0105021
0.00205829
-0.0106139
0.00208837
-0.0107153
0.00211723
-0.0108059
0.00214493
0.00217156
-0.00949914
0.00181274
-0.00965653
0.00184933
-0.00980809
0.00188463
-0.00995325
0.00191858
-0.0100915
0.00195113
-0.0102223
0.00198224
-0.0103453
0.00201187
-0.01046
0.00204001
-0.0105663
0.00206666
-0.0106639
0.00209186
-0.0107526
0.00211564
-0.0108324
0.00213807
-0.0109032
0.00215923
-0.0109652
0.00217924
-0.0110185
0.00219823
0.00221635
-0.0100795
0.00194087
-0.0102012
0.00197101
-0.010316
0.00199952
-0.0104239
0.0020264
-0.0105244
0.00205165
-0.0106174
0.0020753
-0.010703
0.00209739
-0.0107809
0.00211795
-0.0108513
0.00213708
-0.0109143
0.00215483
-0.01097
0.00217133
-0.0110186
0.00218667
-0.0110604
0.002201
-0.0110956
0.00221444
-0.0111245
0.00222715
0.0022393
-0.0104879
0.00203559
-0.0105762
0.00205928
-0.0106579
0.00208127
-0.0107331
0.00210161
-0.0108018
0.00212036
-0.0108641
0.0021376
-0.0109202
0.00215343
-0.0109701
0.00216792
-0.0110143
0.0021812
-0.0110528
0.00219337
-0.011086
0.00220455
-0.0111142
0.00221488
-0.0111377
0.00222448
-0.0111567
0.00223348
-0.0111716
0.00224201
0.00225021
-0.0107558
0.00210191
-0.0108166
0.00212002
-0.0108719
0.00213654
-0.0109218
0.00215157
-0.0109667
0.00216522
-0.0110066
0.00217758
-0.011042
0.00218877
-0.011073
0.0021989
-0.0110999
0.0022081
-0.011123
0.00221646
-0.0111425
0.00222411
-0.0111588
0.00223115
-0.011172
0.00223769
-0.0111823
0.00224382
-0.01119
0.00224964
0.00225523
-0.0109198
0.00214657
-0.0109602
0.00216036
-0.0109964
0.00217277
-0.0110287
0.00218392
-0.0110574
0.00219393
-0.0110828
0.00220291
-0.011105
0.00221098
-0.0111243
0.00221824
-0.011141
0.0022248
-0.0111553
0.00223074
-0.0111674
0.00223617
-0.0111773
0.00224114
-0.0111854
0.00224573
-0.0111916
0.00225
-0.0111959
0.00225398
0.00225771
-0.0110132
0.00217624
-0.0110398
0.00218696
-0.0110636
0.00219653
-0.0110847
0.00220507
-0.0111035
0.0022127
-0.0111201
0.00221951
-0.0111347
0.00222561
-0.0111476
0.00223109
-0.0111588
0.00223603
-0.0111685
0.00224048
-0.0111769
0.00224451
-0.0111839
0.00224815
-0.0111896
0.00225144
-0.011194
0.00225439
-0.011197
0.00225699
0.00225924
-0.011061
-0.0110795
-0.011096
-0.0111109
-0.0111242
-0.0111362
-0.0111469
-0.0111565
-0.0111651
-0.0111727
-0.0111794
-0.0111851
-0.0111898
-0.0111934
-0.0111959
)
;

boundaryField
{
    inlet
    {
        type            calculated;
        value           nonuniform 0();
    }
    outlet
    {
        type            calculated;
        value           nonuniform 0();
    }
    polygon
    {
        type            calculated;
        value           nonuniform 0();
    }
    top
    {
        type            symmetryPlane;
        value           uniform 0;
    }
    bottom
    {
        type            symmetryPlane;
        value           uniform 0;
    }
    outside
    {
        type            calculated;
        value           nonuniform List<scalar> 
16
(
0.00219678
0.0022054
0.00221308
0.00221992
0.00222602
0.00223147
0.00223634
0.0022407
0.00224461
0.00224809
0.00225117
0.00225387
0.00225616
0.00225804
0.00225947
0.0022604
)
;
    }
    procBoundary3to2
    {
        type            processor;
        value           nonuniform List<scalar> 7(-0.0110633 -0.0111474 -0.0111825 -0.011195 -0.0111984 -0.0111985 -0.0111971);
    }
    procBoundary3to4
    {
        type            processor;
        value           nonuniform List<scalar> 7(0.00933652 0.00995133 0.0103932 0.0106895 0.0108751 0.0109835 0.0110405);
    }
    procBoundary3to10
    {
        type            processor;
        value           uniform -0.0108857;
    }
    procBoundary3to11
    {
        type            processor;
        value           nonuniform List<scalar> 
17
(
-0.00159157
-0.00163609
-0.00168041
-0.00172443
-0.00176803
-0.00181112
-0.00185361
-0.0018954
-0.00193642
-0.00197659
-0.00201588
-0.00205427
-0.00209175
-0.00165012
-0.00169193
0.00910741
-0.00173307
)
;
    }
}


// ************************************************************************* //
