/*--------------------------------*- C++ -*----------------------------------*\
  =========                 |
  \\      /  F ield         | OpenFOAM: The Open Source CFD Toolbox
   \\    /   O peration     | Website:  https://openfoam.org
    \\  /    A nd           | Version:  7
     \\/     M anipulation  |
\*---------------------------------------------------------------------------*/
FoamFile
{
    version     2.0;
    format      ascii;
    class       surfaceScalarField;
    location    "5";
    object      phi;
}
// * * * * * * * * * * * * * * * * * * * * * * * * * * * * * * * * * * * * * //

dimensions      [0 3 -1 0 0 0 0];

internalField   nonuniform List<scalar> 
131
(
-0.000484259
0.0174147
-0.000671419
0.0175588
-0.000865162
0.0176716
-0.00107008
0.0178707
-0.00128962
0.0181556
0.0185869
-0.000478954
0.0175905
-0.000663335
0.0177431
-0.000853525
0.0178618
-0.0010538
0.018071
-0.00126553
0.0183673
0.018826
-0.000473307
0.0177637
-0.000655003
0.0179248
-0.000841699
0.0180485
-0.00103759
0.0182669
-0.00124264
0.0185724
0.019055
-0.000467296
0.0179346
-0.000646321
0.0181039
-0.000829568
0.0182317
-0.00102114
0.0184585
-0.00121964
0.0187709
0.0192731
-0.000460928
0.018103
-0.000637235
0.0182802
-0.000816943
0.0184114
-0.00100391
0.0186454
-0.00119549
0.0189624
0.0194792
-0.000454309
0.018269
-0.000627836
0.0184537
-0.000803847
0.0185875
-0.000985809
0.0188274
-0.00116978
0.0191464
0.0196719
-0.000447304
0.0184328
-0.000618063
0.0186244
-0.000790336
0.0187597
-0.000967209
0.0190043
-0.00114354
0.0193227
0.0198513
-0.000440459
0.0185943
-0.000608368
0.0187924
-0.000776686
0.018928
-0.000947942
0.0191755
-0.00111553
0.0194903
0.0200145
-0.000432308
0.0187537
-0.00059765
0.0189577
-0.000762412
0.0190928
-0.000928911
0.019342
-0.00108942
0.0196508
0.0201656
-0.000427679
0.0189116
-0.000588915
0.0191189
-0.00074953
0.0192534
-0.000907964
0.0195005
-0.00105686
0.0197997
-0.0173378
0.00494012
-0.0179302
0.00143474
-0.000359275
-0.017319
0.00543112
-0.0180186
0.00213433
0.000741034
-0.0173351
0.00595593
-0.0181031
0.00290238
0.00189135
-0.0173414
0.00651504
-0.0182089
0.00376993
0.0031829
-0.0173631
-0.0183136
)
;

boundaryField
{
    inlet
    {
        type            calculated;
        value           nonuniform 0();
    }
    outlet
    {
        type            calculated;
        value           nonuniform 0();
    }
    polygon
    {
        type            calculated;
        value           nonuniform 0();
    }
    top
    {
        type            symmetryPlane;
        value           uniform 0;
    }
    bottom
    {
        type            symmetryPlane;
        value           uniform 0;
    }
    outside
    {
        type            calculated;
        value           nonuniform List<scalar> 
13
(
0.000306094
0.000303232
0.000300036
0.000296467
0.000292508
0.000288253
0.000283545
0.000278961
0.000272903
0.000269825
-0.00446026
-0.00084234
0.00134063
)
;
    }
    procBoundary14to10
    {
        type            processor;
        value           nonuniform List<scalar> 
14
(
-0.0015377
-0.0015046
-0.0014717
-0.0014377
-0.00140161
-0.00136248
-0.00132293
-0.00127876
-0.00124052
-0.00118388
0.0202927
0.00711893
0.00472037
0.00466908
)
;
    }
    procBoundary14to13
    {
        type            processor;
        value           nonuniform List<scalar> 6(-0.0172366 -0.0173716 -0.0174779 -0.0176658 -0.017936 -0.0183388);
    }
    procBoundary14to15
    {
        type            processor;
        value           nonuniform List<scalar> 5(0.0168579 0.016828 0.0168102 0.0167823 0.0167592);
    }
}


// ************************************************************************* //
