/*--------------------------------*- C++ -*----------------------------------*\
  =========                 |
  \\      /  F ield         | OpenFOAM: The Open Source CFD Toolbox
   \\    /   O peration     | Website:  https://openfoam.org
    \\  /    A nd           | Version:  7
     \\/     M anipulation  |
\*---------------------------------------------------------------------------*/
FoamFile
{
    version     2.0;
    format      ascii;
    class       volVectorField;
    location    "112";
    object      U;
}
// * * * * * * * * * * * * * * * * * * * * * * * * * * * * * * * * * * * * * //

dimensions      [0 1 -1 0 0 0 0];

internalField   nonuniform List<vector> 
125
(
(1.34017 0.187599 1.92186e-18)
(1.34279 0.188465 1.38708e-18)
(1.34512 0.189232 2.31954e-19)
(1.34722 0.18991 -2.59183e-19)
(1.34909 0.190511 2.37702e-19)
(1.35076 0.191042 -1.10115e-19)
(1.35225 0.191513 9.64166e-20)
(1.35359 0.191932 4.59456e-20)
(1.35478 0.192304 2.16939e-19)
(1.35585 0.192634 6.82094e-20)
(1.3568 0.192928 -1.7402e-19)
(1.35764 0.193187 -1.64811e-19)
(1.35837 0.193413 -2.12747e-19)
(1.35899 0.193606 -3.74789e-20)
(1.35948 0.193765 -1.79721e-19)
(1.35985 0.193887 -2.02719e-19)
(1.36007 0.193968 1.17071e-19)
(1.33266 0.184833 8.73077e-18)
(1.33644 0.185995 7.07152e-18)
(1.33983 0.187032 4.04519e-18)
(1.34285 0.187954 -1.62692e-18)
(1.34554 0.188773 7.34225e-19)
(1.34792 0.1895 -2.40684e-19)
(1.35002 0.190146 1.5344e-19)
(1.35188 0.190722 -1.2118e-19)
(1.35351 0.191236 1.13537e-20)
(1.35493 0.191698 6.84731e-20)
(1.35617 0.192115 -1.76051e-19)
(1.35724 0.192495 -2.58384e-19)
(1.35815 0.192842 -3.72655e-19)
(1.3589 0.193161 -1.32685e-19)
(1.3595 0.193456 -1.84435e-20)
(1.35994 0.193728 -3.04159e-19)
(1.36022 0.193978 3.64788e-20)
(1.31853 0.181483 2.18898e-19)
(1.32421 0.182977 1.35563e-19)
(1.32934 0.184326 9.92694e-20)
(1.33395 0.185541 -3.51502e-20)
(1.33808 0.186631 1.632e-19)
(1.34174 0.187607 1.74674e-20)
(1.34498 0.188481 -6.32342e-20)
(1.34782 0.189262 -3.91067e-20)
(1.3503 0.189963 1.74431e-19)
(1.35245 0.190592 1.8689e-20)
(1.3543 0.19116 -1.32339e-19)
(1.35587 0.191677 -3.3535e-19)
(1.35718 0.192152 -6.0141e-20)
(1.35826 0.192592 1.64736e-19)
(1.3591 0.193004 -1.34989e-19)
(1.35973 0.193395 1.01126e-19)
(1.36015 0.193768 9.72213e-20)
(1.2946 0.176447 -1.64608e-19)
(1.30298 0.178386 3.00189e-20)
(1.31067 0.180167 -5.46219e-20)
(1.31768 0.181797 -9.2443e-20)
(1.32404 0.183283 -1.2495e-19)
(1.32976 0.184634 -2.5389e-19)
(1.33487 0.185858 -1.3338e-19)
(1.3394 0.186965 -1.49945e-19)
(1.34338 0.187967 -7.82764e-21)
(1.34686 0.188874 1.4746e-19)
(1.34986 0.189698 -2.10024e-19)
(1.35242 0.19045 -2.12295e-19)
(1.35456 0.19114 1.37863e-20)
(1.35633 0.191782 -2.62609e-20)
(1.35775 0.192384 -1.30954e-21)
(1.35883 0.192959 -1.80336e-19)
(1.35959 0.193513 -8.06766e-21)
(1.2568 0.169151 -1.93712e-19)
(1.26868 0.171623 1.42658e-19)
(1.27977 0.173938 -2.52799e-19)
(1.29008 0.176097 -3.77314e-20)
(1.29958 0.178103 -6.01076e-20)
(1.30829 0.179959 -1.01361e-19)
(1.31621 0.181672 2.81685e-20)
(1.32336 0.183248 -8.03519e-20)
(1.32976 0.184696 -1.9469e-19)
(1.33544 0.186023 2.31178e-20)
(1.34043 0.187241 4.35639e-20)
(1.34476 0.18836 -2.25787e-21)
(1.34846 0.189394 -6.51435e-20)
(1.35158 0.190354 -2.12074e-20)
(1.35414 0.191253 3.17147e-19)
(1.35619 0.192106 -1.86641e-19)
(1.35775 0.192925 8.69516e-20)
(1.20103 0.159116 -1.00156e-21)
(1.21696 0.162146 2.13303e-19)
(1.23212 0.165041 -2.42373e-19)
(1.24648 0.167796 -1.03774e-19)
(1.25999 0.17041 4.26331e-20)
(1.27262 0.172879 -1.09218e-19)
(1.28436 0.175204 7.43481e-21)
(1.29518 0.177387 6.9434e-20)
(1.30509 0.179429 2.25926e-20)
(1.31407 0.181337 3.263e-19)
(1.32215 0.183116 5.50945e-20)
(1.32933 0.184774 6.86664e-20)
(1.33564 0.186321 -1.09273e-19)
(1.34112 0.187768 8.43548e-20)
(1.34578 0.189128 -6.288e-20)
(1.34966 0.190414 -2.0441e-19)
(1.3528 0.191642 -1.29106e-19)
(1.12421 0.146127 1.97606e-18)
(1.14424 0.149643 1.40551e-18)
(1.16368 0.15307 1.42425e-19)
(1.18244 0.156398 -6.312e-19)
(1.20046 0.159622 1.87933e-19)
(1.21767 0.162734 -3.79796e-19)
(1.234 0.165728 -5.49877e-20)
(1.24941 0.1686 2.26048e-19)
(1.26384 0.171346 3.2365e-19)
(1.27726 0.173965 4.04494e-21)
(1.28963 0.176457 -2.61911e-19)
(1.30094 0.178824 -2.7122e-20)
(1.31116 0.181069 -3.71271e-20)
(1.32031 0.183199 2.64322e-19)
(1.32837 0.185221 6.92811e-20)
(1.33537 0.187147 -1.055e-19)
(1.34133 0.188988 -2.73222e-19)
(1.02553 0.130423 1.06694e-17)
(1.04902 0.134243 8.7137e-18)
(1.07223 0.138037 4.68505e-18)
(1.09506 0.141794 -1.96017e-18)
(1.11741 0.145507 7.74107e-19)
(1.13921 0.149167 -4.70255e-19)
)
;

boundaryField
{
    inlet
    {
        type            uniformFixedValue;
        uniformValue    constant (1 0 0);
        value           nonuniform 0();
    }
    outlet
    {
        type            pressureInletOutletVelocity;
        value           nonuniform 0();
    }
    polygon
    {
        type            fixedValue;
        value           nonuniform 0();
    }
    top
    {
        type            symmetryPlane;
    }
    bottom
    {
        type            symmetryPlane;
    }
    outside
    {
        type            zeroGradient;
    }
    procBoundary59to51
    {
        type            processor;
        value           nonuniform List<vector> 
18
(
(1.16035 0.152766 5.08358e-20)
(1.18073 0.156293 -2.23718e-19)
(1.20028 0.159743 1.70754e-19)
(1.21891 0.163108 1.00332e-19)
(1.23654 0.166381 -1.18121e-19)
(1.25309 0.169558 -5.73397e-20)
(1.26849 0.172635 4.74976e-20)
(1.2827 0.175612 -8.35531e-20)
(1.29565 0.178488 1.15272e-19)
(1.30733 0.181266 -6.93718e-20)
(1.3177 0.183953 -3.05344e-19)
(0.907424 0.112769 3.38989e-18)
(0.933042 0.116629 2.28132e-18)
(0.95876 0.120527 6.0475e-19)
(0.984498 0.124456 -7.25806e-19)
(1.01017 0.12841 1.60732e-19)
(1.16035 0.152766 5.08358e-20)
(1.03567 0.132385 -3.48088e-19)
)
;
    }
    procBoundary59to52
    {
        type            processor;
        value           uniform (1.00183 0.126585 1.24368e-17);
    }
    procBoundary59to58
    {
        type            processor;
        value           nonuniform List<vector> 7((1.36012 0.194004 8.02227e-20) (1.36031 0.194205 -5.30433e-20) (1.36033 0.194128 -2.73092e-19) (1.36005 0.194057 3.79923e-20) (1.35884 0.193724 -5.60037e-20) (1.35524 0.192828 -7.25763e-20) (1.34627 0.19076 -4.4147e-20));
    }
    procBoundary59to60
    {
        type            processor;
        value           nonuniform List<vector> 7((1.33726 0.186622 3.47199e-18) (1.32846 0.183532 9.832e-18) (1.31229 0.179836 5.25288e-19) (1.28552 0.174345 1.90183e-19) (1.24416 0.166522 4.82763e-19) (1.18439 0.155956 1.27659e-18) (1.10365 0.14253 3.87775e-18));
    }
}


// ************************************************************************* //
