/*--------------------------------*- C++ -*----------------------------------*\
  =========                 |
  \\      /  F ield         | OpenFOAM: The Open Source CFD Toolbox
   \\    /   O peration     | Website:  https://openfoam.org
    \\  /    A nd           | Version:  7
     \\/     M anipulation  |
\*---------------------------------------------------------------------------*/
FoamFile
{
    version     2.0;
    format      ascii;
    class       surfaceScalarField;
    location    "40";
    object      phi;
}
// * * * * * * * * * * * * * * * * * * * * * * * * * * * * * * * * * * * * * //

dimensions      [0 3 -1 0 0 0 0];

internalField   nonuniform List<scalar> 
15760
(
-0.000228037
0.00328263
-0.00348689
-1.22643e-05
0.00333257
-0.00354834
0.000208459
0.00253382
-0.00275455
0.000430507
0.00244223
-0.00266428
0.000637235
0.002103
-0.00230973
0.00083267
0.00194564
-0.00214108
0.00101154
0.00175072
-0.0019296
0.0011752
0.00158749
-0.00175114
0.00132303
0.0014276
-0.00157543
0.00145551
0.00127509
-0.00140758
0.00157314
0.00112857
-0.0012462
0.00167641
0.000987461
-0.00109073
0.00176586
0.000851574
-0.000941021
0.00184198
0.000720532
-0.000796652
0.00190521
0.000593947
-0.000657179
0.00195595
0.00047149
-0.000522231
0.00199456
0.000352947
-0.000391559
0.00202141
0.000238237
-0.000265079
0.00203684
0.000127495
-0.000142932
0.00204136
2.10705e-05
-2.5593e-05
0.0020353
-8.1255e-05
8.73242e-05
0.00201922
-0.000178082
0.000194155
0.00199382
-0.000269061
0.000294468
0.00195974
-0.000353538
0.000387611
0.00191779
-0.000430809
0.000472761
0.00186881
-0.00050021
0.000549186
0.00181373
-0.000561138
0.000616219
0.00175352
-0.000613089
0.000673306
0.00168917
-0.000655684
0.000720034
0.0016217
-0.000688694
0.000756157
0.00155214
-0.000712052
0.000781612
0.00148148
-0.000725859
0.000796518
0.00141068
-0.000730386
0.000801188
0.00134063
-0.000726069
0.000796117
0.00127217
-0.000713506
0.000781974
0.00120601
-0.000693433
0.000759585
0.00114282
-0.000666708
0.000729905
0.00108311
-0.000634285
0.000693994
0.00102731
-0.000597182
0.000652981
0.00097573
-0.000556453
0.000608033
0.000928567
-0.000513158
0.000560321
0.000885915
-0.000468328
0.00051098
0.000847769
-0.000422937
0.000461083
0.000814037
-0.00037788
0.000411612
0.000784548
-0.000333949
0.000363437
0.000759068
-0.000291823
0.000317303
0.000737308
-0.000252058
0.000273818
0.000718941
-0.000215084
0.000233452
0.000703611
-0.000181208
0.000196539
0.000690946
-0.000150618
0.000163283
0.000680574
-0.000123398
0.00013377
0.000672129
-9.9533e-05
0.000107978
0.000665273
-7.89422e-05
8.57985e-05
0.000659685
-6.14528e-05
6.70404e-05
0.000655061
-4.68173e-05
5.14412e-05
0.000651153
-3.4776e-05
3.86845e-05
0.000647743
-2.50605e-05
2.84702e-05
0.000644647
-1.73971e-05
2.04933e-05
0.000641711
-1.15102e-05
1.44463e-05
0.000638808
-7.13472e-06
1.00379e-05
0.000635834
-4.03291e-06
7.00697e-06
0.000632733
-2.02417e-06
5.12504e-06
0.000629417
-9.03612e-07
4.21915e-06
0.000625843
-5.03654e-07
4.07807e-06
0.000621974
-6.95618e-07
4.56482e-06
0.000617771
-1.37426e-06
5.57633e-06
0.000613201
-2.46298e-06
7.03304e-06
0.000608237
-3.91981e-06
8.884e-06
0.000602837
-5.72287e-06
1.11234e-05
0.000596972
-7.82723e-06
1.36918e-05
0.000590618
-1.02329e-05
1.65873e-05
0.000583737
-1.29407e-05
1.98211e-05
0.000576296
-1.59681e-05
2.34095e-05
0.000568257
-1.934e-05
2.73788e-05
0.000559582
-2.30921e-05
3.1767e-05
0.000550227
-2.72614e-05
3.66163e-05
0.000540145
-3.19032e-05
4.19858e-05
0.000529282
-3.70875e-05
4.79504e-05
0.000517581
-4.28974e-05
5.45983e-05
0.000504978
-4.94352e-05
6.20383e-05
0.000491401
-5.6825e-05
7.04018e-05
0.000476771
-6.5218e-05
7.9848e-05
0.000460999
-7.47988e-05
9.0571e-05
0.000443986
-8.57957e-05
0.000102808
0.000425624
-9.84906e-05
0.000116853
0.000405795
-0.00011324
0.00013307
0.000384372
-0.000130487
0.000151909
0.00036122
-0.00015084
0.000173992
0.000336218
-0.000175007
0.000200009
0.00030926
-0.000204029
0.000230987
0.000280299
-0.000239121
0.000268082
0.000249369
-0.000282248
0.000313178
0.000216834
-0.000335283
0.000367819
0.000182928
-0.000402008
0.000435914
0.000150044
-0.000485514
0.000518399
0.000117904
-0.000585916
0.000618056
9.50557e-05
-0.00071836
0.000741209
7.35828e-05
-0.000812572
0.000834045
5.05033e-05
-0.000957113
0.000980192
-0.000559047
0.00060955
-0.000222805
0.00305353
1.82367e-05
0.00309153
0.000253512
0.00229855
0.000488787
0.00220696
0.000702587
0.0018892
0.000904952
0.00174328
0.00108826
0.00156741
0.00125615
0.0014196
0.00140744
0.00127631
0.00154292
0.00113961
0.0016631
0.00100839
0.0017685
0.000882058
0.00185969
0.000760387
0.00193718
0.000643048
0.00200142
0.000529704
0.00205284
0.000420073
0.00209181
0.000313969
0.00211873
0.000211317
0.00213399
0.000112239
0.00213802
1.7044e-05
0.00213128
-7.45211e-05
0.00211429
-0.000161093
0.00208773
-0.000242497
0.00205229
-0.000318099
0.00200877
-0.000387285
0.00195802
-0.000449463
0.00190098
-0.000504096
0.00183862
-0.000550732
0.00177197
-0.000589029
0.00170205
-0.000618779
0.00162991
-0.000639912
0.00155656
-0.000652512
0.00148299
-0.000656811
0.00141011
-0.000653191
0.00133878
-0.000642175
0.00126976
-0.000624413
0.00120372
-0.000600665
0.00114121
-0.000571776
0.00108268
-0.000538652
0.00102846
-0.000502235
0.00097877
-0.00046347
0.000933724
-0.000423281
0.000893329
-0.000382543
0.000857507
-0.000342058
0.000826098
-0.00030254
0.000798876
-0.000264601
0.00077556
-0.000228742
0.000755826
-0.000195351
0.000739325
-0.000164707
0.000725688
-0.000136982
0.000714543
-0.000112253
0.000705526
-9.0515e-05
0.000698284
-7.17008e-05
0.000692498
-5.56662e-05
0.000687859
-4.21783e-05
0.000684104
-3.10215e-05
0.000681005
-2.19613e-05
0.000678364
-1.47559e-05
0.000676014
-9.16037e-06
0.000673814
-4.93533e-06
0.000671664
-1.88265e-06
0.000669449
1.9131e-07
0.000667145
1.4004e-06
0.000664665
1.97557e-06
0.000661961
2.00887e-06
0.000658991
1.59545e-06
0.000655716
8.11845e-07
0.000652091
-2.93992e-07
0.00064812
-1.75275e-06
0.000643759
-3.46591e-06
0.00063896
-5.43369e-06
0.000633701
-7.68201e-06
0.000627947
-1.02139e-05
0.00062166
-1.30524e-05
0.000614799
-1.62319e-05
0.000607322
-1.97837e-05
0.000599176
-2.37581e-05
0.000590308
-2.82195e-05
0.000580656
-3.32448e-05
0.000570149
-3.89281e-05
0.000558708
-4.53842e-05
0.000546244
-5.27536e-05
0.000532653
-6.12083e-05
0.000517819
-7.09618e-05
0.000501608
-8.22796e-05
0.000483868
-9.55001e-05
0.000464426
-0.000111044
0.000443082
-0.000129497
0.000419626
-0.00015155
0.000393822
-0.000178225
0.000365445
-0.000210744
0.000334252
-0.000251055
0.000300227
-0.000301258
0.000263071
-0.000364852
0.000224041
-0.000446484
0.000182348
-0.000544224
0.00014243
-0.000678442
9.97762e-05
-0.000769919
4.1028e-05
-0.000898365
-0.000518019
-0.000222716
0.00279546
4.5798e-05
0.00282301
0.000296802
0.00204754
0.000544338
0.00195942
0.000765443
0.0016681
0.000973264
0.00153546
0.00116105
0.00137962
0.00133244
0.00124821
0.00148673
0.00112202
0.00162478
0.00100156
0.00174711
0.000886057
0.00185431
0.000774859
0.00194695
0.000667752
0.00202555
0.000564448
0.00209059
0.000464663
0.00214251
0.000368152
0.00218171
0.000274763
0.0022086
0.000184427
0.00222358
9.72612e-05
0.00222711
1.3516e-05
0.00221966
-6.70739e-05
0.00220176
-0.000143194
0.00217409
-0.000214823
0.00213735
-0.000281363
0.00209235
-0.000342281
0.00203995
-0.000397062
0.00198109
-0.000445233
0.00191675
-0.000486397
0.00184797
-0.00052025
0.0017758
-0.000546605
0.00170128
-0.000565395
0.00162545
-0.000576687
0.00154932
-0.000580677
0.00147382
-0.000577693
0.00139983
-0.000568187
0.00132814
-0.000552724
0.00125944
-0.000531964
0.00119431
-0.000506646
0.00113323
-0.000477563
0.00107653
-0.00044554
0.00102447
-0.000411409
0.00097717
-0.000375982
0.000934659
-0.000340031
0.000896868
-0.000304267
0.000863648
-0.00026932
0.00083478
-0.000235733
0.000809989
-0.00020395
0.000788956
-0.000174318
0.000771333
-0.000147084
0.000756754
-0.000122403
0.000744847
-0.000100346
0.000735244
-8.09124e-05
0.000727589
-6.40461e-05
0.000721558
-4.96344e-05
0.000716838
-3.74582e-05
0.000713155
-2.73387e-05
0.000710269
-1.90761e-05
0.000707974
-1.24603e-05
0.000706091
-7.27707e-06
0.000704468
-3.31258e-06
0.000702968
-3.82956e-07
0.000701559
1.60058e-06
0.000700087
2.87204e-06
0.000698515
3.548e-06
0.000696787
3.73677e-06
0.000694859
3.52384e-06
0.000692697
2.97325e-06
0.000690282
2.12146e-06
0.00068753
9.99377e-07
0.000684419
-3.55089e-07
0.000680973
-1.98776e-06
0.000677114
-3.82303e-06
0.000672813
-5.91264e-06
0.000668034
-8.27358e-06
0.000662738
-1.09364e-05
0.00065688
-1.3925e-05
0.000650406
-1.72847e-05
0.00064326
-2.10736e-05
0.000635377
-2.53609e-05
0.00062668
-3.02317e-05
0.000617085
-3.57895e-05
0.000606493
-4.21616e-05
0.000594789
-4.95042e-05
0.00058184
-5.80123e-05
0.000567489
-6.79286e-05
0.000551554
-7.95651e-05
0.000533821
-9.33113e-05
0.000514033
-0.000109709
0.000491896
-0.000129413
0.000467056
-0.000153386
0.000439122
-0.000182809
0.000407594
-0.000219528
0.000372077
-0.000265741
0.000331763
-0.000324538
0.000286892
-0.000401613
0.00023608
-0.000493411
0.00018068
-0.000623042
0.000120105
-0.000709344
4.05593e-05
-0.000818819
-0.000477459
-0.00022753
0.00250438
7.27993e-05
0.00252268
0.000338261
0.00178208
0.000597225
0.00170046
0.000824838
0.00144049
0.00103731
0.00132299
0.00122886
0.00118808
0.00140313
0.00107394
0.0015599
0.00096525
0.00170003
0.000861436
0.00182412
0.000761964
0.00193277
0.000666211
0.00202656
0.000573964
0.00210602
0.000484981
0.00217166
0.000399024
0.00222393
0.00031589
0.00226323
0.000235456
0.00229
0.000157658
0.00230465
8.26116e-05
0.00230766
1.05104e-05
0.0022995
-5.89151e-05
0.00228072
-0.000124419
0.002252
-0.000186105
0.00221406
-0.000243421
0.0021677
-0.000295918
0.00211379
-0.000343152
0.00205327
-0.000384717
0.00198715
-0.000420272
0.00191645
-0.000449553
0.00184224
-0.000472393
0.00176558
-0.000488734
0.00168752
-0.000498625
0.00160907
-0.00050223
0.0015312
-0.000499825
0.00145481
-0.000491792
0.00138069
-0.000478611
0.00130958
-0.000460846
0.00124206
-0.000439128
0.00117863
-0.000414135
0.00111967
-0.000386578
0.00106543
-0.00035717
0.00101606
-0.000326612
0.000971597
-0.000295571
0.00093199
-0.00026466
0.000897097
-0.000234427
0.000866705
-0.000205341
0.000840544
-0.00017779
0.0008183
-0.000152073
0.000799625
-0.000128409
0.000784154
-0.000106932
0.000771514
-8.77068e-05
0.000761336
-7.07344e-05
0.00075326
-5.59702e-05
0.000746955
-4.33291e-05
0.000742106
-3.26089e-05
0.00073843
-2.36627e-05
0.000735679
-1.63247e-05
0.000733634
-1.0416e-05
0.000732109
-5.75196e-06
0.000730939
-2.14285e-06
0.000730018
5.3831e-07
0.000729215
2.40383e-06
0.000728454
3.63333e-06
0.000727653
4.34817e-06
0.000726756
4.63402e-06
0.000725715
4.56526e-06
0.000724487
4.20055e-06
0.000723033
3.57579e-06
0.000721333
2.69925e-06
0.000719365
1.61301e-06
0.000717022
3.54952e-07
0.00071435
-1.15071e-06
0.00071129
-2.85225e-06
0.000707798
-4.78165e-06
0.000703836
-6.97472e-06
0.000699358
-9.44709e-06
0.000694311
-1.22377e-05
0.000688635
-1.53976e-05
0.000682262
-1.89877e-05
0.000675113
-2.30825e-05
0.000667097
-2.77732e-05
0.000658107
-3.31716e-05
0.000648018
-3.94157e-05
0.000636683
-4.66777e-05
0.000623928
-5.51732e-05
0.000609543
-6.51803e-05
0.000593279
-7.70474e-05
0.00057483
-9.126e-05
0.000553831
-0.000108413
0.000529825
-0.00012938
0.000502272
-0.000155257
0.000470454
-0.00018771
0.000433627
-0.000228915
0.000390541
-0.000281452
0.000340524
-0.000351596
0.000281717
-0.000434604
0.000213138
-0.000554464
0.000137539
-0.000633745
4.40893e-05
-0.000725369
-0.00043337
-0.00023638
0.00217657
9.93784e-05
0.00218693
0.000377775
0.00150369
0.00064686
0.00143137
0.000879969
0.00120738
0.00109618
0.00110678
0.00129072
0.000993531
0.00146724
0.000897423
0.00162593
0.000806557
0.00176767
0.000719696
0.00189311
0.000636522
0.00200287
0.000556458
0.00209752
0.000479308
0.00217763
0.000404877
0.00224368
0.00033297
0.00229615
0.000263425
0.00233546
0.000196143
0.00236205
0.000131069
0.00237635
6.83112e-05
0.00237884
8.01776e-06
0.00237001
-5.00859e-05
0.00235043
-0.000104839
0.00232077
-0.000156442
0.00228175
-0.000204402
0.00223418
-0.000248348
0.00217894
-0.000287908
0.00211697
-0.000322746
0.00204927
-0.000352573
0.00197688
-0.000377169
0.00190088
-0.000396392
0.00182234
-0.000410187
0.0017423
-0.000418594
0.00166182
-0.000421744
0.00158186
-0.000419862
0.00150333
-0.000413264
0.00142706
-0.000402347
0.00135379
-0.000387576
0.00128414
-0.000369477
0.00121862
-0.000348615
0.00115763
-0.000325582
0.00110143
-0.000300974
0.0010502
-0.000275377
0.00100398
-0.000249352
0.00096273
-0.000223411
0.000926321
-0.000198017
0.000894546
-0.000173566
0.000867138
-0.000150382
0.000843787
-0.000128722
0.000824146
-0.000108767
0.000807849
-9.06357e-05
0.000794525
-7.43821e-05
0.000783799
-6.00089e-05
0.00077531
-4.74812e-05
0.000768719
-3.67381e-05
0.00076371
-2.75996e-05
0.000759993
-1.99458e-05
0.000757312
-1.3644e-05
0.000755443
-8.54658e-06
0.000754189
-4.4987e-06
0.000753379
-1.3321e-06
0.000752894
1.02307e-06
0.000752605
2.69274e-06
0.000752412
3.82642e-06
0.00075224
4.51989e-06
0.000752027
4.84718e-06
0.000751721
4.87159e-06
0.000751279
4.64273e-06
0.000750662
4.19265e-06
0.000749824
3.53736e-06
0.000748731
2.70554e-06
0.000747394
1.69156e-06
0.000745708
5.35648e-07
0.000743678
-8.21788e-07
0.000741262
-2.36591e-06
0.00073842
-4.13246e-06
0.000735101
-6.12895e-06
0.000731253
-8.38943e-06
0.000726814
-1.0958e-05
0.000721712
-1.38865e-05
0.000715868
-1.7238e-05
0.000709184
-2.10897e-05
0.000701549
-2.55368e-05
0.00069283
-3.06964e-05
0.000682868
-3.67155e-05
0.000671473
-4.37782e-05
0.000658415
-5.21228e-05
0.000643417
-6.20491e-05
0.000626131
-7.39743e-05
0.000606135
-8.84168e-05
0.000582887
-0.000106132
0.000555725
-0.000128094
0.000523748
-0.000155733
0.000485918
-0.000191085
0.000440638
-0.000236172
0.000386398
-0.000297356
0.000321072
-0.000369278
0.000241771
-0.000475163
0.000153708
-0.000545681
4.99796e-05
-0.000621641
-0.000383391
-0.000247974
0.00180934
0.000125529
0.00181342
0.000414787
0.00121443
0.000692247
0.00115391
0.000929665
0.000969959
0.00114865
0.000887789
0.00134542
0.000796762
0.00152356
0.000719286
0.00168365
0.000646465
0.00182655
0.000576793
0.00195297
0.000510106
0.00206351
0.000445911
0.00215878
0.000384038
0.00223933
0.000324335
0.00230564
0.000266651
0.00235821
0.000210858
0.00239747
0.000156883
0.00242386
0.000104677
0.00243783
5.4344e-05
0.00243987
5.98261e-06
0.00243044
-4.06651e-05
0.00241017
-8.45642e-05
0.0023797
-0.000125973
0.00233977
-0.000164468
0.00229117
-0.000199756
0.0022348
-0.000231538
0.0021716
-0.000259545
0.00210258
-0.000283545
0.00202877
-0.00030336
0.00195125
-0.000318873
0.0018711
-0.000330039
0.00178939
-0.000336886
0.00170716
-0.000339516
0.00162541
-0.000338106
0.00154505
-0.000332905
0.00146693
-0.000324227
0.0013918
-0.000312446
0.0013203
-0.000297978
0.00125296
-0.000281276
0.00119019
-0.000262813
0.00113228
-0.000243066
0.00107941
-0.000222508
0.00103165
-0.000201586
0.000988952
-0.000180716
0.000951204
-0.000160269
0.000918204
-0.000140565
0.000889689
-0.000121868
0.000865351
-0.000104383
0.000844844
-8.82608e-05
0.000827804
-7.35955e-05
0.000813856
-6.04336e-05
0.000802625
-4.8778e-05
0.000793745
-3.86018e-05
0.000786872
-2.98649e-05
0.000781688
-2.24155e-05
0.000777898
-1.61559e-05
0.00077524
-1.09858e-05
0.000773482
-6.78816e-06
0.00077242
-3.43747e-06
0.000771887
-7.99009e-07
0.000771743
1.16711e-06
0.000771852
2.5845e-06
0.000772114
3.56391e-06
0.000772448
4.18559e-06
0.000772787
4.50831e-06
0.000773075
4.58353e-06
0.000773266
4.45212e-06
0.000773317
4.14109e-06
0.000773193
3.66204e-06
0.000772858
3.0402e-06
0.000772265
2.28446e-06
0.000771417
1.38347e-06
0.000770232
3.6354e-07
0.000768705
-8.39037e-07
0.00076678
-2.2069e-06
0.000764412
-3.7614e-06
0.000761548
-5.52572e-06
0.000758126
-7.53555e-06
0.000754073
-9.83349e-06
0.000749306
-1.24706e-05
0.000743725
-1.55094e-05
0.000737215
-1.90266e-05
0.000729636
-2.31175e-05
0.000720822
-2.79013e-05
0.000710571
-3.35275e-05
0.000698639
-4.01905e-05
0.000684725
-4.81349e-05
0.000668452
-5.77013e-05
0.000649352
-6.93173e-05
0.000626822
-8.36014e-05
0.000600099
-0.000101372
0.000568149
-0.000123782
0.000529691
-0.000152627
0.000482882
-0.000189363
0.000425475
-0.000239949
0.000355215
-0.000299018
0.00026763
-0.000387578
0.000169436
-0.000447488
5.73342e-05
-0.000509539
-0.000326056
-0.00026064
0.00140231
0.000150557
0.00140223
0.000448114
0.00091687
0.000731915
0.000870114
0.000972398
0.000729476
0.00119325
0.00066694
0.00139152
0.00059849
0.00157072
0.000540089
0.00173174
0.000485442
0.00187542
0.000433112
0.00200249
0.000383039
0.00211357
0.000334832
0.00220925
0.000288358
0.00229008
0.000243507
0.00235656
0.000200168
0.00240917
0.000158246
0.00244837
0.000117689
0.00247458
7.84605e-05
0.00248828
4.06454e-05
0.00248995
4.31849e-06
0.00248006
-3.07768e-05
0.00245924
-6.37423e-05
0.00242813
-9.48715e-05
0.00238748
-0.000123817
0.00233809
-0.000150361
0.00228083
-0.00017428
0.00221666
-0.000195371
0.00214657
-0.00021346
0.00207162
-0.000228411
0.00199289
-0.000240136
0.00191145
-0.000248599
0.00182838
-0.000253818
0.00174473
-0.000255867
0.0016615
-0.000254879
0.00157963
-0.000251037
0.00149998
-0.000244575
0.00142331
-0.000235771
0.00135027
-0.000224939
0.00128141
-0.000212415
0.00121715
-0.000198554
0.0011578
-0.000183716
0.00110355
-0.000168255
0.00105447
-0.000152509
0.00101054
-0.000136789
0.000971649
-0.000121377
0.000937598
-0.000106514
0.000908131
-9.24005e-05
0.000882939
-7.91922e-05
0.000861681
-6.70028e-05
0.000843991
-5.59052e-05
0.000829492
-4.59351e-05
0.00081781
-3.70958e-05
0.000808576
-2.93674e-05
0.000801437
-2.27258e-05
0.000796076
-1.70546e-05
0.000792194
-1.2274e-05
0.000789524
-8.31604e-06
0.00078783
-5.09377e-06
0.000786905
-2.51243e-06
0.000786565
-4.59401e-07
0.00078667
1.06202e-06
0.000787082
2.17303e-06
0.000787692
2.95363e-06
0.000788416
3.46116e-06
0.000789184
3.74063e-06
0.000789936
3.83111e-06
0.000790625
3.76375e-06
0.000791206
3.5599e-06
0.000791638
3.23e-06
0.000791887
2.79128e-06
0.000791924
2.24741e-06
0.000791703
1.60431e-06
0.000791218
8.49094e-07
0.000790359
1.94856e-08
0.000789167
-1.01464e-06
0.000787556
-2.15113e-06
0.000785476
-3.44547e-06
0.000782864
-4.92344e-06
0.000779648
-6.61728e-06
0.000775743
-8.56538e-06
0.000771048
-1.08147e-05
0.000765445
-1.34231e-05
0.00075879
-1.64625e-05
0.000750911
-2.0023e-05
0.000741601
-2.42174e-05
0.000730604
-2.91931e-05
0.000717604
-3.51355e-05
0.000702205
-4.23022e-05
0.000683908
-5.10205e-05
0.000662065
-6.17578e-05
0.000635845
-7.51521e-05
0.000604119
-9.20566e-05
0.000565424
-0.000113931
0.000517768
-0.000141708
0.00045829
-0.000180472
0.000384702
-0.000225429
0.000291181
-0.000294057
0.00018512
-0.000341427
6.58009e-05
-0.000390219
-0.000260255
-0.000272503
0.000958818
0.000172778
0.000956944
0.000475905
0.000613743
0.000763984
0.000582034
0.00100638
0.000487077
0.00122832
0.000445007
0.00142749
0.00039932
0.00160729
0.000360281
0.00176888
0.000323859
0.00191303
0.000288958
0.0020405
0.000255565
0.00215192
0.000223414
0.00224787
0.000192412
0.00232889
0.000162488
0.00239548
0.00013357
0.00244814
0.000105595
0.00248729
7.85308e-05
0.0025134
5.23505e-05
0.00252693
2.71214e-05
0.00252838
2.86879e-06
0.00251817
-2.05672e-05
0.00249699
-4.25599e-05
0.00246546
-6.33475e-05
0.00242432
-8.26799e-05
0.00237438
-0.000100415
0.0023165
-0.000116404
0.00225164
-0.000130511
0.0021808
-0.00014262
0.00210503
-0.000152638
0.0020254
-0.000160507
0.001943
-0.000166201
0.00185891
-0.000169731
0.00177419
-0.000171146
0.00168985
-0.000170531
0.00160682
-0.000168009
0.00152598
-0.000163735
0.0014481
-0.000157892
0.00137385
-0.000150689
0.00130379
-0.00014235
0.00123834
-0.000133112
0.00117784
-0.000123213
0.00112248
-0.000112891
0.00107234
-0.00010237
0.00102741
-9.18611e-05
0.000987583
-8.15507e-05
0.00095267
-7.16013e-05
0.000922417
-6.21472e-05
0.000896518
-5.32938e-05
0.000874633
-4.51176e-05
0.000856396
-3.7668e-05
0.000841431
-3.09696e-05
0.00082936
-2.50253e-05
0.000819815
-1.98221e-05
0.000812436
-1.53468e-05
0.000806905
-1.15231e-05
0.000802919
-8.28865e-06
0.000800209
-5.60629e-06
0.000798533
-3.41766e-06
0.000797679
-1.65821e-06
0.00079748
-2.59924e-07
0.000797758
7.83499e-07
0.00079838
1.55143e-06
0.000799238
2.09518e-06
0.000800244
2.45501e-06
0.000801324
2.6608e-06
0.000802416
2.73883e-06
0.00080347
2.71021e-06
0.00080444
2.58964e-06
0.000805286
2.38419e-06
0.000805972
2.10579e-06
0.000806461
1.75842e-06
0.000806723
1.34231e-06
0.00080671
8.61222e-07
0.000806433
2.9709e-07
0.000805773
-3.5475e-07
0.000804726
-1.10464e-06
0.000803234
-1.95333e-06
0.000801234
-2.92288e-06
0.000798652
-4.03544e-06
0.000795403
-5.3168e-06
0.000791387
-6.79824e-06
0.000786482
-8.51839e-06
0.000780545
-1.05251e-05
0.0007734
-1.28784e-05
0.000764836
-1.56536e-05
0.000754592
-1.89491e-05
0.000742345
-2.28886e-05
0.000727687
-2.7644e-05
0.000710102
-3.34352e-05
0.000688916
-4.05723e-05
0.000663257
-4.94923e-05
0.000631947
-6.0747e-05
0.000593389
-7.53729e-05
0.000545543
-9.38624e-05
0.00048506
-0.000119988
0.00040971
-0.00015008
0.000312502
-0.000196849
0.000200894
-0.000229819
7.51668e-05
-0.000264492
-0.000185089
-0.000281776
0.000487068
0.000189641
0.000485527
0.00049589
0.000307495
0.000786419
0.000291505
0.0010298
0.000243695
0.00125224
0.000222567
0.00145185
0.000199712
0.00163195
0.000180181
0.00179383
0.000161983
0.00193824
0.000144541
0.00206596
0.00012785
0.00217759
0.000111779
0.00227372
9.62804e-05
0.00235489
8.13191e-05
0.0024216
6.68591e-05
0.00247433
5.28701e-05
0.00251352
3.93358e-05
0.00253963
2.62418e-05
0.00255313
1.36246e-05
0.00255448
1.51705e-06
0.00254417
-1.02566e-05
0.00252284
-2.12254e-05
0.00249112
-3.16329e-05
0.00244975
-4.13102e-05
0.00239953
-5.01914e-05
0.00234133
-5.82015e-05
0.00227609
-6.52726e-05
0.00220481
-7.13464e-05
0.00212855
-7.6377e-05
0.00204838
-8.03339e-05
0.00196538
-8.32041e-05
0.00188064
-8.49926e-05
0.00179522
-8.57232e-05
0.00171013
-8.54381e-05
0.00162632
-8.41978e-05
0.00154466
-8.20793e-05
0.00146594
-7.91742e-05
0.00139084
-7.55858e-05
0.00131992
-7.14265e-05
0.00125362
-6.68139e-05
0.00119227
-6.18679e-05
0.00113609
-5.67065e-05
0.00108516
-5.14426e-05
0.00103948
-4.61811e-05
0.000998947
-4.10162e-05
0.000963375
-3.60293e-05
0.000932515
-3.12879e-05
0.000906067
-2.68452e-05
0.000883689
-2.27398e-05
0.000865018
-1.89968e-05
0.000849677
-1.5629e-05
0.00083729
-1.26378e-05
0.000827484
-1.00163e-05
0.000819901
-7.76363e-06
0.000814214
-5.8366e-06
0.000810125
-4.19977e-06
0.000807361
-2.84167e-06
0.000805675
-1.73232e-06
0.000804857
-8.39415e-07
0.000804715
-1.18534e-07
0.000805093
4.05941e-07
0.000805846
7.97881e-07
0.000806862
1.07909e-06
0.00080805
1.26714e-06
0.000809334
1.37723e-06
0.00081065
1.42268e-06
0.000811946
1.41419e-06
0.000813176
1.35939e-06
0.000814298
1.26204e-06
0.000815276
1.12785e-06
0.000816076
9.58744e-07
0.000816662
7.55946e-07
0.000817005
5.18967e-07
0.000817052
2.5002e-07
0.000816768
-7.08632e-08
0.000816114
-4.51345e-07
0.000815029
-8.6766e-07
0.000813451
-1.34541e-06
0.00081131
-1.89445e-06
0.000808521
-2.52743e-06
0.000804983
-3.25983e-06
0.000800575
-4.1108e-06
0.000795154
-5.10408e-06
0.000788545
-6.2695e-06
0.000780536
-7.64451e-06
0.000770865
-9.27777e-06
0.000759207
-1.12311e-05
0.000745152
-1.35889e-05
0.000728179
-1.64622e-05
0.000707608
-2.00012e-05
0.000682547
-2.44316e-05
0.000651809
-3.00087e-05
0.000613731
-3.7295e-05
0.000566311
-4.64422e-05
0.00050582
-5.94976e-05
0.000430195
-7.44548e-05
0.000331454
-9.81072e-05
0.000216744
-0.000115109
8.60529e-05
-0.000133801
-9.90358e-05
-0.000287072
-1.46026e-10
0.000198456
-1.23976e-10
0.000505951
-5.42482e-11
0.000797455
-2.92971e-11
0.00104115
1.45455e-12
0.00126372
2.09099e-11
0.00146343
3.79354e-11
0.00164361
5.09268e-11
0.00180559
6.0519e-11
0.00195013
6.7815e-11
0.00207798
7.38912e-11
0.00218976
7.88658e-11
0.00228604
8.28894e-11
0.00236736
8.70364e-11
0.00243422
9.18268e-11
0.00248709
9.76044e-11
0.00252643
1.0453e-10
0.00255267
1.12829e-10
0.00256629
1.22188e-10
0.00256781
1.31951e-10
0.00255755
1.48274e-10
0.00253633
1.61425e-10
0.00250469
1.76313e-10
0.00246338
1.92276e-10
0.00241319
2.08582e-10
0.00235499
2.25807e-10
0.00228972
2.43198e-10
0.00221837
2.60504e-10
0.00214199
2.76807e-10
0.00206166
2.91956e-10
0.00197845
3.05841e-10
0.00189346
3.17451e-10
0.00180774
3.26325e-10
0.0017223
3.32237e-10
0.0016381
3.35302e-10
0.00155602
3.34319e-10
0.00147685
3.29414e-10
0.00140126
3.20463e-10
0.00132983
3.07328e-10
0.00126302
2.8979e-10
0.00120115
2.67818e-10
0.00114444
2.41482e-10
0.001093
2.1094e-10
0.00104682
1.76415e-10
0.0010058
1.38272e-10
0.000969774
9.6887e-11
0.000938486
5.28138e-11
0.000911641
6.403e-12
0.000888902
-4.13733e-11
0.000869905
-9.00164e-11
0.000854276
-1.38543e-10
0.000841638
-1.86384e-10
0.000831622
-2.32346e-10
0.000823859
-2.75593e-10
0.000818023
-3.1604e-10
0.000813823
-3.51834e-10
0.000810982
-3.82385e-10
0.00080925
-4.06782e-10
0.000808411
-4.30212e-10
0.000808293
-4.52417e-10
0.000808699
-4.13768e-10
0.000809498
-4.02141e-10
0.000810577
-3.89404e-10
0.000811845
-3.67127e-10
0.000813222
-3.35807e-10
0.000814645
-2.97845e-10
0.00081606
-2.53277e-10
0.000817419
-2.07229e-10
0.000818681
-1.5504e-10
0.000819809
-1.00453e-10
0.000820768
-4.43105e-11
0.000821524
1.03069e-11
0.000822043
5.64168e-11
0.000822293
9.75197e-11
0.000822222
1.4554e-10
0.00082177
2.04174e-10
0.000820902
2.53849e-10
0.000819557
2.81572e-10
0.000817662
2.85446e-10
0.000815134
2.77971e-10
0.000811874
2.66973e-10
0.000807763
2.52863e-10
0.000802659
2.33784e-10
0.000796389
2.08951e-10
0.000788744
1.78997e-10
0.000779467
1.45407e-10
0.000768235
1.09933e-10
0.000754646
7.44295e-11
0.000738184
4.04683e-11
0.000718183
9.57805e-12
0.000693751
-1.70197e-11
0.000663743
-3.82848e-11
0.000626448
-5.4489e-11
0.000580006
-6.44575e-11
0.000520508
-7.016e-11
0.000446053
-7.04849e-11
0.000347946
-6.80882e-11
0.000232837
-6.42611e-11
9.90357e-05
-5.63633e-11
-3.9989e-11
-0.000672375
0.00956638
-0.009441
-0.000797994
0.00955162
-0.009426
-0.000924334
0.00952808
-0.00940174
-0.00105195
0.00950641
-0.00937879
-0.00118122
0.00948825
-0.00935898
-0.00131244
0.00947451
-0.0093433
-0.00144603
0.00946588
-0.00933228
-0.00158248
0.00946286
-0.00932641
-0.00172247
0.00946626
-0.00932627
-0.00186704
0.00947789
-0.00933333
-0.00201808
0.00950116
-0.00935011
-0.00217807
0.0095435
-0.00938351
-0.00235106
0.00961314
-0.00944015
-0.00253893
0.00972099
-0.00953312
-0.00273637
0.00985607
-0.00965862
-0.00290417
0.00997007
-0.00980227
-0.00293608
0.00985598
-0.00982407
-0.00257655
0.00906763
-0.00942716
-0.00150844
0.0066153
-0.00768342
0.0021615
-0.00366993
-0.000679884
0.00969125
-0.000805265
0.009677
-0.000931441
0.00965426
-0.00105897
0.00963394
-0.00118806
0.00961734
-0.0013191
0.00960555
-0.00145244
0.00959922
-0.00158854
0.00959895
-0.00172803
0.00960576
-0.001872
0.00962186
-0.00202228
0.00965144
-0.00218149
0.0097027
-0.00235252
0.00978417
-0.00253407
0.00990254
-0.00271066
0.0100327
-0.00282272
0.0100821
-0.00273261
0.00976587
-0.00220154
0.00853656
-0.00107163
0.00548539
0.00108987
-0.000687111
0.00981567
-0.000812145
0.00980203
-0.000938112
0.00978023
-0.00106544
0.00976126
-0.00119434
0.00974625
-0.00132516
0.00973637
-0.00145823
0.00973229
-0.00159398
0.0097347
-0.00173307
0.00974484
-0.00187658
0.00976537
-0.00202639
0.00980125
-0.00218485
0.00986116
-0.00235335
0.00995267
-0.00252568
0.0100749
-0.00267441
0.0101814
-0.00272037
0.0101281
-0.00250818
0.00955367
-0.00183668
0.00786506
-0.000695013
0.00434373
0.000394858
-0.000694019
0.00993962
-0.000818664
0.00992668
-0.000944344
0.00990591
-0.00107139
0.00988831
-0.00120003
0.00987488
-0.00133056
0.0098669
-0.00146329
0.00986502
-0.00159864
0.00987005
-0.00173726
0.00988346
-0.00188026
0.00990838
-0.00202945
0.00995044
-0.00218663
0.0100183
-0.00235102
0.0101171
-0.00251025
0.0102341
-0.00262403
0.0102952
-0.00259702
0.0101011
-0.00226778
0.00922443
-0.0014799
0.00707718
-0.000428974
0.0032928
-3.41159e-05
-0.000700586
0.0100631
-0.000824819
0.0100509
-0.000950153
0.0100312
-0.00107687
0.010015
-0.00120516
0.0100032
-0.00133532
0.00999706
-0.00146761
0.00999731
-0.00160243
0.0100049
-0.00174045
0.0100215
-0.00188279
0.0100507
-0.00203105
0.0100987
-0.00218615
0.0101734
-0.00234427
0.0102752
-0.00248576
0.0103756
-0.00255736
0.0103667
-0.00245255
0.00999628
-0.00201864
0.00879052
-0.00115563
0.00621417
-0.000243685
0.00238085
-0.0002778
-0.000706816
0.010186
-0.000830618
0.0101747
-0.000955571
0.0101562
-0.00108191
0.0101414
-0.00120981
0.0101311
-0.00133951
0.0101268
-0.00147128
0.0101291
-0.00160547
0.0101391
-0.00174273
0.0101587
-0.00188411
0.0101921
-0.00203084
0.0102454
-0.00218245
0.010325
-0.00233142
0.0104242
-0.00245049
0.0104947
-0.00247481
0.0103911
-0.00229135
0.00981283
-0.00176993
0.0082691
-0.000879885
0.00532413
-0.000126011
0.00162698
-0.000403812
-0.000712681
0.0103084
-0.000836031
0.0102981
-0.000960557
0.0102807
-0.00108647
0.0102673
-0.00121391
0.0102585
-0.00134309
0.0102559
-0.00147423
0.0102602
-0.00160769
0.0102725
-0.00174408
0.0102951
-0.0018844
0.0103324
-0.00202941
0.0103905
-0.00217698
0.0104726
-0.00231509
0.0105623
-0.00240817
0.0105878
-0.00238125
0.0103641
-0.00212021
0.00955179
-0.00152537
0.00767426
-0.000659702
0.00445846
-6.24523e-05
0.00102973
-0.000466264
-0.000718234
0.0104301
-0.000841138
0.010421
-0.000965232
0.0104048
-0.00109071
0.0103928
-0.00121768
0.0103855
-0.00134632
0.0103846
-0.00147682
0.0103907
-0.0016095
0.0104052
-0.00174494
0.0104306
-0.00188386
0.0104713
-0.00202615
0.0105327
-0.00216725
0.0106137
-0.00229012
0.0106851
-0.00235203
0.0106497
-0.00227248
0.0102846
-0.0019424
0.0092217
-0.00129614
0.007028
-0.000494742
0.00365707
-3.80667e-05
0.00057305
-0.000504331
-0.000723317
0.0105512
-0.000845767
0.0105434
-0.000969319
0.0105284
-0.00109428
0.0105177
-0.00122066
0.0105119
-0.00134863
0.0105126
-0.00147833
0.0105204
-0.00161009
0.010537
-0.00174443
0.0105649
-0.00188195
0.0106088
-0.00202183
0.0106726
-0.00215743
0.0107493
-0.00226687
0.0107946
-0.00229951
0.0106823
-0.00216783
0.0101529
-0.00177065
0.00882453
-0.00109173
0.00634907
-0.000379165
0.0029445
-3.95545e-05
0.00023344