/*--------------------------------*- C++ -*----------------------------------*\
  =========                 |
  \\      /  F ield         | OpenFOAM: The Open Source CFD Toolbox
   \\    /   O peration     | Website:  https://openfoam.org
    \\  /    A nd           | Version:  7
     \\/     M anipulation  |
\*---------------------------------------------------------------------------*/
FoamFile
{
    version     2.0;
    format      ascii;
    class       volVectorField;
    location    "10";
    object      U;
}
// * * * * * * * * * * * * * * * * * * * * * * * * * * * * * * * * * * * * * //

dimensions      [0 1 -1 0 0 0 0];

internalField   nonuniform List<vector> 
75
(
(1.1938 0.242151 3.73136e-17)
(1.21254 0.313995 -1.51135e-17)
(1.21963 0.381565 7.66484e-19)
(0.991138 0.432496 2.03939e-18)
(1.20947 0.235534 3.1166e-17)
(1.23195 0.306348 6.95341e-19)
(1.24516 0.378423 1.10408e-18)
(1.00137 0.419293 2.549e-18)
(1.21857 0.228176 3.10103e-17)
(1.24544 0.296945 1.02507e-17)
(1.26676 0.372805 2.52511e-18)
(1.01649 0.405349 1.47123e-18)
(1.22682 0.219959 1.46995e-17)
(1.25887 0.285719 2.86919e-17)
(1.28843 0.364235 2.14103e-18)
(1.0368 0.390038 -6.42913e-19)
(1.23552 0.21085 8.85235e-18)
(1.273 0.27273 1.88385e-17)
(1.31003 0.35226 1.1118e-18)
(1.06109 0.372846 2.59528e-19)
(1.24368 0.200847 2.20084e-17)
(1.28649 0.258132 3.55963e-17)
(1.33201 0.336874 3.44965e-18)
(1.09392 0.353479 -3.34634e-18)
(1.25071 0.190199 2.17837e-17)
(1.29877 0.2421 3.25151e-17)
(1.35066 0.316453 -5.60859e-19)
(1.12906 0.330384 4.52113e-18)
(1.25615 0.178621 8.05254e-18)
(1.30901 0.224814 2.611e-17)
(1.37105 0.291718 1.09919e-17)
(1.18502 0.303957 -1.89473e-17)
(1.26048 0.167218 -1.07255e-17)
(1.31765 0.207324 2.80367e-17)
(1.37927 0.258542 -1.74444e-17)
(1.22771 0.269914 -6.12039e-17)
(1.2619 0.153695 -9.27461e-18)
(1.32188 0.188622 1.14099e-17)
(1.39731 0.219807 -7.64527e-18)
(1.32723 0.232056 -5.01476e-17)
(0.804571 0.00350066 -1.65932e-17)
(0.738629 0.0242247 1.69216e-18)
(0.807458 0.00894841 -6.22537e-18)
(0.740241 0.0743972 -5.21338e-18)
(0.81299 0.0156802 -9.93539e-19)
(0.743156 0.122789 -1.74376e-17)
(0.821086 0.0221231 3.69451e-18)
(0.747339 0.17066 -5.22497e-17)
(0.831595 0.0288867 5.33833e-18)
(0.752722 0.218182 -3.19582e-17)
(0.844297 0.0356674 7.77719e-18)
(0.759256 0.265386 -2.0167e-17)
(0.858833 0.0425295 1.42999e-17)
(0.76689 0.31238 -1.21179e-17)
(0.874618 0.0493519 2.95927e-17)
(0.775589 0.359258 -6.98422e-18)
(0.890684 0.0559094 1.52176e-17)
(0.785574 0.405925 -4.32735e-18)
(0.905456 0.0650761 7.68948e-18)
(0.800277 0.453278 -2.66858e-18)
(0.909167 0.0668438 -8.66562e-18)
(0.935207 0.0591233 -2.33809e-18)
(0.956707 0.547116 9.64259e-18)
(0.949268 0.0811727 -6.19152e-19)
(0.930503 0.0570554 -1.24358e-18)
(0.989693 0.400452 4.55586e-18)
(0.970734 0.0937148 4.79755e-18)
(0.969402 0.0455209 1.03126e-18)
(1.00764 0.366506 -5.96106e-19)
(0.987171 0.0949742 2.11419e-18)
(0.996423 0.0471566 5.88035e-18)
(1.01493 0.289912 -2.96316e-17)
(0.998274 0.0961933 1.14908e-20)
(1.01884 0.0414307 1.25641e-18)
(1.02883 0.244526 -3.08718e-18)
)
;

boundaryField
{
    inlet
    {
        type            uniformFixedValue;
        uniformValue    constant (1 0 0);
        value           nonuniform 0();
    }
    outlet
    {
        type            pressureInletOutletVelocity;
        value           nonuniform 0();
    }
    polygon
    {
        type            fixedValue;
        value           uniform (0 0 0);
    }
    top
    {
        type            symmetryPlane;
    }
    bottom
    {
        type            symmetryPlane;
    }
    outside
    {
        type            zeroGradient;
    }
    procBoundary9to5
    {
        type            processor;
        value           nonuniform List<vector> 2((0.804571 -0.00350066 -3.543e-17) (0.738629 -0.0242247 8.98566e-18));
    }
    procBoundary9to8
    {
        type            processor;
        value           nonuniform List<vector> 9((0.929442 0.0039841 4.82262e-18) (0.928001 0.0104258 5.92791e-18) (0.925492 0.0174229 2.41139e-18) (0.922124 0.0239728 4.34789e-19) (0.918175 0.0303974 -4.38e-19) (0.913936 0.0365239 -1.26047e-18) (0.909777 0.0423291 -2.79544e-18) (0.906172 0.0477469 -5.25083e-18) (0.903722 0.0527265 -7.82928e-18));
    }
    procBoundary9to10
    {
        type            processor;
        value           nonuniform List<vector> 4((1.26079 0.144409 -1.17374e-17) (1.32156 0.175535 -1.11586e-17) (1.36372 0.166167 -2.47197e-17) (1.29456 0.177373 -5.49015e-17));
    }
    procBoundary9to12
    {
        type            processor;
        value           nonuniform List<vector> 7((0.903146 0.0576461 -5.85619e-18) (0.903146 0.0576461 -5.85619e-18) (1.01356 0.0109818 1.62855e-18) (0.999685 0.0119127 8.19072e-19) (0.994401 0.0102767 9.02356e-18) (0.99453 0.00985794 7.39322e-18) (0.99873 0.00792321 4.96518e-18));
    }
    procBoundary9to13
    {
        type            processor;
        value           nonuniform List<vector> 
14
(
(1.17638 0.205901 -4.15097e-17)
(1.17638 0.205901 -4.15097e-17)
(1.18847 0.200497 -6.30657e-18)
(1.19447 0.194666 -2.35799e-17)
(1.1994 0.188398 -3.46588e-18)
(1.20484 0.181649 -1.70492e-17)
(1.2102 0.174441 -1.08033e-17)
(1.2149 0.166936 -2.40015e-17)
(1.21863 0.159072 -2.13661e-17)
(1.22168 0.151387 -1.85683e-17)
(1.22316 0.142866 -1.59436e-17)
(1.00752 0.0916973 -2.81511e-18)
(1.0359 0.0403678 2.23105e-18)
(1.04031 0.202758 -1.45024e-17)
)
;
    }
}


// ************************************************************************* //
