/*--------------------------------*- C++ -*----------------------------------*\
  =========                 |
  \\      /  F ield         | OpenFOAM: The Open Source CFD Toolbox
   \\    /   O peration     | Website:  https://openfoam.org
    \\  /    A nd           | Version:  7
     \\/     M anipulation  |
\*---------------------------------------------------------------------------*/
FoamFile
{
    version     2.0;
    format      ascii;
    class       volVectorField;
    location    "10";
    object      U;
}
// * * * * * * * * * * * * * * * * * * * * * * * * * * * * * * * * * * * * * //

dimensions      [0 1 -1 0 0 0 0];

internalField   nonuniform List<vector> 
125
(
(1.14913 0.0872114 -7.43088e-18)
(1.15711 0.102031 -3.04506e-18)
(1.1643 0.107183 1.39086e-17)
(1.1765 0.123332 -1.0739e-17)
(1.19239 0.136121 -2.46884e-17)
(1.21469 0.159183 -2.97423e-17)
(1.15 0.0870949 -6.67319e-18)
(1.15826 0.101167 7.87893e-19)
(1.1655 0.105904 1.67294e-17)
(1.17803 0.121357 -6.26933e-18)
(1.19414 0.133221 -2.35522e-17)
(1.21721 0.155184 -2.28619e-17)
(1.15082 0.0869512 -6.16101e-18)
(1.15937 0.10028 6.07294e-19)
(1.1667 0.104598 1.19618e-17)
(1.1796 0.119343 -5.2727e-18)
(1.196 0.130251 -2.24188e-17)
(1.21996 0.151092 -1.52653e-17)
(1.15158 0.0867804 -5.57108e-18)
(1.16042 0.0993717 3.98651e-18)
(1.16782 0.103266 1.09437e-17)
(1.18107 0.117292 -9.86585e-18)
(1.19774 0.127213 -2.10916e-17)
(1.22253 0.14691 -1.94213e-17)
(1.1523 0.0865835 -5.04976e-18)
(1.1614 0.0984438 3.59435e-18)
(1.16886 0.101912 1.00205e-17)
(1.18241 0.11521 -8.64351e-18)
(1.19928 0.124117 -1.50595e-17)
(1.2248 0.142655 -1.81695e-17)
(1.15297 0.0863615 -5.06664e-18)
(1.16231 0.0974984 6.79764e-18)
(1.16981 0.100539 9.3949e-18)
(1.18364 0.113104 -1.23036e-17)
(1.20065 0.120976 -1.43441e-17)
(1.22677 0.13834 -1.74145e-17)
(1.15359 0.0861151 -1.01162e-18)
(1.16315 0.0965372 6.32617e-18)
(1.17068 0.0991503 8.82511e-18)
(1.18475 0.110978 -1.14357e-17)
(1.20188 0.117798 -1.33392e-17)
(1.2285 0.133977 -1.10554e-17)
(1.15416 0.0858452 -7.45368e-19)
(1.16393 0.0955618 9.67694e-18)
(1.17148 0.0977475 4.3866e-18)
(1.18576 0.108837 -1.05759e-17)
(1.20297 0.114592 -1.74698e-17)
(1.23 0.129578 -5.13587e-18)
(1.15469 0.0855527 -4.17463e-18)
(1.16464 0.094574 5.54744e-18)
(1.17221 0.096334 4.01659e-18)
(1.18666 0.106684 -6.21369e-18)
(1.20391 0.111367 -1.5643e-17)
(1.23127 0.12516 -4.80023e-18)
(1.15516 0.0852374 -3.90335e-18)
(1.16528 0.0935736 5.02463e-18)
(1.17282 0.0949068 3.69835e-18)
(1.18738 0.104515 -1.4548e-18)
(1.2046 0.108108 -1.47329e-17)
(1.23212 0.120701 -5.18104e-18)
(1.13914 0.0875327 -1.09777e-17)
(1.14397 0.10928 -7.44754e-18)
(1.15085 0.118839 2.54397e-17)
(1.1599 0.141642 -3.86872e-18)
(1.17331 0.163168 -2.95386e-17)
(1.14115 0.0875782 -1.33007e-17)
(1.14647 0.108617 -9.85833e-18)
(1.15364 0.117717 2.36352e-17)
(1.16323 0.139877 -6.35043e-18)
(1.17718 0.160582 -2.76305e-17)
(1.14224 0.0876047 -1.27577e-17)
(1.14789 0.107937 -9.39201e-18)
(1.15504 0.116586 2.22851e-17)
(1.16489 0.138103 -9.22144e-18)
(1.17897 0.157978 -2.60053e-17)
(1.14307 0.0876147 -1.47144e-17)
(1.14904 0.107249 -8.90814e-18)
(1.15615 0.11545 1.82473e-17)
(1.1663 0.136318 -1.19388e-17)
(1.18062 0.15535 -2.45748e-17)
(1.14396 0.0876069 -1.41109e-17)
(1.15025 0.106547 -8.38495e-18)
(1.15738 0.114302 1.69576e-17)
(1.16788 0.13451 -1.09314e-17)
(1.18255 0.15268 -1.92934e-17)
(1.14489 0.0875804 -1.34151e-17)
(1.15151 0.105829 -7.90728e-18)
(1.15868 0.113138 1.61099e-17)
(1.16953 0.132676 -1.02848e-17)
(1.18453 0.149967 -1.82502e-17)
(1.20366 0.178849 -4.31333e-17)
(1.14581 0.0875353 -1.28356e-17)
(1.15273 0.105096 -7.52892e-18)
(1.15992 0.111959 1.83505e-17)
(1.1711 0.130819 -9.50237e-18)
(1.18638 0.147218 -2.13373e-17)
(1.20624 0.174962 -4.12077e-17)
(1.14667 0.0874723 -1.2234e-17)
(1.15388 0.104348 -6.96412e-18)
(1.16109 0.110767 1.70568e-17)
(1.17256 0.128944 -8.65545e-18)
(1.18807 0.144439 -1.9933e-17)
(1.20863 0.171003 -3.94888e-17)
(1.1475 0.0873918 -1.16258e-17)
(1.15498 0.103587 -3.60355e-18)
(1.1622 0.109566 1.60731e-17)
(1.17394 0.127055 -7.96962e-18)
(1.18963 0.141635 -1.89457e-17)
(1.21084 0.166991 -3.77197e-17)
(1.1483 0.0872955 -1.109e-17)
(1.15602 0.102815 -3.36459e-18)
(1.16323 0.108353 1.51848e-17)
(1.1752 0.125145 -1.08701e-17)
(1.19103 0.138778 -2.19235e-17)
(1.21281 0.162862 -3.1159e-17)
(1.0213 0.0397218 8.01671e-19)
(1.0616 0.206667 4.27825e-18)
(1.03734 0.0363098 2.84405e-18)
(1.06761 0.171417 -1.05565e-17)
(1.05073 0.0324917 1.1404e-19)
(1.07452 0.137648 6.35302e-19)
(1.06028 0.0307094 2.86206e-18)
(1.07957 0.12012 -1.38564e-17)
(1.06774 0.0236242 3.82314e-18)
(1.08714 0.0861454 -2.03866e-17)
)
;

boundaryField
{
    inlet
    {
        type            uniformFixedValue;
        uniformValue    constant (1 0 0);
        value           nonuniform 0();
    }
    outlet
    {
        type            pressureInletOutletVelocity;
        value           nonuniform 0();
    }
    polygon
    {
        type            fixedValue;
        value           nonuniform 0();
    }
    top
    {
        type            symmetryPlane;
    }
    bottom
    {
        type            symmetryPlane;
    }
    outside
    {
        type            zeroGradient;
    }
    procBoundary13to9
    {
        type            processor;
        value           nonuniform List<vector> 
23
(
(1.24175 0.188107 5.1103e-18)
(1.2449 0.182273 4.54838e-18)
(1.24846 0.176118 4.38843e-18)
(1.25177 0.169658 3.41587e-18)
(1.25466 0.16294 2.83783e-18)
(1.2572 0.156007 2.84637e-18)
(1.25944 0.148901 3.39038e-18)
(1.26132 0.141655 -3.42161e-18)
(1.26287 0.134312 -3.32226e-18)
(1.26372 0.126811 -3.58341e-18)
(1.18859 0.196726 -4.02323e-17)
(1.19334 0.193366 -4.28557e-17)
(1.19571 0.189909 -4.53349e-17)
(1.19809 0.186339 -4.24764e-17)
(1.20087 0.182648 -4.53078e-17)
(1.20087 0.182648 -4.53078e-17)
(1.22639 0.215139 1.73205e-17)
(1.23032 0.210042 1.54509e-17)
(1.23384 0.204719 1.43178e-17)
(1.23696 0.199194 1.28672e-17)
(1.23956 0.193313 5.84063e-18)
(1.00458 0.0429868 2.12183e-18)
(1.05302 0.252276 1.85089e-18)
)
;
    }
    procBoundary13to12
    {
        type            processor;
        value           nonuniform List<vector> 5((1.01971 0.0921052 7.12383e-18) (1.02786 0.0879063 4.31466e-18) (1.0327 0.0783786 -1.10737e-18) (1.03603 0.0738281 7.23577e-20) (1.03889 0.0587998 -2.71147e-18));
    }
    procBoundary13to14
    {
        type            processor;
        value           nonuniform List<vector> 6((1.15559 0.0849229 -3.3631e-18) (1.16585 0.0925941 4.40327e-18) (1.17337 0.0935593 3.19573e-18) (1.18802 0.102461 -1.6761e-18) (1.20509 0.10506 -1.35513e-17) (1.23271 0.116526 -5.52351e-18));
    }
}


// ************************************************************************* //
