/*--------------------------------*- C++ -*----------------------------------*\
  =========                 |
  \\      /  F ield         | OpenFOAM: The Open Source CFD Toolbox
   \\    /   O peration     | Website:  https://openfoam.org
    \\  /    A nd           | Version:  7
     \\/     M anipulation  |
\*---------------------------------------------------------------------------*/
FoamFile
{
    version     2.0;
    format      ascii;
    class       volScalarField;
    location    "15";
    object      p;
}
// * * * * * * * * * * * * * * * * * * * * * * * * * * * * * * * * * * * * * //

dimensions      [0 2 -2 0 0 0 0];

internalField   nonuniform List<scalar> 
50
(
-0.309839
-0.297554
-0.298685
-0.29156
-0.301047
-0.297096
-0.301092
-0.287674
-0.288764
-0.280177
-0.288781
-0.29237
-0.277705
-0.278379
-0.267887
-0.274795
-0.28366
-0.267711
-0.267593
-0.254928
-0.258931
-0.275059
-0.257786
-0.256608
-0.241515
-0.241816
-0.266644
-0.247996
-0.245574
-0.227924
-0.224078
-0.258364
-0.238237
-0.234422
-0.213996
-0.205779
-0.24988
-0.228179
-0.222701
-0.199126
-0.18592
-0.240757
-0.217607
-0.210116
-0.183289
-0.164151
-0.231395
-0.207437
-0.198282
-0.16983
)
;

boundaryField
{
    inlet
    {
        type            zeroGradient;
    }
    outlet
    {
        type            fixedValue;
        value           nonuniform 0();
    }
    polygon
    {
        type            zeroGradient;
    }
    top
    {
        type            symmetryPlane;
    }
    bottom
    {
        type            symmetryPlane;
    }
    outside
    {
        type            slip;
    }
    procBoundary1to0
    {
        type            processor;
        value           nonuniform List<scalar> 4(-0.178532 -0.153331 -0.13993 -0.115198);
    }
    procBoundary1to2
    {
        type            processor;
        value           nonuniform List<scalar> 6(-0.318653 -0.307255 -0.3081 -0.301737 -0.310705 -0.307489);
    }
    procBoundary1to5
    {
        type            processor;
        value           nonuniform List<scalar> 
12
(
-0.337064
-0.282632
-0.282632
-0.264756
-0.244723
-0.222216
-0.198374
-0.173516
-0.14697
-0.11791
-0.146309
-0.146309
)
;
    }
}


// ************************************************************************* //
