/*--------------------------------*- C++ -*----------------------------------*\
  =========                 |
  \\      /  F ield         | OpenFOAM: The Open Source CFD Toolbox
   \\    /   O peration     | Website:  https://openfoam.org
    \\  /    A nd           | Version:  7
     \\/     M anipulation  |
\*---------------------------------------------------------------------------*/
FoamFile
{
    version     2.0;
    format      ascii;
    class       volScalarField;
    location    "32";
    object      p;
}
// * * * * * * * * * * * * * * * * * * * * * * * * * * * * * * * * * * * * * //

dimensions      [0 2 -2 0 0 0 0];

internalField   nonuniform List<scalar> 
11200
(
0.0289129
0.0282067
0.0594893
0.0626482
0.0799467
0.0830202
0.0911706
0.0917383
0.0929246
0.0893637
0.0842218
0.0752845
0.0636236
0.0482941
0.0296557
0.00736952
-0.0183318
-0.0472957
-0.0790536
-0.113002
-0.148331
-0.184123
-0.219403
-0.253219
-0.284702
-0.31311
-0.337851
-0.358495
-0.374769
-0.386565
-0.393904
-0.396967
-0.396016
-0.391445
-0.383701
-0.373298
-0.360778
-0.346689
-0.331561
-0.315891
-0.30012
-0.284632
-0.269742
-0.255694
-0.242668
-0.230782
-0.2201
-0.21064
-0.202383
-0.195283
-0.18927
-0.184262
-0.180168
-0.176892
-0.174338
-0.172412
-0.171024
-0.170089
-0.169528
-0.169269
-0.169249
-0.16941
-0.169704
-0.17009
-0.170535
-0.171013
-0.171505
-0.172
-0.172491
-0.172976
-0.173459
-0.173944
-0.17444
-0.174955
-0.175499
-0.176079
-0.176703
-0.177375
-0.178101
-0.178881
-0.179713
-0.180593
-0.181516
-0.182467
-0.183445
-0.184414
-0.185391
-0.18629
-0.187193
-0.187885
-0.188641
-0.188882
-0.189495
-0.188815
-0.189575
-0.187089
-0.18893
-0.183955
-0.187306
-0.18395
0.0291886
0.0283252
0.0598862
0.0629756
0.0804172
0.0834767
0.0917063
0.0922858
0.0935256
0.0899907
0.0848956
0.0759964
0.0643857
0.0491133
0.0305395
0.00832862
-0.0172854
-0.0461533
-0.07781
-0.111659
-0.146899
-0.182622
-0.217857
-0.251656
-0.283151
-0.311597
-0.336397
-0.357119
-0.373485
-0.385384
-0.392832
-0.396015
-0.395186
-0.390735
-0.383111
-0.372824
-0.360416
-0.346431
-0.331399
-0.315814
-0.300118
-0.284694
-0.269856
-0.25585
-0.242856
-0.230991
-0.220323
-0.210868
-0.202611
-0.195504
-0.189481
-0.184459
-0.180348
-0.177053
-0.174479
-0.172533
-0.171124
-0.170169
-0.16959
-0.169314
-0.169279
-0.169428
-0.169712
-0.170089
-0.170528
-0.171002
-0.171491
-0.171985
-0.172475
-0.172961
-0.173444
-0.173931
-0.174428
-0.174944
-0.175488
-0.176068
-0.176691
-0.177363
-0.178088
-0.178864
-0.179694
-0.180569
-0.181489
-0.182435
-0.183408
-0.18437
-0.185341
-0.186232
-0.187128
-0.187807
-0.188558
-0.188775
-0.18938
-0.18866
-0.189382
-0.186871
-0.188519
-0.183663
-0.186498
-0.182974
0.0294479
0.0284129
0.0602616
0.0632606
0.0808508
0.0838819
0.0921916
0.0927725
0.0940629
0.0905451
0.0854905
0.0766202
0.06505
0.0498247
0.0313032
0.00915412
-0.0163867
-0.0451733
-0.0767428
-0.110505
-0.145666
-0.181324
-0.216516
-0.250295
-0.281794
-0.310266
-0.335113
-0.355897
-0.372337
-0.384322
-0.391864
-0.395146
-0.394418
-0.390071
-0.382552
-0.372368
-0.360058
-0.346167
-0.331222
-0.315715
-0.300088
-0.284724
-0.269936
-0.255971
-0.243008
-0.231167
-0.220513
-0.211068
-0.202813
-0.195704
-0.189673
-0.18464
-0.180516
-0.177206
-0.174615
-0.172651
-0.171224
-0.170251
-0.169655
-0.169364
-0.169315
-0.169452
-0.169725
-0.170095
-0.170528
-0.170997
-0.171483
-0.171975
-0.172465
-0.172951
-0.173435
-0.173923
-0.174421
-0.174938
-0.175483
-0.176063
-0.176687
-0.177358
-0.178081
-0.178856
-0.179683
-0.180555
-0.181471
-0.182413
-0.183382
-0.184339
-0.185304
-0.186188
-0.187078
-0.187744
-0.188487
-0.188682
-0.189274
-0.188517
-0.189196
-0.186663
-0.188141
-0.1834
-0.185897
-0.18231
0.0296755
0.02849
0.0605901
0.0635101
0.0812305
0.084237
0.0926172
0.0932001
0.0945356
0.0910339
0.0860163
0.077173
0.0656408
0.0504587
0.0319861
0.0098945
-0.0155789
-0.0442906
-0.0757801
-0.109463
-0.144552
-0.180152
-0.215304
-0.249065
-0.280569
-0.309067
-0.333956
-0.3548
-0.371311
-0.383377
-0.391007
-0.394381
-0.393749
-0.3895
-0.382077
-0.371988
-0.359769
-0.345962
-0.331095
-0.315658
-0.300092
-0.28478
-0.270035
-0.256103
-0.243166
-0.231343
-0.2207
-0.21126
-0.203005
-0.195891
-0.189852
-0.184808
-0.180669
-0.177344
-0.174737
-0.172756
-0.171313
-0.170324
-0.169712
-0.169408
-0.169346
-0.169472
-0.169736
-0.170098
-0.170525
-0.17099
-0.171474
-0.171964
-0.172453
-0.17294
-0.173425
-0.173913
-0.174413
-0.174931
-0.175476
-0.176057
-0.17668
-0.17735
-0.178072
-0.178845
-0.17967
-0.180539
-0.181452
-0.182391
-0.183356
-0.184308
-0.18527
-0.186147
-0.187032
-0.187688
-0.188427
-0.188603
-0.189187
-0.1884
-0.189045
-0.186496
-0.187824
-0.183178
-0.185357
-0.181597
0.0298697
0.0285575
0.0608691
0.0637239
0.081554
0.0845413
0.0929814
0.0935678
0.0949426
0.0914569
0.0864727
0.0776554
0.066159
0.0510166
0.0325902
0.0105522
-0.0148588
-0.0435019
-0.0749187
-0.10853
-0.143554
-0.179102
-0.214219
-0.247966
-0.279475
-0.307997
-0.332928
-0.353827
-0.370406
-0.382547
-0.39026
-0.39372
-0.393176
-0.389017
-0.381683
-0.371681
-0.359544
-0.345813
-0.331015
-0.315639
-0.300127
-0.284859
-0.27015
-0.256246
-0.243329
-0.231519
-0.220884
-0.211445
-0.203188
-0.196067
-0.190019
-0.184963
-0.180811
-0.17747
-0.174847
-0.17285
-0.171392
-0.170388
-0.169762
-0.169445
-0.169372
-0.169488
-0.169744
-0.1701
-0.170521
-0.170982
-0.171464
-0.171953
-0.172442
-0.172928
-0.173414
-0.173903
-0.174403
-0.174922
-0.175468
-0.176048
-0.176671
-0.17734
-0.17806
-0.178832
-0.179654
-0.180522
-0.181432
-0.182367
-0.183329
-0.184277
-0.185235
-0.186107
-0.18699
-0.187637
-0.188373
-0.188534
-0.189112
-0.188301
-0.188919
-0.18636
-0.187558
-0.182986
-0.184887
-0.180938
0.0300316
0.028613
0.0611003
0.0639007
0.0818221
0.0847939
0.0932843
0.0938747
0.0952833
0.0918125
0.086858
0.0780649
0.0666014
0.0514948
0.0331109
0.0111217
-0.0142331
-0.0428146
-0.0741667
-0.107715
-0.142682
-0.178183
-0.21327
-0.247005
-0.27852
-0.307065
-0.332035
-0.352985
-0.369625
-0.381835
-0.389624
-0.393162
-0.392699
-0.388622
-0.381368
-0.371442
-0.359378
-0.345715
-0.330977
-0.315655
-0.300188
-0.284957
-0.270278
-0.256396
-0.243494
-0.231694
-0.221063
-0.211623
-0.203361
-0.196232
-0.190173
-0.185105
-0.180939
-0.177584
-0.174947
-0.172935
-0.171462
-0.170444
-0.169806
-0.169477
-0.169394
-0.169501
-0.16975
-0.170099
-0.170516
-0.170975
-0.171454
-0.171942
-0.17243
-0.172917
-0.173403
-0.173893
-0.174394
-0.174913
-0.175459
-0.176039
-0.176661
-0.177329
-0.178048
-0.178817
-0.179638
-0.180503
-0.18141
-0.182343
-0.183302
-0.184247
-0.185202
-0.18607
-0.18695
-0.187591
-0.188326
-0.188474
-0.18905
-0.188219
-0.188817
-0.18625
-0.187342
-0.182827
-0.184503
-0.180381
0.0301614
0.0286557
0.0612836
0.0640399
0.0820345
0.0849944
0.0935255
0.0941203
0.0955572
0.0921004
0.0871718
0.0784009
0.0669671
0.0518926
0.0335471
0.0116015
-0.0137035
-0.0422308
-0.0735263
-0.107019
-0.141937
-0.177399
-0.212461
-0.246186
-0.277707
-0.306274
-0.331279
-0.352275
-0.368971
-0.381244
-0.3891
-0.392711
-0.39232
-0.388314
-0.381132
-0.371274
-0.359274
-0.345668
-0.330982
-0.315704
-0.300275
-0.285074
-0.270417
-0.256552
-0.243661
-0.231866
-0.221235
-0.211792
-0.203523
-0.196385
-0.190315
-0.185234
-0.181055
-0.177686
-0.175035
-0.173009
-0.171523
-0.170493
-0.169843
-0.169504
-0.169411
-0.169511
-0.169753
-0.170098
-0.170511
-0.170967
-0.171444
-0.171931
-0.172419
-0.172906
-0.173392
-0.173883
-0.174384
-0.174903
-0.175448
-0.176028
-0.176649
-0.177317
-0.178034
-0.178802
-0.179621
-0.180483
-0.181389
-0.182318
-0.183275
-0.184218
-0.185171
-0.186036
-0.186915
-0.187551
-0.188286
-0.188424
-0.189002
-0.188155
-0.188743
-0.186168
-0.187181
-0.182709
-0.184208
-0.179926
0.0302588
0.0286848
0.061418
0.0641407
0.0821902
0.0851419
0.0937042
0.0943041
0.095764
0.0923205
0.0874145
0.0786641
0.067257
0.0522118
0.0339008
0.0119942
-0.013267
-0.0417472
-0.0729942
-0.10644
-0.141317
-0.176748
-0.211789
-0.245507
-0.277036
-0.305624
-0.330661
-0.351699
-0.368445
-0.380775
-0.388692
-0.392366
-0.392039
-0.388098
-0.380977
-0.371178
-0.359232
-0.345676
-0.331032
-0.31579
-0.30039
-0.285212
-0.270572
-0.256717
-0.243831
-0.232037
-0.221403
-0.211953
-0.203675
-0.196527
-0.190445
-0.185351
-0.181159
-0.177776
-0.175112
-0.173073
-0.171575
-0.170534
-0.169874
-0.169525
-0.169425
-0.169517
-0.169754
-0.170095
-0.170505
-0.170958
-0.171434
-0.17192
-0.172408
-0.172895
-0.173381
-0.173872
-0.174373
-0.174892
-0.175438
-0.176017
-0.176637
-0.177303
-0.178019
-0.178785
-0.179602
-0.180463
-0.181367
-0.182294
-0.183249
-0.18419
-0.185142
-0.186004
-0.186884
-0.187516
-0.188253
-0.188386
-0.188969
-0.188112
-0.188697
-0.186119
-0.187079
-0.182636
-0.184003
-0.179574
0.0303236
0.0287007
0.0615036
0.0642036
0.0822895
0.0852369
0.0938206
0.0944261
0.0959033
0.092472
0.0875846
0.078853
0.0674695
0.0524507
0.0341706
0.0122989
-0.0129238
-0.041363
-0.0725685
-0.105975
-0.140818
-0.176222
-0.211248
-0.244962
-0.2765
-0.305107
-0.330175
-0.351253
-0.368045
-0.380427
-0.3884
-0.39213
-0.39186
-0.387975
-0.380909
-0.371161
-0.35926
-0.345744
-0.331134
-0.31592
-0.300541
-0.285378
-0.270747
-0.256897
-0.24401
-0.232212
-0.22157
-0.212111
-0.203822
-0.196661
-0.190565
-0.185458
-0.181251
-0.177856
-0.175178
-0.173127
-0.171617
-0.170566
-0.169897
-0.16954
-0.169433
-0.16952
-0.169753
-0.17009
-0.170497
-0.170949
-0.171424
-0.171909
-0.172397
-0.172883
-0.17337
-0.173861
-0.174362
-0.174881
-0.175425
-0.176004
-0.176623
-0.177288
-0.178003
-0.178767
-0.179583
-0.180441
-0.181343
-0.182269
-0.183223
-0.184162
-0.185114
-0.185975
-0.186855
-0.187486
-0.188228
-0.188357
-0.188949
-0.188086
-0.18868
-0.1861
-0.187034
-0.182606
-0.183881
-0.179319
0.0303557
0.0287075
0.0615452
0.0642337
0.0823376
0.0852834
0.0938781
0.094487
0.0959732
0.0925489
0.0876723
0.0789526
0.0675842
0.0525835
0.034325
0.0124785
-0.0127157
-0.0411242
-0.0722978
-0.105674
-0.140489
-0.175872
-0.210883
-0.244593
-0.276134
-0.304755
-0.329845
-0.350953
-0.367781
-0.380203
-0.38822
-0.392004
-0.391777
-0.387937
-0.380913
-0.371204
-0.359338
-0.34585
-0.331264
-0.316068
-0.300701
-0.285544
-0.270915
-0.257062
-0.24417
-0.232363
-0.221711
-0.21224
-0.203938
-0.196764
-0.190655
-0.185535
-0.181316
-0.177909
-0.175221
-0.173161
-0.171643
-0.170584
-0.169908
-0.169547
-0.169436
-0.169519
-0.169749
-0.170083
-0.170489
-0.170939
-0.171413
-0.171898
-0.172385
-0.172871
-0.173358
-0.173848
-0.174349
-0.174867
-0.175412
-0.175989
-0.176607
-0.17727
-0.177983
-0.178746
-0.179559
-0.180417
-0.181317
-0.182242
-0.183195
-0.184134
-0.185086
-0.185948
-0.186831
-0.187462
-0.188209
-0.188338
-0.188936
-0.188069
-0.18867
-0.186086
-0.187009
-0.182581
-0.183797
-0.179128
0.024626
0.0273057
0.0544311
0.0588298
0.0740286
0.0774339
0.0843917
0.0848348
0.08519
0.0812322
0.0753382
0.0657746
0.0532552
0.0370304
0.0172919
-0.00622894
-0.0333421
-0.0638279
-0.0971538
-0.132591
-0.1692
-0.205937
-0.241742
-0.275626
-0.306731
-0.334358
-0.357974
-0.377211
-0.391856
-0.401851
-0.407254
-0.408383
-0.405415
-0.398853
-0.389177
-0.376942
-0.362726
-0.347107
-0.330637
-0.313826
-0.297122
-0.280904
-0.265479
-0.251076
-0.237857
-0.225918
-0.215303
-0.206009
-0.197998
-0.191204
-0.185543
-0.180917
-0.177222
-0.174349
-0.172193
-0.17065
-0.169623
-0.169021
-0.168759
-0.168764
-0.168968
-0.169316
-0.169757
-0.170253
-0.170774
-0.171299
-0.171815
-0.172315
-0.172798
-0.173267
-0.173732
-0.1742
-0.174684
-0.175195
-0.175743
-0.176338
-0.176986
-0.177694
-0.178462
-0.179291
-0.180178
-0.181116
-0.182097
-0.183107
-0.184137
-0.185163
-0.186176
-0.187134
-0.188044
-0.188819
-0.189529
-0.189958
-0.190422
-0.190211
-0.1908
-0.189219
-0.192284
-0.187536
-0.20106
-0.19256
0.0253306
0.0272284
0.055197
0.0592071
0.0748497
0.0780779
0.0852797
0.0856652
0.0861648
0.0822169
0.0764257
0.066915
0.0544944
0.0383595
0.0187419
-0.00464611
-0.0316024
-0.061918
-0.0950663
-0.130334
-0.166798
-0.203428
-0.239175
-0.273052
-0.3042
-0.331914
-0.355652
-0.375041
-0.389863
-0.400053
-0.405678
-0.406999
-0.404258
-0.397919
-0.388461
-0.376433
-0.362412
-0.346971
-0.330659
-0.313985
-0.297395
-0.281269
-0.265914
-0.251561
-0.238373
-0.226449
-0.215835
-0.206529
-0.198497
-0.191674
-0.185977
-0.18131
-0.177572
-0.174654
-0.172454
-0.170868
-0.169799
-0.169158
-0.168862
-0.168835
-0.169013
-0.169337
-0.169761
-0.170244
-0.170756
-0.171277
-0.171791
-0.172292
-0.172777
-0.17325
-0.173718
-0.17419
-0.174677
-0.175189
-0.175738
-0.176333
-0.17698
-0.177685
-0.17845
-0.179275
-0.180157
-0.18109
-0.182065
-0.183071
-0.184096
-0.185117
-0.186126
-0.187078
-0.187986
-0.18875
-0.189461
-0.189862
-0.190335
-0.190054
-0.190667
-0.188919
-0.191943
-0.186951
-0.199587
-0.192371
0.0258755
0.0273289
0.0557816
0.0596611
0.0755414
0.0787408
0.0860782
0.0864849
0.0870812
0.0831845
0.077483
0.0680495
0.0557328
0.039706
0.020222
-0.00301719
-0.0298039
-0.059938
-0.0929011
-0.127996
-0.164315
-0.200844
-0.23654
-0.270423
-0.301628
-0.329445
-0.353326
-0.372888
-0.387906
-0.398312
-0.404167
-0.40571
-0.403205
-0.397097
-0.387862
-0.376046
-0.36222
-0.346954
-0.330795
-0.31425
-0.297765
-0.281722
-0.266425
-0.252111
-0.238943
-0.227022
-0.216397
-0.20707
-0.199007
-0.192146
-0.186407
-0.181694
-0.177908
-0.174943
-0.172695
-0.171063
-0.169952
-0.169273
-0.168942
-0.168885
-0.169037
-0.169341
-0.169749
-0.17022
-0.170726
-0.171242
-0.171755
-0.172255
-0.172742
-0.173218
-0.173688
-0.174162
-0.17465
-0.175164
-0.175712
-0.176305
-0.176949
-0.177649
-0.178409
-0.179228
-0.180104
-0.18103
-0.182
-0.182999
-0.184019
-0.185034
-0.18604
-0.186988
-0.187897
-0.188656
-0.189374
-0.189762
-0.190257
-0.189927
-0.190578
-0.188691
-0.191657
-0.186471
-0.197895
-0.192219
0.0263672
0.0274532
0.0563299
0.0601099
0.0761979
0.0793823
0.086839
0.0872708
0.0879534
0.0841059
0.0784857
0.0691235
0.0569017
0.0409738
0.0216118
-0.00149068
-0.0281212
-0.0580872
-0.0908779
-0.12581
-0.161991
-0.19842
-0.234065
-0.267946
-0.299198
-0.327105
-0.351113
-0.370831
-0.386028
-0.396632
-0.402694
-0.404453
-0.402166
-0.396274
-0.387249
-0.375632
-0.361991
-0.346891
-0.33088
-0.31446
-0.298078
-0.282115
-0.266878
-0.252604
-0.239458
-0.227545
-0.216914
-0.207569
-0.19948
-0.192586
-0.186809
-0.182055
-0.178225
-0.175216
-0.172925
-0.171252
-0.170101
-0.169385
-0.169022
-0.168937
-0.169065
-0.169349
-0.169741
-0.170201
-0.170699
-0.17121
-0.171721
-0.172221
-0.172709
-0.173187
-0.173659
-0.174135
-0.174625
-0.175139
-0.175686
-0.176277
-0.176919
-0.177616
-0.178371
-0.179185
-0.180054
-0.180974
-0.181937
-0.182929
-0.183944
-0.184952
-0.185954
-0.186896
-0.187804
-0.188555
-0.189279
-0.189649
-0.19016
-0.18978
-0.190459
-0.18845
-0.191334
-0.18605
-0.196328
-0.191858
0.0268332
0.0275604
0.0568668
0.0605303
0.0768322
0.0799901
0.0875685
0.0880178
0.0887862
0.0849823
0.0794406
0.0701446
0.0580132
0.0421786
0.0229324
-4.00633e-05
-0.0265216
-0.0563269
-0.0889517
-0.123726
-0.159772
-0.196102
-0.231691
-0.265565
-0.296858
-0.324848
-0.348974
-0.368841
-0.384209
-0.395001
-0.401265
-0.403231
-0.401156
-0.395473
-0.386652
-0.375229
-0.361767
-0.346831
-0.330962
-0.314664
-0.298383
-0.282498
-0.26732
-0.253085
-0.239961
-0.228055
-0.217418
-0.208058
-0.199944
-0.193018
-0.187204
-0.182411
-0.178539
-0.175487
-0.173154
-0.17144
-0.170251
-0.1695
-0.169104
-0.168991
-0.169095
-0.16936
-0.169736
-0.170185
-0.170674
-0.171181
-0.171689
-0.172189
-0.172678
-0.173157
-0.173631
-0.174109
-0.1746
-0.175114
-0.175662
-0.176251
-0.17689
-0.177584
-0.178334
-0.179143
-0.180007
-0.18092
-0.181877
-0.182863
-0.183871
-0.184874
-0.185871
-0.186806
-0.187712
-0.188455
-0.189182
-0.189532
-0.190058
-0.189625
-0.190326
-0.188203
-0.190987
-0.185663
-0.194861
-0.191335
0.0272682
0.0276594
0.0573805
0.0609264
0.0774355
0.0805653
0.0882616
0.0887266
0.0895781
0.0858161
0.0803508
0.0711195
0.0590764
0.043333
0.0242001
0.00135464
-0.0249816
-0.0546301
-0.0870931
-0.121714
-0.157627
-0.193858
-0.229392
-0.263258
-0.294589
-0.322659
-0.3469
-0.366911
-0.382446
-0.393424
-0.399885
-0.402054
-0.400187
-0.39471
-0.386088
-0.374855
-0.361569
-0.34679
-0.331061
-0.314881
-0.298697
-0.282889
-0.267766
-0.253568
-0.240465
-0.228564
-0.217921
-0.208543
-0.200403
-0.193446
-0.187596
-0.182762
-0.178849
-0.175755
-0.173381
-0.171627
-0.1704
-0.169614
-0.169187
-0.169046
-0.169127
-0.169372
-0.169733
-0.17017
-0.170651
-0.171152
-0.171657
-0.172157
-0.172646
-0.173126
-0.173603
-0.174082
-0.174575
-0.175089
-0.175636
-0.176224
-0.17686
-0.17755
-0.178297
-0.1791
-0.179958
-0.180865
-0.181816
-0.182795
-0.183798
-0.184794
-0.185788
-0.186717
-0.187621
-0.188355
-0.189086
-0.189416
-0.189955
-0.189472
-0.190191
-0.187966
-0.190632
-0.185308
-0.193465
-0.190684
0.0276691
0.0277559
0.057865
0.0613004
0.0780041
0.0811086
0.0889157
0.089397
0.0903276
0.0866071
0.0812155
0.072048
0.060091
0.0444372
0.0254152
0.00269376
-0.0235009
-0.0529969
-0.0853028
-0.119774
-0.155558
-0.191693
-0.227172
-0.26103
-0.292396
-0.320542
-0.344895
-0.365047
-0.380746
-0.391904
-0.398559
-0.400926
-0.399262
-0.393986
-0.385559
-0.37451
-0.361395
-0.346771
-0.331176
-0.315111
-0.29902
-0.283284
-0.268215
-0.254051
-0.240966
-0.22907
-0.218419
-0.209023
-0.200858
-0.193869
-0.187982
-0.183109
-0.179155
-0.17602
-0.173604
-0.171811
-0.170547
-0.169727
-0.169269
-0.169101
-0.169158
-0.169384
-0.16973
-0.170155
-0.170628
-0.171124
-0.171626
-0.172125
-0.172614
-0.173096
-0.173574
-0.174055
-0.174548
-0.175063
-0.17561
-0.176196
-0.17683
-0.177516
-0.178258
-0.179055
-0.179908
-0.180809
-0.181754
-0.182727
-0.183724
-0.184715
-0.185704
-0.186627
-0.18753
-0.188256
-0.188991
-0.189302
-0.189856
-0.189324
-0.19006
-0.187746
-0.190282
-0.184987
-0.192146
-0.189919
0.0280367
0.0278481
0.0583203
0.061651
0.0785375
0.0816187
0.08953
0.0900281
0.0910339
0.0873547
0.0820345
0.0729298
0.0610573
0.0454918
0.0265784
0.00397866
-0.0220777
-0.0514249
-0.0835777
-0.117903
-0.153561
-0.189601
-0.225027
-0.258874
-0.290274
-0.318494
-0.342956
-0.363245
-0.379104
-0.390441
-0.397287
-0.399845
-0.398383
-0.393304
-0.385068
-0.374201
-0.361253
-0.346779
-0.331315
-0.315361
-0.29936
-0.283695
-0.268675
-0.254544
-0.241476
-0.229582
-0.218921
-0.209507
-0.201315
-0.194293
-0.188369
-0.183457
-0.179461
-0.176285
-0.173828
-0.171996
-0.170695
-0.16984
-0.169352
-0.169157
-0.169191
-0.169397
-0.169727
-0.170141
-0.170606
-0.171096
-0.171596
-0.172093
-0.172583
-0.173066
-0.173545
-0.174027
-0.174521
-0.175036
-0.175582
-0.176167
-0.176798
-0.17748
-0.178218
-0.179011
-0.179858
-0.180753
-0.181692
-0.182659
-0.183651
-0.184635
-0.185621
-0.186538
-0.187441
-0.188157
-0.188898
-0.18919
-0.189761
-0.189182
-0.189936
-0.187542
-0.189946
-0.184702
-0.190926
-0.189104
0.02837
0.0279369
0.0587448
0.0619781
0.0790346
0.082095
0.0901036
0.090619
0.0916959
0.0880573
0.0828059
0.0737631
0.0619731
0.0464943
0.0276876
0.00520741
-0.0207134
-0.0499146
-0.0819173
-0.1161
-0.151633
-0.187579
-0.22295
-0.256785
-0.288216
-0.316507
-0.341074
-0.361498
-0.377515
-0.389027
-0.396061
-0.398813
-0.397547
-0.392663
-0.384617
-0.373928
-0.361144
-0.346818
-0.331483
-0.315637
-0.299723
-0.284124
-0.269153
-0.255051
-0.241997
-0.230103
-0.219431
-0.209996
-0.201775
-0.19472
-0.188758
-0.183805
-0.179768
-0.17655
-0.174052
-0.172181
-0.170843
-0.169954
-0.169435
-0.169213
-0.169224
-0.169411
-0.169726
-0.170128
-0.170584
-0.171069
-0.171565
-0.172061
-0.17255
-0.173034
-0.173514
-0.173998
-0.174493
-0.175008
-0.175553
-0.176135
-0.176764
-0.177443
-0.178176
-0.178963
-0.179805
-0.180694
-0.181627
-0.182587
-0.183574
-0.184552
-0.185534
-0.186445
-0.187347
-0.188054
-0.1888
-0.189072
-0.189659
-0.189033
-0.189802
-0.187334
-0.1896
-0.184423
-0.18977
-0.188299
0.0286575
0.0280458
0.0591277
0.0622964
0.0794925
0.0825462
0.0906355
0.0911718
0.0923093
0.088709
0.0835174
0.0745304
0.0628126
0.0474117
0.0286991
0.00632552
-0.0194742
-0.0485445
-0.0804118
-0.114464
-0.149883
-0.185743
-0.221061
-0.254883
-0.286339
-0.314692
-0.339351
-0.359894
-0.376051
-0.387718
-0.394917
-0.397856
-0.39676
-0.39205
-0.384172
-0.373642
-0.361005
-0.346811
-0.331591
-0.315841
-0.300006
-0.284467
-0.269539
-0.255465
-0.242424
-0.230531
-0.219851
-0.210398
-0.202155
-0.195071
-0.189078
-0.184091
-0.180019
-0.176766
-0.174234
-0.172329
-0.170961
-0.170043
-0.169498
-0.169254
-0.169247
-0.169418
-0.16972
-0.170112
-0.17056
-0.17104
-0.171533
-0.172028
-0.172517
-0.173001
-0.173482
-0.173967
-0.174462
-0.174977
-0.17552
-0.176101
-0.176727
-0.177402
-0.17813
-0.178913
-0.179748
-0.180631
-0.181558
-0.182512
-0.183493
-0.184465
-0.185443
-0.186346
-0.187246
-0.187943
-0.188693
-0.188944
-0.18954
-0.18887
-0.189632
-0.187117
-0.189188
-0.184108
-0.188533
-0.186962
-0.0847395
-0.0780621
-0.0773544
-0.0748985
-0.0752224
-0.0758128
-0.0782305
-0.0818047
-0.087176
-0.0943199
-0.103743
-0.115655
-0.130902
-0.149566
-0.173438
-0.201484
-0.239167
-0.268933
-0.292655
-0.31157
-0.0866654
-0.0801668
-0.0795636
-0.0772345
-0.0776837
-0.0783976
-0.080948
-0.084653
-0.0901583
-0.0974298
-0.106969
-0.118985
-0.134308
-0.153067
-0.177007
-0.204872
-0.242038
-0.265825
-0.289974
-0.297605
-0.0884905
-0.0822382
-0.0816925
-0.0795176
-0.0800807
-0.0809366
-0.083632
-0.0874962
-0.0931716
-0.100625
-0.11035
-0.122566
-0.138067
-0.156992
-0.180891
-0.208066
-0.24304
-0.259783
-0.284312
-0.286075
-0.0902547
-0.0842743
-0.0837753
-0.0817627
-0.0824311
-0.0834275
-0.0862596
-0.090275
-0.0961079
-0.103726
-0.113614
-0.125993
-0.14162
-0.160621
-0.18434
-0.21074
-0.243447
-0.255541
-0.280239
-0.275583
-0.0919714
-0.0862749
-0.0858227
-0.0839759
-0.0847434
-0.0858762
-0.0888338
-0.0929871
-0.0989564
-0.106711
-0.116718
-0.1292
-0.144869
-0.163825
-0.18721
-0.212776
-0.243165
-0.252627
-0.276321
-0.265271
-0.0936384
-0.088242
-0.0878323
-0.0861568
-0.0870173
-0.088285
-0.09136
-0.0956428
-0.101734
-0.109604
-0.119702
-0.132243
-0.147891
-0.166707
-0.189619
-0.214265
-0.242191
-0.250373
-0.27186
-0.255375
-0.0952527
-0.0901786
-0.0898014
-0.0883049
-0.0892509
-0.0906538
-0.0938392
-0.0982458
-0.104448
-0.11242
-0.122585
-0.135149
-0.150724
-0.16932
-0.191635
-0.215297
-0.240771
-0.248678
-0.266871
-0.245981
-0.0968135
-0.092088
-0.0917295
-0.0904205
-0.0914434
-0.0929819
-0.0962702
-0.100795
-0.107097
-0.115155
-0.125364
-0.137915
-0.153366
-0.171666
-0.193266
-0.215884
-0.239228
-0.247667
-0.261428
-0.236934
-0.098321
-0.0939741
-0.0936168
-0.092505
-0.0935947
-0.0952695
-0.0986522
-0.103289
-0.109679
-0.117806
-0.128028
-0.140518
-0.155764
-0.173652
-0.19443
-0.216153
-0.238338
-0.247997
-0.25615
-0.227814
-0.0997759
-0.0958403
-0.0954625
-0.0945573
-0.0957014
-0.0975114
-0.100977
-0.105718
-0.112181
-0.120361
-0.130583
-0.143021
-0.158136
-0.175797
-0.195991
-0.216811
-0.237354
-0.247019
-0.251017
-0.218749
-0.0583688
-0.0501122
-0.0481981
-0.0444002
-0.0432992
-0.0425029
-0.0433964
-0.0454425
-0.0492034
-0.0547286
-0.0625681
-0.0729534
-0.087102
-0.104825
-0.12996
-0.159566
-0.205732
-0.260349
-0.328718
-0.381206
-0.0613016
-0.0532271
-0.0514101
-0.0477683
-0.0468046
-0.0461579
-0.0472071
-0.0494159
-0.0533461
-0.0590454
-0.0670577
-0.0776188
-0.0919127
-0.109808
-0.134982
-0.164944
-0.210712
-0.266181
-0.328462
-0.379144
-0.0641573
-0.0562536
-0.0545318
-0.0510389
-0.0502208
-0.0497344
-0.0509623
-0.0533654
-0.0575121
-0.0634513
-0.071728
-0.0825909
-0.0971979
-0.11549
-0.140947
-0.171412
-0.216351
-0.270038
-0.322017
-0.370983
-0.0669502
-0.0592163
-0.0575928
-0.0542461
-0.053574
-0.0532469
-0.0546531
-0.0572494
-0.061612
-0.0677901
-0.0763293
-0.0874906
-0.102401
-0.121066
-0.146734
-0.177526
-0.221362
-0.272863
-0.316016
-0.364299
-0.0696872
-0.0621234
-0.0606042
-0.0574016
-0.0568729
-0.0566984
-0.0582728
-0.0610473
-0.0656047
-0.071992
-0.0807528
-0.0921541
-0.107286
-0.126196
-0.151883
-0.182694
-0.225184
-0.274319
-0.310523
-0.357322
-0.0723682
-0.0649723
-0.0635638
-0.0605022
-0.0601152
-0.0600866
-0.0618199
-0.0647584
-0.069491
-0.0760602
-0.0850051
-0.0965932
-0.111872
-0.130911
-0.156448
-0.186995
-0.227936
-0.274145
-0.304718
-0.348942
-0.0749921
-0.0677592
-0.0664685
-0.0635435
-0.0632976
-0.0634089
-0.0652941
-0.0683854
-0.0732784
-0.0800086
-0.0891096
-0.100844
-0.116214
-0.135295
-0.160553
-0.190599
-0.229864
-0.272423
-0.298585
-0.339492
-0.0775589
-0.0704819
-0.0693177
-0.0665235
-0.0664192
-0.0666642
-0.068695
-0.0719287
-0.0769689
-0.0838415
-0.0930734
-0.104919
-0.120329
-0.139368
-0.164225
-0.193541
-0.231107
-0.26937
-0.292192
-0.329561
-0.0800692
-0.0731387
-0.0721126
-0.069442
-0.0694806
-0.069852
-0.0720223
-0.0753871
-0.0805602
-0.0875549
-0.0968911
-0.10881
-0.124214
-0.143147
-0.167535
-0.195982
-0.231917
-0.264929
-0.284573
-0.318629
-0.0825232
-0.0757281
-0.0748542
-0.0722986
-0.0724825
-0.0729729
-0.0752772
-0.0787624
-0.0840553
-0.0911529
-0.100567
-0.112519
-0.12785
-0.146537
-0.170194
-0.197236
-0.231376
-0.258978
-0.277546
-0.30407
-0.0260754
-0.015695
-0.0129257
-0.00736431
-0.00477312
-0.00232568
-0.00138357
-0.00137748
-0.00289191
-0.00593011
-0.0110041
-0.0182663
-0.0289227
-0.0423902
-0.0632442
-0.0855749
-0.129757
-0.164785
-0.274767
-0.331578
-0.0295007
-0.0194106
-0.0166816
-0.011341
-0.00888351
-0.00662164
-0.00586607
-0.00608275
-0.00783725
-0.0111457
-0.0165267
-0.0241426
-0.0352313
-0.0492265
-0.0707924
-0.0941468
-0.139605
-0.177588
-0.28265
-0.335156
-0.0329036
-0.0230164
-0.0203748
-0.0152134
-0.0129285
-0.0108349
-0.0102968
-0.0107658
-0.0128105
-0.0164552
-0.0222358
-0.0303288
-0.0420122
-0.0567497
-0.0792774
-0.103971
-0.150636
-0.190433
-0.285742
-0.329379
-0.0362619
-0.0265685
-0.0240218
-0.0190335
-0.01692
-0.0149997
-0.0146791
-0.0153985
-0.0177318
-0.0217105
-0.0278863
-0.03645
-0.0487105
-0.0641695
-0.0875784
-0.113526
-0.161014
-0.202693
-0.290586
-0.331204
-0.0395692
-0.0300819
-0.0276262
-0.0228133
-0.0208607
-0.0191156
-0.0190001
-0.0199526
-0.0225504
-0.0268309
-0.0333566
-0.0423292
-0.0550772
-0.0711372
-0.0952303
-0.122187
-0.170119
-0.213782
-0.29644
-0.335942
-0.0428263
-0.0335506
-0.0311839
-0.0265462
-0.0247471
-0.0231738
-0.0232513
-0.0244206
-0.02726
-0.0318117
-0.038645
-0.0479697
-0.0611229
-0.0776744
-0.102281
-0.130032
-0.178105
-0.223528
-0.301631
-0.340092
-0.046034
-0.0369686
-0.0346909
-0.030226
-0.0285756
-0.0271691
-0.0274302
-0.0288032
-0.0318663
-0.0366655
-0.0437736
-0.0534069
-0.0669013
-0.0838606
-0.108845
-0.137225
-0.185163
-0.231982
-0.30572
-0.343338
-0.0491924
-0.0403336
-0.0381451
-0.0338501
-0.0323443
-0.0310997
-0.0315358
-0.0331006
-0.0363712
-0.0413963
-0.0487495
-0.0586522
-0.0724291
-0.0897215
-0.114958
-0.143809
-0.191337
-0.239218
-0.308871
-0.345749
-0.0523009
-0.0436451
-0.0415458
-0.037418
-0.0360525
-0.0349648
-0.0355669
-0.0373111
-0.0407722
-0.0460006
-0.0535674
-0.0636984
-0.0776957
-0.0952456
-0.120606
-0.14979
-0.196701
-0.245493
-0.311005
-0.346157
-0.0553594
-0.0469019
-0.0448911
-0.0409277
-0.039697
-0.0387602
-0.0395177
-0.0414272
-0.0450595
-0.0504663
-0.058212
-0.0685265
-0.0826768
-0.100399
-0.125733
-0.155016
-0.200846
-0.249914
-0.311522
-0.347139
0.00594227
0.0188881
0.0223562
0.0298324
0.0339116
0.0387572
0.0419818
0.0446679
0.0461759
0.0465989
0.0455724
0.0430442
0.0385039
0.0324404
0.0234637
0.0160846
0.00374994
0.0113484
-0.00313204
0.0950735
0.00172263
0.0148996
0.0178694
0.0252619
0.0289144
0.0333253
0.0359826
0.0380293
0.0387641
0.0382859
0.0361961
0.0324446
0.0264464
0.0187623
0.00761284
-0.00193123
-0.0186524
-0.0133949
-0.0395368
0.0628642
-0.00174986
0.0112881
0.0140685
0.0213159
0.0247611
0.0289111
0.0312994
0.0330615
0.0334797
0.0326586
0.0301816
0.0259934
0.0194041
0.0109985
-0.00155961
-0.0128501
-0.0343854
-0.0333351
-0.0744372
0.0281294
-0.00481084
0.00789504
0.0106702
0.0177413
0.0210606
0.0250287
0.02724
0.0288084
0.0290089
0.027944
0.0251725
0.0206211
0.0134907
0.0043555
-0.0096081
-0.0227854
-0.0487499
-0.052526
-0.104979
-0.00602745
-0.00783354
0.0045327
0.00731539
0.0142002
0.0173884
0.0211691
0.023184
0.0245236
0.0244559
0.023076
0.0199148
0.0148812
0.007076
-0.0029244
-0.0183594
-0.0333994
-0.0633344
-0.071667
-0.133117
-0.0411288
-0.0108956
0.00115896
0.00392374
0.0106156
0.0136655
0.0172382
0.0190399
0.0201262
0.0197645
0.0180397
0.0144595
0.00892112
0.000439366
-0.0103917
-0.0271837
-0.0438916
-0.0773996
-0.0901823
-0.160441
-0.0778812
-0.013954
-0.00220447
0.000535837
0.0070268
0.00994837
0.013304
0.0149009
0.0157413
0.0151016
0.0130548
0.00909265
0.00310387
-0.00597041
-0.0175165
-0.0354811
-0.053657
-0.09035
-0.107655
-0.186895
-0.116355
-0.0169768
-0.0055409
-0.00281576
0.00346522
0.00627618
0.0094127
0.0108225
0.0114339
0.0105426
0.00820711
0.00390873
-0.00247199
-0.0120563
-0.0242165
-0.0431851
-0.0626602
-0.102081
-0.123804
-0.211544
-0.156948
-0.0199589
-0.00884917
-0.00612484
-6.43346e-05
0.0026543
0.00556914
0.00680796
0.00720393
0.006082
0.00348268
-0.00111809
-0.00784896
-0.0178798
-0.0305781
-0.050392
-0.0710061
-0.11261
-0.138489
-0.233556
-0.199895
-0.0229039
-0.0121329
-0.00939201
-0.00356284
-0.000915858
0.0017746
0.0028598
0.00305564
0.00172599
-0.00110941
-0.00597383
-0.0130059
-0.0234058
-0.0365439
-0.057001
-0.0785125
-0.121619
-0.150629
-0.250423
-0.248534
0.27209
0.271442
0.27264
0.271706
0.273692
0.272539
0.27582
0.274474
0.280006
0.278607
0.288275
0.287215
0.30487
0.305077
0.339177
0.342575
0.413583
0.421924
0.578144
0.539565
0.272088
0.271435
0.272633
0.271705
0.273681
0.272541
0.275805
0.274482
0.279986
0.278634
0.288251
0.287289
0.304844
0.305258
0.339118
0.342919
0.413161
0.421536
0.574584
0.520459
0.272085
0.271428
0.272626
0.271703
0.27367
0.272541
0.275789
0.274491
0.279965
0.278663
0.28823
0.287371
0.304826
0.30546
0.339077
0.34332
0.412757
0.421286
0.570746
0.503401
0.272082
0.27142
0.272618
0.271701
0.273657
0.272541
0.275771
0.274496
0.279941
0.278685
0.2882
0.287437
0.304788
0.305623
0.338985
0.34361
0.412188
0.420674
0.566304
0.485402
0.272079
0.271412
0.27261
0.271698
0.273644
0.272539
0.275751
0.274498
0.279913
0.278702
0.288161
0.28749
0.304732
0.305756
0.338846
0.343811
0.411454
0.419733
0.561133
0.466069
0.272076
0.271402
0.272601
0.271695
0.27363
0.272536
0.275729
0.274499
0.279881
0.278714
0.288115
0.287533
0.304657
0.305863
0.338661
0.343931
0.410563
0.418501
0.555231
0.445755