/*--------------------------------*- C++ -*----------------------------------*\
  =========                 |
  \\      /  F ield         | OpenFOAM: The Open Source CFD Toolbox
   \\    /   O peration     | Website:  https://openfoam.org
    \\  /    A nd           | Version:  7
     \\/     M anipulation  |
\*---------------------------------------------------------------------------*/
FoamFile
{
    version     2.0;
    format      ascii;
    class       surfaceScalarField;
    location    "20";
    object      phi;
}
// * * * * * * * * * * * * * * * * * * * * * * * * * * * * * * * * * * * * * //

dimensions      [0 3 -1 0 0 0 0];

internalField   nonuniform List<scalar> 
226
(
0.00162243
-1.06963e-05
1.03829e-05
0.00162125
2.45385e-05
-2.33578e-05
0.00161742
3.35489e-05
-2.97164e-05
0.00161242
8.23938e-05
-7.73964e-05
0.00160547
4.58642e-05
-3.89107e-05
0.00157688
0.000395297
-0.000366713
0.00154265
0.000262373
-0.000228139
0.00200201
-0.00184912
0.00162231
-1.08925e-05
0.00162131
2.55441e-05
0.00161723
3.76292e-05
0.00161257
8.70528e-05
0.00160499
5.34394e-05
0.00157707
0.000423217
0.00154064
0.000298806
0.00215223
0.0016222
-1.09757e-05
0.00162136
2.63872e-05
0.00161705
4.19329e-05
0.00161271
9.13985e-05
0.00160456
6.15911e-05
0.00157727
0.000450506
0.00153877
0.000337302
0.00229957
0.00162209
-1.0944e-05
0.00162141
2.70622e-05
0.00161688
4.64636e-05
0.00161286
0.00160413
0.00157748
0.00153696
0.00162197
0.00162147
0.00191474
-1.31957e-06
0.00191201
2.72477e-06
0.00190958
2.43362e-06
0.00190108
8.49888e-06
0.00189851
2.57325e-06
0.00186017
3.8334e-05
0.00184165
1.85259e-05
0.00165019
0.000191456
0.000177959
0.00191472
-2.62022e-06
0.00191202
5.42615e-06
0.00190954
4.90896e-06
0.00190109
1.69521e-05
0.00189839
5.27441e-06
0.00186012
7.66032e-05
0.00184101
3.76287e-05
0.00164957
0.000382896
0.000359097
0.00191468
-3.88446e-06
0.00191203
8.07921e-06
0.00190948
7.45752e-06
0.00190112
2.53097e-05
0.00189822
8.17173e-06
0.00186015
0.000114682
0.00184031
5.74691e-05
0.00164949
0.00057371
0.000542801
0.00191463
-5.09527e-06
0.00191205
1.06596e-05
0.0019094
1.01094e-05
0.00190118
3.35247e-05
0.00189802
1.13289e-05
0.00186025
0.000152455
0.00183953
7.81901e-05
0.00164986
0.000763377
0.000728424
0.00191456
-6.23632e-06
0.00191207
1.31438e-05
0.00190929
1.28935e-05
0.00190126
4.15512e-05
0.00189779
1.48067e-05
0.00186043
0.00018981
0.0018387
9.99236e-05
0.0016507
0.00095138
0.000915363
0.00191447
-7.29216e-06
0.00191211
1.55094e-05
0.00190916
1.5837e-05
0.00190137
4.93456e-05
0.00189751
1.86621e-05
0.00186069
0.000226636
0.00183782
0.000122794
0.00165198
0.00113721
0.00110306
0.00191437
-8.24837e-06
0.00191215
1.77351e-05
0.00190902
1.8965e-05
0.0019015
5.68675e-05
0.00189721
2.29477e-05
0.00186102
0.000262832
0.00183689
0.00014692
0.00165372
0.00132039
0.00129099
0.00191426
-9.09173e-06
0.00191219
1.98015e-05
0.00190886
2.23003e-05
0.00190165
6.40801e-05
0.00189688
2.77108e-05
0.00186141
0.000298307
0.00183591
0.000172416
0.00165588
0.00150041
0.00147873
0.00191414
-9.81037e-06
0.00191225
2.16909e-05
0.00190868
2.5863e-05
0.00190181
7.09514e-05
0.00189653
3.29932e-05
0.00186185
0.000332984
0.00183487
0.000199399
0.00165845
0.00167683
0.00166595
0.00191399
0.00191232
0.00190847
0.00190202
0.00189611
0.00186238
0.00183364
0.00166135
)
;

boundaryField
{
    inlet
    {
        type            calculated;
        value           nonuniform List<scalar> 
15
(
-0.00162212
-0.00162212
-0.00162212
-0.00162212
-0.00162212
-0.00191342
-0.00191342
-0.00191342
-0.00191342
-0.00191342
-0.00191342
-0.00191342
-0.00191342
-0.00191342
-0.00191342
)
;
    }
    outlet
    {
        type            calculated;
        value           nonuniform 0();
    }
    polygon
    {
        type            calculated;
        value           nonuniform 0();
    }
    top
    {
        type            symmetryPlane;
        value           uniform 0;
    }
    bottom
    {
        type            symmetryPlane;
        value           uniform 0;
    }
    outside
    {
        type            calculated;
        value           nonuniform 0();
    }
    procBoundary8to4
    {
        type            processor;
        value           nonuniform List<scalar> 9(3.11666e-12 -3.69986e-12 6.38371e-12 -3.96137e-12 -5.38923e-13 -7.28145e-12 1.27739e-11 -8.81891e-12 -2.03447e-12);
    }
    procBoundary8to9
    {
        type            processor;
        value           nonuniform List<scalar> 
15
(
0.00138977
0.00185237
0.00139042
0.00139143
0.00139278
0.00147223
0.00146844
0.00146579
0.00146424
0.00146376
0.00146429
0.00146578
0.00146814
0.00147124
0.00147492
)
;
    }
    procBoundary8to12
    {
        type            processor;
        value           nonuniform List<scalar> 9(9.54215e-05 7.03215e-05 0.000477147 0.000377823 0.00244375 -1.0797e-05 2.75646e-05 0.00161671 5.12226e-05);
    }
}


// ************************************************************************* //
