/*--------------------------------*- C++ -*----------------------------------*\
  =========                 |
  \\      /  F ield         | OpenFOAM: The Open Source CFD Toolbox
   \\    /   O peration     | Website:  https://openfoam.org
    \\  /    A nd           | Version:  7
     \\/     M anipulation  |
\*---------------------------------------------------------------------------*/
FoamFile
{
    version     2.0;
    format      ascii;
    class       surfaceScalarField;
    location    "10";
    object      phi;
}
// * * * * * * * * * * * * * * * * * * * * * * * * * * * * * * * * * * * * * //

dimensions      [0 3 -1 0 0 0 0];

internalField   nonuniform List<scalar> 
222
(
-2.94628e-05
-0.0177796
0.0176672
8.00168e-05
-0.0178964
0.0177869
0.000190337
-0.0180063
0.017896
0.000298264
-0.0181869
0.018079
0.000405921
-0.0184255
0.0183178
-0.0187503
0.0186493
-3.02875e-05
-0.0178914
7.81913e-05
-0.0180048
0.000187389
-0.0181155
0.000293786
-0.0182933
0.000399213
-0.0185309
-0.0188482
-3.10955e-05
-0.0180024
7.63709e-05
-0.0181123
0.000184446
-0.0182236
0.000289328
-0.0183982
0.000392591
-0.0186342
-0.0189432
-3.18843e-05
-0.0181127
7.45548e-05
-0.0182187
0.000181495
-0.0183305
0.000284845
-0.0185015
0.000385946
-0.0187353
-0.0190354
-3.26508e-05
-0.0182224
7.27506e-05
-0.0183241
0.000178549
-0.0184363
0.000280353
-0.0186033
0.000379299
-0.0188342
-3.33875e-05
-0.0183313
7.09809e-05
-0.0184285
0.000175644
-0.018541
0.000275921
-0.0187036
-0.0189311
-3.40901e-05
-0.0184395
6.92585e-05
-0.0185319
0.000172818
-0.0186446
0.000271638
-0.0188024
-0.0190259
-3.47844e-05
-0.0185469
6.75011e-05
-0.0186341
0.000169957
-0.018747
0.000267347
-0.0188998
-0.019119
-3.55344e-05
-0.0186535
6.55125e-05
-0.0187352
0.000166719
-0.0188482
0.00026241
-0.0189955
-0.01921
-3.67555e-05
-0.0187592
6.27415e-05
-0.0188347
0.000161449
-0.0189469
0.000254274
-0.0190883
-0.0192976
-0.000126685
-0.0173677
-9.15683e-05
-0.0175183
-5.60352e-05
-0.0176313
-2.1778e-05
-0.0178484
1.32686e-05
-0.0181055
-0.0185155
-0.000127999
-0.0174041
-9.39144e-05
-0.0175524
-5.96e-05
-0.0176656
-2.71036e-05
-0.0178809
5.62164e-06
-0.0181382
-0.0185451
-0.000129284
-0.0174397
-9.62394e-05
-0.0175855
-6.31451e-05
-0.0176987
-3.24e-05
-0.0179117
-1.98799e-06
-0.0181686
-0.0185709
-0.000130538
-0.0174746
-9.85461e-05
-0.0176175
-6.66792e-05
-0.0177306
-3.7679e-05
-0.0179407
-9.4703e-06
-0.0181968
-0.018593
-0.00013176
-0.0175088
-0.00010083
-0.0176484
-7.01948e-05
-0.0177612
-4.29298e-05
-0.017968
-1.70066e-05
-0.0182228
-0.0186117
-0.000132948
-0.0175421
-0.000103088
-0.0176782
-7.36865e-05
-0.0177906
-4.81432e-05
-0.0179935
-2.45499e-05
-0.0182463
-0.0186262
-0.000134098
-0.0175746
-0.000105315
-0.017707
-7.71477e-05
-0.0178188
-5.33095e-05
-0.0180173
-3.20598e-05
-0.0182676
-0.018637
-0.000135207
-0.0176063
-0.000107507
-0.0177347
-8.05668e-05
-0.0178457
-5.84086e-05
-0.0180395
-3.94629e-05
-0.0182865
-0.0186443
-0.000136271
-0.0176372
-0.000109653
-0.0177614
-8.39245e-05
-0.0178715
-6.34009e-05
-0.01806
-4.66873e-05
-0.0183033
-0.0186482
-0.000137279
-0.000111756
-8.71944e-05
-6.82416e-05
-5.36733e-05
0.0176506
-0.00155899
-0.00589825
0.0175157
-0.00176412
-0.00721723
0.0173891
-0.0019537
-0.00877509
0.0172153
-0.00212981
-0.0106481
0.0170289
)
;

boundaryField
{
    inlet
    {
        type            calculated;
        value           nonuniform 0();
    }
    outlet
    {
        type            calculated;
        value           nonuniform 0();
    }
    polygon
    {
        type            calculated;
        value           nonuniform 0();
    }
    top
    {
        type            symmetryPlane;
        value           uniform 0;
    }
    bottom
    {
        type            symmetryPlane;
        value           uniform 0;
    }
    outside
    {
        type            calculated;
        value           nonuniform List<scalar> 
22
(
0.000141887
0.000142024
0.000142134
0.000142215
0.000142266
0.000142287
0.000142278
0.000142242
0.000142176
0.000142386
0.000163828
0.000164408
0.000164943
0.000165433
0.000165876
0.000166271
0.000166617
0.00016691
0.000167151
0.000167312
0.00130381
0.0047897
)
;
    }
    procBoundary1to0
    {
        type            processor;
        value           nonuniform List<scalar> 5(-0.0173954 -0.0173106 -0.0171995 -0.0170392 -0.0168125);
    }
    procBoundary1to2
    {
        type            processor;
        value           nonuniform List<scalar> 6(0.0173305 0.0174832 0.0175958 0.0178142 0.0180704 0.0184821);
    }
    procBoundary1to5
    {
        type            processor;
        value           nonuniform List<scalar> 
23
(
0.000506856
0.000497125
0.000487623
0.000478115
0.000468626
-0.0191247
0.000372761
0.000366514
0.000360402
0.000353413
0.00034184
4.66882e-05
3.52012e-05
2.38363e-05
1.25866e-05
1.67723e-06
-9.98427e-06
-2.12826e-05
-3.22152e-05
-4.26993e-05
-5.25848e-05
-0.00234615
-0.0129168
)
;
    }
}


// ************************************************************************* //
