/*--------------------------------*- C++ -*----------------------------------*\
  =========                 |
  \\      /  F ield         | OpenFOAM: The Open Source CFD Toolbox
   \\    /   O peration     | Website:  https://openfoam.org
    \\  /    A nd           | Version:  7
     \\/     M anipulation  |
\*---------------------------------------------------------------------------*/
FoamFile
{
    version     2.0;
    format      ascii;
    class       surfaceScalarField;
    location    "58";
    object      phi;
}
// * * * * * * * * * * * * * * * * * * * * * * * * * * * * * * * * * * * * * //

dimensions      [0 3 -1 0 0 0 0];

internalField   nonuniform List<scalar> 
14496
(
0.00248427
-2.5532e-08
4.53462e-08
0.00248382
-4.63698e-07
9.04782e-07
0.00248262
-1.25585e-06
2.45829e-06
0.00248022
-2.48745e-06
4.88935e-06
0.00247618
-4.16428e-06
8.20938e-06
0.00247012
-6.20987e-06
1.22633e-05
0.00246179
-8.52534e-06
1.68531e-05
0.00245103
-1.10085e-05
2.17757e-05
0.00243774
-1.3576e-05
2.68671e-05
0.00242191
-1.61578e-05
3.19884e-05
0.00240357
-1.87005e-05
3.70353e-05
0.0023828
-2.11654e-05
4.19316e-05
0.00235971
-2.3524e-05
4.66215e-05
0.0023344
-2.57555e-05
5.10636e-05
0.00230702
-2.78445e-05
5.52271e-05
0.00227771
-2.97794e-05
5.90884e-05
0.00224663
-3.1551e-05
6.26285e-05
0.00221395
-3.31512e-05
6.58304e-05
0.00217984
-3.45725e-05
6.86782e-05
0.0021445
-3.58078e-05
7.11572e-05
0.00210809
-3.6852e-05
7.32569e-05
0.00207082
-3.77036e-05
7.49741e-05
0.00203287
-3.83667e-05
7.6317e-05
0.00199441
-3.88524e-05
7.73076e-05
0.00195561
-3.91785e-05
7.79812e-05
0.0019166
-3.93684e-05
7.83839e-05
0.00187748
-3.94487e-05
7.8568e-05
0.00183834
-3.94458e-05
7.85852e-05
0.00179924
-3.93831e-05
7.84806e-05
0.00176023
-3.92772e-05
7.82862e-05
0.00172135
-3.91361e-05
7.80169e-05
0.00168264
-3.89578e-05
7.76678e-05
0.00164416
-3.87303e-05
7.72145e-05
0.00160597
-3.84333e-05
7.66167e-05
0.00156819
-3.80407e-05
7.58222e-05
0.00153094
-3.75231e-05
7.47737e-05
0.00149438
-3.68518e-05
7.34144e-05
0.00145869
-3.60007e-05
7.16936e-05
0.00142406
-3.49492e-05
6.95712e-05
0.00139073
-3.36836e-05
6.70216e-05
0.00135889
-3.21992e-05
6.40364e-05
0.00132876
-3.05008e-05
6.06271e-05
0.00130054
-2.86043e-05
5.68264e-05
0.00127439
-2.65363e-05
5.26886e-05
0.00125043
-2.43333e-05
4.82879e-05
0.00122876
-2.20403e-05
4.37142e-05
0.0012094
-1.97079e-05
3.90691e-05
0.00119233
-1.73891e-05
3.44596e-05
0.00117749
-1.51298e-05
2.99717e-05
0.00116477
-1.2966e-05
2.56803e-05
0.00115404
-1.09389e-05
2.16671e-05
0.00114513
-9.07671e-06
1.79858e-05
0.00113786
-7.39674e-06
1.46697e-05
0.00113203
-5.90689e-06
1.17336e-05
0.00112746
-4.60721e-06
9.17654e-06
0.00112397
-3.49156e-06
6.98566e-06
0.00112138
-2.54879e-06
5.1381e-06
0.00111954
-1.76437e-06
3.60444e-06
0.00111831
-1.12189e-06
2.35175e-06
0.00111757
-6.04033e-07
1.34594e-06
0.00111721
-1.91532e-07
5.51721e-07
0.00111715
1.24818e-07
-6.58883e-08
0.00111729
3.57996e-07
-5.00882e-07
0.00111759
5.22553e-07
-8.17625e-07
0.00111797
6.30701e-07
-1.01596e-06
0.0011184
6.89638e-07
-1.11599e-06
0.00111883
7.04176e-07
-1.13174e-06
0.00111921
6.77188e-07
-1.06224e-06
0.00111952
6.12113e-07
-9.15116e-07
0.0011197
5.10918e-07
-6.92546e-07
0.00111972
3.69357e-07
-3.93721e-07
0.00111957
1.78823e-07
-2.52053e-08
0.00111914
-4.9894e-08
4.78106e-07
0.00111842
-3.4489e-07
1.06785e-06
0.00111733
-6.9316e-07
1.77823e-06
0.00111582
-1.11059e-06
2.62688e-06
0.00111379
-1.60808e-06
3.63534e-06
0.00111116
-2.19852e-06
4.82917e-06
0.00110782
-2.8975e-06
6.23926e-06
0.00110364
-3.72368e-06
7.90258e-06
0.00109847
-4.69981e-06
9.86418e-06
0.00109215
-5.85385e-06
1.21794e-05
0.00108445
-7.22041e-06
1.49165e-05
0.00107513
-8.84283e-06
1.81613e-05
0.00106389
-1.07758e-05
2.20216e-05
0.00105034
-1.30896e-05
2.66358e-05
0.00103403
-1.58747e-05
3.21823e-05
0.00101439
-1.92499e-05
3.88945e-05
0.000990677
-2.33751e-05
4.70858e-05
0.000961975
-2.84512e-05
5.71532e-05
0.000927051
-3.48061e-05
6.97303e-05
0.000884434
-4.2675e-05
8.52918e-05
0.000831725
-5.30686e-05
0.000105778
0.000767079
-6.53855e-05
0.000130031
0.000684293
-8.41349e-05
0.000166921
0.00058491
-0.000101591
0.000200975
0.000451382
-0.000136599
0.000270126
0.000304603
-0.000152017
0.000298796
0.000127764
-0.000179971
0.000356809
-0.000131182
0.000258946
0.00250905
4.72338e-12
0.00250859
6.76027e-11
0.00250733
1.77358e-10
0.00250485
3.23297e-10
0.00250068
4.93187e-10
0.00249447
6.74859e-10
0.00248594
8.57131e-10
0.00247493
1.03048e-09
0.00246136
1.18705e-09
0.0024452
1.32104e-09
0.0024265
1.42862e-09
0.00240533
1.50765e-09
0.0023818
1.55729e-09
0.00235605
1.57779e-09
0.0023282
1.57016e-09
0.00229842
1.53592e-09
0.00226687
1.47653e-09
0.00223371
1.39367e-09
0.00219914
1.28898e-09
0.00216333
1.16357e-09
0.00212648
1.01847e-09
0.00208877
8.54529e-10
0.00205041
6.72956e-10
0.00201155
4.74765e-10
0.00197238
2.61345e-10
0.00193301
3.47803e-11
0.00189356
-2.02282e-10
0.00185411
-4.46822e-10
0.00181473
-6.94879e-10
0.00177545
-9.4199e-10
0.00173632
-1.18335e-09
0.00169736
-1.41391e-09
0.00165863
-1.62811e-09
0.0016202
-1.82125e-09
0.00158216
-1.9879e-09
0.00154464
-2.12388e-09
0.00150779
-2.22538e-09
0.0014718
-2.28942e-09
0.00143685
-2.31409e-09
0.00140317
-2.29817e-09
0.00137097
-2.24133e-09
0.00134047
-2.1443e-09
0.00131187
-2.00846e-09
0.00128533
-1.83629e-09
0.001261
-1.63051e-09
0.00123896
-1.3949e-09
0.00121926
-1.13378e-09
0.00120187
-8.51754e-10
0.00118674
-5.53911e-10
0.00117377
-2.45791e-10
0.00116284
6.73005e-11
0.00115376
3.7771e-10
0.00114636
6.81016e-10
0.00114045
9.70639e-10
0.00113584
1.24077e-09
0.00113235
1.48579e-09
0.0011298
1.70014e-09
0.00112803
1.88012e-09
0.00112691
2.02175e-09
0.0011263
2.13023e-09
0.00112611
2.17342e-09
0.00112623
2.08918e-09
0.00112659
2.03558e-09
0.00112711
1.93029e-09
0.00112774
1.73448e-09
0.00112843
1.55901e-09
0.00112913
1.36784e-09
0.00112981
1.15964e-09
0.00113042
8.70382e-10
0.00113093
5.4865e-10
0.0011313
2.35051e-10
0.00113148
-5.96989e-11
0.00113143
-3.68646e-10
0.00113108
-6.44107e-10
0.00113039
-8.94394e-10
0.00112928
-1.10629e-09
0.00112767
-1.27113e-09
0.00112548
-1.38754e-09
0.00112258
-1.45596e-09
0.00111886
-1.47714e-09
0.00111416
-1.45226e-09
0.00110831
-1.38373e-09
0.00110109
-1.27574e-09
0.00109225
-1.13431e-09
0.00108147
-9.6698e-10
0.00106838
-7.82392e-10
0.00105251
-5.89524e-10
0.00103326
-3.97449e-10
0.00100988
-2.14132e-10
0.000981433
-4.75445e-11
0.000946627
9.75632e-11
0.000903951
2.13237e-10
0.000850883
3.05589e-10
0.000785497
3.61441e-10
0.000701361
3.95382e-10
0.00059977
3.99901e-10
0.000463171
3.9048e-10
0.000311153
3.70274e-10
0.000131182
3.24918e-10
2.05851e-10
0.00227584
-5.18095e-08
3.05625e-08
0.00227556
-1.28079e-06
1.56459e-06
0.00227471
-3.50578e-06
4.35456e-06
0.00227288
-7.02988e-06
8.86628e-06
0.00226962
-1.18708e-05
1.51271e-05
0.0022646
-1.7794e-05
2.2818e-05
0.00225755
-2.45049e-05
3.15465e-05
0.00224834
-3.17055e-05
4.09219e-05
0.00223686
-3.91552e-05
5.06305e-05
0.0022231
-4.66534e-05
6.04127e-05
0.00220708
-5.40496e-05
7.00757e-05
0.00218883
-6.12339e-05
7.9478e-05
0.00216844
-6.81252e-05
8.85149e-05
0.002146
-7.4663e-05
9.71069e-05
0.00212161
-8.08015e-05
0.000105193
0.00209539
-8.65048e-05
0.000112723
0.00206748
-9.17431e-05
0.000119657
0.00203801
-9.64896e-05
0.000125954
0.00200715
-0.000100719
0.000131579
0.00197506
-0.000104408
0.000136499
0.00194191
-0.000107541
0.000140692
0.00190787
-0.000110112
0.000144152
0.00187311
-0.000112135
0.000146896
0.00183778
-0.000113641
0.000148966
0.00180204
-0.000114683
0.000150429
0.00176599
-0.000115328
0.000151371
0.00172975
-0.00011565
0.00015189
0.0016934
-0.000115725
0.000152076
0.00165701
-0.000115615
0.000152009
0.00162063
-0.000115364
0.000151741
0.00158433
-0.000114991
0.000151293
0.00154817
-0.000114487
0.000150647
0.00151223
-0.000113814
0.000149754
0.00147661
-0.000112912
0.000148533
0.00144143
-0.000111705
0.000146885
0.00140683
-0.00011011
0.000144704
0.00137299
-0.000108045
0.000141887
0.00134009
-0.000105437
0.000138343
0.00130831
-0.000102232
0.000134004
0.00127788
-9.8395e-05
0.000128832
0.00124897
-9.39172e-05
0.000122821
0.00122179
-8.88197e-05
0.000116005
0.00119648
-8.31551e-05
0.000108461
0.00117318
-7.70073e-05
0.000100305
0.00115198
-7.04886e-05
9.16887e-05
0.00113292
-6.37343e-05
8.2794e-05
0.001116
-5.68952e-05
7.38201e-05
0.00110115
-5.01248e-05
6.49711e-05
0.0010883
-4.35552e-05
5.6406e-05
0.00107732
-3.72929e-05
4.82774e-05
0.00106804
-3.14539e-05
4.0727e-05
0.00106031
-2.61137e-05
3.38468e-05
0.00105394
-2.13178e-05
2.76911e-05
0.00104874
-1.70848e-05
2.22797e-05
0.00104455
-1.34108e-05
1.76033e-05
0.00104119
-1.02745e-05
1.36305e-05
0.00103852
-7.64042e-06
1.03119e-05
0.0010364
-5.46391e-06
7.58689e-06
0.00103471
-3.69566e-06
5.38946e-06
0.00103334
-2.28524e-06
3.65329e-06
0.00103221
-1.18214e-06
2.31383e-06
0.00103123
-3.38958e-07
1.31471e-06
0.00103035
2.67678e-07
6.10909e-07
0.00102954
6.70713e-07
1.44445e-07
0.00102872
9.18069e-07
-9.74776e-08
0.00102785
1.02372e-06
-1.53078e-07
0.00102691
9.99424e-07
-6.13406e-08
0.00102585
8.57061e-07
2.01971e-07
0.00102463
6.02657e-07
6.14337e-07
0.00102322
2.45508e-07
1.17066e-06
0.00102157
-2.34454e-07
1.88098e-06
0.00101967
-8.61855e-07
2.75825e-06
0.00101746
-1.61751e-06
3.83384e-06
0.00101487
-2.53408e-06
5.11797e-06
0.00101186
-3.62945e-06
6.63965e-06
0.00100836
-4.93041e-06
8.43439e-06
0.00100428
-6.46903e-06
1.05437e-05
0.00099955
-8.28299e-06
1.30167e-05
0.000994055
-1.04179e-05
1.59128e-05
0.00098768
-1.29281e-05
1.93029e-05
0.000980287
-1.58801e-05
2.32731e-05
0.000971713
-1.93551e-05
2.79291e-05
0.000961766
-2.34537e-05
3.3401e-05
0.000950216
-2.83017e-05
3.98516e-05
0.000936789
-3.40576e-05
4.74853e-05
0.000921149
-4.09242e-05
5.65633e-05
0.000902891
-4.91625e-05
6.74205e-05
0.00088151
-5.91146e-05
8.04957e-05
0.000856379
-7.12356e-05
9.63665e-05
0.000826702
-8.61129e-05
0.000115791
0.000791482
-0.000104637
0.000139857
0.000749436
-0.000127593
0.00016964
0.000698817
-0.000157586
0.000208205
0.000637796
-0.000193385
0.000254406
0.000562245
-0.000246819
0.00032237
0.000473246
-0.000296644
0.000385643
0.000357311
-0.000396315
0.00051225
0.00023758
-0.000433179
0.00055291
8.4858e-05
-0.000517932
0.000670654
-0.00035228
0.000437138
0.00234238
0.00234201
0.00234096
0.00233882
0.00233516
0.00232963
0.00232198
0.00231205
0.00229976
0.00228509
0.00226808
0.00224878
0.00222727
0.00220367
0.0021781
0.00215068
0.00212157
0.00209091
0.00205887
0.00202562
0.00199133
0.0019562
0.00192038
0.00188404
0.00184734
0.0018104
0.00177332
0.00173618
0.00169904
0.00166196
0.00162499
0.00158817
0.00155157
0.00151528
0.00147939
0.00144406
0.00140943
0.00137568
0.00134302
0.00131165
0.00128177
0.00125358
0.00122725
0.00120293
0.00118073
0.00116071
0.00114288
0.00112722
0.00111363
0.00110202
0.00109223
0.00108411
0.00107746
0.00107211
0.00106787
0.00106458
0.00106208
0.00106022
0.00105888
0.00105794
0.00105731
0.0010569
0.00105667
0.00105652
0.00105642
0.00105633
0.0010562
0.001056
0.00105568
0.00105524
0.00105461
0.00105372
0.00105258
0.00105111
0.00104926
0.00104696
0.00104413
0.00104067
0.00103649
0.00103147
0.00102545
0.00101828
0.00100974
0.000999599
0.000987563
0.000973275
0.000956294
0.000936074
0.000911925
0.000882965
0.000848058
0.000805757
0.000753948
0.000690595
0.000610697
0.000515028
0.000388839
0.000254456
9.33333e-05
0.00193229
3.54267e-08
-1.86554e-07
0.00193241
-1.68355e-06
1.56736e-06
0.00193234
-4.85551e-06
4.9239e-06
0.00193166
-1.01506e-05
1.08298e-05
0.00192991
-1.76139e-05
1.93595e-05
0.00192674
-2.68405e-05
3.00084e-05
0.00192191
-3.73415e-05
4.21808e-05
0.00191524
-4.86399e-05
5.53102e-05
0.00190664
-6.03531e-05
6.89444e-05
0.00189609
-7.21705e-05
8.27217e-05
0.00188358
-8.38621e-05
9.63775e-05
0.00186912
-9.52595e-05
0.000109717
0.00185276
-0.000106236
0.000122593
0.00183457
-0.000116696
0.000134891
0.00181461
-0.000126562
0.00014652
0.00179298
-0.000135772
0.000157403
0.00176978
-0.000144271
0.000167468
0.00174514
-0.000152007
0.000176653
0.00171917
-0.000158933
0.000184896
0.00169203
-0.000165008
0.000192147
0.00166386
-0.000170203
0.000198373
0.00163481
-0.000174511
0.000203566
0.00160501
-0.000177953
0.000207752
0.0015746
-0.000180583
0.000210994
0.0015437
-0.000182481
0.000213384
0.00151241
-0.000183749
0.000215038
0.00148083
-0.000184499
0.000216081
0.00144903
-0.000184839
0.000216629
0.00141711
-0.000184855
0.000216776
0.00138514
-0.000184604
0.000216578
0.0013532
-0.000184104
0.000216046
0.00132138
-0.00018333
0.000215146
0.0012898
-0.000182216
0.000213795
0.00125859
-0.000180665
0.000211881
0.00122788
-0.000178557
0.000209266
0.00119783
-0.000175767
0.000205809
0.00116863
-0.000172174
0.000201377
0.00114045
-0.000167677
0.000195859
0.00111347
-0.000162201
0.000189179
0.00108787
-0.000155707
0.000181306
0.00106382
-0.000148199
0.000172256
0.00104144
-0.000139731
0.000162106
0.00102085
-0.000130404
0.000150989
0.00100213
-0.000120369
0.000139095
0.000985292
-0.00010982
0.000126658
0.000970325
-9.89843e-05
0.000113951
0.000957161
-8.81058e-05
0.00010127
0.000945705
-7.7421e-05
8.8877e-05
0.000935839
-6.71344e-05
7.70012e-05
0.000927398
-5.74231e-05
6.58633e-05
0.000920218
-4.84476e-05
5.56274e-05
0.000914129
-4.03089e-05
4.63988e-05
0.000908959
-3.30649e-05
3.82348e-05
0.000904546
-2.67319e-05
3.11444e-05
0.00090074
-2.12917e-05
2.50977e-05
0.000897404
-1.67008e-05
2.00371e-05
0.000894417
-1.28949e-05
1.58819e-05
0.000891676
-9.79709e-06
1.25385e-05
0.000889092
-7.32565e-06
9.90953e-06
0.000886591
-5.39957e-06
7.89987e-06
0.000884112
-3.94173e-06
6.42088e-06
0.000881601
-2.88247e-06
5.39369e-06
0.000879015
-2.16656e-06
4.75226e-06
0.000876323
-1.74261e-06
4.4354e-06
0.000873486
-1.56872e-06
4.40499e-06
0.000870473
-1.61225e-06
4.62541e-06
0.000867258
-1.85373e-06
5.0689e-06
0.000863807
-2.28258e-06
5.73342e-06
0.000860087
-2.89214e-06
6.6125e-06
0.000856061
-3.68184e-06
7.7073e-06
0.000851694
-4.6645e-06
9.03132e-06
0.000846949
-5.86084e-06
1.06065e-05
0.000841778
-7.29227e-06
1.24633e-05
0.00083613
-8.98364e-06
1.46315e-05
0.000829948
-1.09703e-05
1.71521e-05
0.000823168
-1.32946e-05
2.00744e-05
0.000815718
-1.60069e-05
2.34568e-05
0.000807517
-1.91669e-05
2.73686e-05
0.00079847
-2.28468e-05
3.18934e-05
0.000788473
-2.71321e-05
3.71296e-05
0.000777402
-3.21271e-05
4.31974e-05
0.000765118
-3.79593e-05
5.02432e-05
0.000751457
-4.47856e-05
5.84467e-05
0.000736228
-5.28017e-05
6.8031e-05
0.000719206
-6.2253e-05
7.92751e-05
0.000700125
-7.34522e-05
9.25329e-05
0.00067867
-8.67985e-05
0.000108254
0.000654461
-0.000102815
0.000127024
0.000627046
-0.000122183
0.000149598
0.000595866
-0.000145807
0.000176987
0.000560296
-0.000174915
0.000210484
0.000519452
-0.000210939
0.000251783
0.000472708
-0.000256952
0.000303696
0.000418414
-0.000312765
0.00036706
0.000356399
-0.000391901
0.000453916
0.000285481
-0.000467694
0.000538612
0.00020486
-0.000612124
0.000692745
0.000125877
-0.000652072
0.000731055
1.78774e-05
-0.000793355
0.000901354
-0.000463204
0.000481081
0.00202068
0.00202057
0.00202006
0.00201878
0.00201629
0.00201227
0.00200648
0.00199876
0.00198904
0.00197728
0.00196349
0.00194771
0.00192999
0.0019104
0.00188903
0.00186598
0.00184137
0.00181531
0.00178796
0.00175945
0.00172994
0.00169958
0.00166853
0.00163691
0.00160486
0.00157248
0.00153987
0.00150711
0.00147426
0.0014414
0.00140859
0.0013759
0.00134344
0.00131131
0.00127964
0.00124858
0.00121829
0.00118895
0.00116076
0.00113388
0.0011085
0.00108478
0.00106284
0.00104277
0.00102464
0.00100845
0.000994165
0.000981715
0.000970987
0.000961841
0.000954121
0.000947659
0.000942285
0.000937833
0.000934144
0.000931074
0.000928491
0.000926281
0.000924344
0.000922598
0.00092097
0.000919403
0.000917847
0.000916249
0.000914583
0.000912817
0.000910902
0.000908822
0.000906544
0.000904033
0.000901249
0.000898146
0.000894688
0.000890822
0.000886492
0.000881631
0.000876168
0.000870018
0.000863084
0.000855255
0.000846401
0.000836371
0.000824986
0.000812036
0.000797268
0.000780379
0.000761001
0.000738682
0.000712866
0.00068285
0.000647791
0.000606492
0.000557745
0.000499385
0.000429854
0.000347803
0.000247928
0.000148766
2.60658e-05
0.00152284
4.41403e-07
-8.98831e-07
0.00152368
-1.1526e-06
3.07211e-07
0.00152483
-4.46935e-06
3.32393e-06
0.00152576
-1.07541e-05
9.82481e-06
0.00152594
-2.0126e-05
1.99474e-05
0.00152497
-3.19681e-05
3.29312e-05
0.00152261
-4.55713e-05
4.79315e-05
0.0015187
-6.02798e-05
6.41951e-05
0.00151315
-7.55747e-05
8.11239e-05
0.00150592
-9.10511e-05
9.82755e-05
0.00149701
-0.000106414
0.000115325
0.00148643
-0.000121446
0.000132032
0.00147419
-0.000135982
0.000148215
0.00146036
-0.000149893
0.00016373
0.00144497
-0.000163072
0.000178455
0.00142812
-0.000175427
0.000192284
0.00140987
-0.000186876
0.000205119
0.00139034
-0.000197341
0.000216871
0.00136964
-0.000206751
0.000227457
0.00134787
-0.000215047
0.000236813
0.00132517
-0.000222193
0.000244898
0.00130164
-0.000228181
0.000251708
0.0012774
-0.000233044
0.000257279
0.00125256
-0.000236851
0.000261691
0.00122722
-0.000239706
0.000265054
0.00120145
-0.000241736
0.000267503
0.00117535
-0.000243072
0.000269174
0.00114899
-0.000243836
0.000270191
0.00112247
-0.000244123
0.000270643
0.00109588
-0.000243983
0.000270577
0.00106932
-0.000243421
0.000269983
0.0010429
-0.000242387
0.000268801
0.00101677
-0.000240788
0.000266922
0.000991059
-0.000238493
0.000264202
0.000965931
-0.000235353
0.000260481
0.00094155
-0.000231215
0.000255597
0.000918081
-0.000225937
0.000249406
0.00089569
-0.000219409
0.0002418
0.000874532
-0.000211558
0.000232716
0.000854746
-0.000202364
0.00022215
0.000836445
-0.000191863
0.000210164
0.000819711
-0.00018016
0.000196894
0.000804588
-0.000167421
0.000182544
0.000791077
-0.000153874
0.000167385
0.000779136
-0.000139797
0.000151738
0.000768684
-0.000125503
0.000135954
0.00075961
-0.00011132
0.000120394
0.000751777
-9.7553e-05
0.000105386
0.000745011
-8.44443e-05
9.12103e-05
0.00073914
-7.2234e-05
7.81051e-05
0.000733998
-6.10861e-05
6.62276e-05
0.000729428
-5.11034e-05
5.56737e-05
0.000725279
-4.2337e-05
4.64857e-05
0.000721419
-3.47842e-05
3.86446e-05
0.000717731
-2.84001e-05
3.20876e-05
0.000714118
-2.31117e-05
2.67252e-05
0.000710496
-1.88218e-05
2.24433e-05
0.0007068
-1.5421e-05
1.91168e-05
0.000702977
-1.27979e-05
1.66209e-05
0.000698985
-1.0846e-05
1.48386e-05
0.000694788
-9.46724e-06
1.36639e-05
0.000690359
-8.57518e-06
1.30047e-05
0.000685672
-8.0979e-06
1.27844e-05
0.000680706
-7.97333e-06
1.29393e-05
0.000675438
-8.15891e-06
1.34265e-05
0.000669846
-8.61877e-06
1.42114e-05
0.000663903
-9.32955e-06
1.52721e-05
0.000657584
-1.02867e-05
1.66061e-05
0.000650857
-1.14864e-05
1.82131e-05
0.000643689
-1.29342e-05
2.01024e-05
0.000636042
-1.46473e-05
2.22944e-05
0.000627875
-1.66515e-05
2.48184e-05
0.000619143
-1.898e-05
2.77115e-05
0.000609797
-2.16687e-05
3.10151e-05
0.00059978
-2.47644e-05
3.47811e-05
0.000589032
-2.83227e-05
3.90707e-05
0.000577485
-3.24092e-05
4.39559e-05
0.000565065
-3.71016e-05
4.95217e-05
0.000551688
-4.24938e-05
5.58707e-05
0.000537262
-4.86953e-05
6.31215e-05
0.000521683
-5.58402e-05
7.14194e-05
0.000504834
-6.40912e-05
8.09401e-05
0.000486584
-7.36475e-05
9.18972e-05
0.000466786
-8.47556e-05
0.000104554
0.000445271
-9.77221e-05
0.000119237
0.000421853
-0.000112935
0.000136353
0.00039632
-0.000130882
0.000156414
0.000368441
-0.000152199
0.000180078
0.000337967
-0.000177695
0.00020817
0.000304643
-0.000208448
0.000241772
0.000268266
-0.000245781
0.000282159
0.000228541
-0.000291546
0.00033127
0.000185965
-0.000348167
0.000390742
0.000139652
-0.000417578
0.000463891
9.48364e-05
-0.000508132
0.000552947
4.62747e-05
-0.000600387
0.000648949
1.73439e-05
-0.000749415
0.000778346
-1.45842e-05
-0.000789793
0.000821721
-2.50958e-05
-0.000956966
0.000967478
-0.000437827
0.000412731
0.00160967
0.00161009
0.00161054
0.00161062
0.00160985
0.00160789
0.0016045
0.00159953
0.0015929
0.00158457
0.00157454
0.00156281
0.00154942
0.00153442
0.00151787
0.00149984
0.00148043
0.00145974
0.00143789
0.00141499
0.00139117
0.00136655
0.00134126
0.00131541
0.00128908
0.00126238
0.00123539
0.00120819
0.00118084
0.00115343
0.00112606
0.00109882
0.00107183
0.00104521
0.00101913
0.000993721
0.000969161
0.00094561
0.000923231
0.000902173
0.000882565
0.000864512
0.00084808
0.000833301
0.000820162
0.00080861
0.00079856
0.000789884
0.000782441
0.00077607
0.000770612
0.000765907
0.000761805
0.000758165
0.000754863
0.000751788
0.000748848
0.000745966
0.000743077
0.000740131
0.000737085
0.000733903
0.000730558
0.00072702
0.000723266
0.000719273
0.000715012
0.000710459
0.000705585
0.000700358
0.000694742
0.000688697
0.00068218
0.000675143
0.000667531
0.000659283
0.00065033
0.000640597
0.000629997
0.000618431
0.000605788
0.00059194
0.000576739
0.000560015
0.000541568
0.000521166
0.000498538
0.000473362
0.000445265
0.000413804
0.000378507
0.000338744
0.000294274
0.000243757
0.000189541
0.000127766
7.10962e-05
1.23582e-05
-4.32537e-05
-0.000887479
0.010534
-0.0103036
-0.00111855
0.0105251
-0.010294
-0.00135048
0.010512
-0.0102801
-0.00158368
0.0105025
-0.0102693
-0.00181824
0.0104983
-0.0102638
-0.0020546
0.0105005
-0.0102641
-0.00229318
0.0105102
-0.0102716
-0.0025346
0.010529
-0.0102876
-0.00277961
0.010559
-0.010314
-0.00302886
0.0106022
-0.0103529
-0.0032814
0.010658
-0.0104055
-0.00352919
0.0107154
-0.0104677
-0.00374281
0.0107303
-0.0105167
-0.00384427
0.0105789
-0.0104775
-0.00368351
0.010006
-0.0101667
-0.00307787
0.00864133
-0.00924697
-0.0019872
0.00615512
-0.00724578
-0.000772968
0.0027992
-0.00401343
-0.000100345
0.000219628
-0.000892251
-0.000521438
0.000421093
-0.000893266
0.0107631
-0.00112559
0.0107574
-0.00135773
0.0107441
-0.00159166
0.0107364
-0.00182678
0.0107334
-0.00206377
0.0107374
-0.0023029
0.0107493
-0.00254473
0.0107708
-0.00278949
0.0108037
-0.00303608
0.0108488
-0.00327851
0.0109005
-0.00349709
0.010934
-0.00364241
0.0108757
-0.00361872
0.0105552
-0.00328729
0.00967455
-0.00253855
0.00789259
-0.00144848
0.00506504
-0.000479965
0.00183068
-3.54452e-05
-0.000224891
-0.000556883
-0.000916758
0.01012
-0.00993577
-0.00110128
0.0101102
-0.00992565
-0.00128694
0.0100948
-0.00990915
-0.001474
0.0100827
-0.00989568
-0.0016627
0.0100756
-0.00988689
-0.00185335
0.0100741
-0.00988343
-0.00204638
0.0100794
-0.00988633
-0.0022423
0.0100927
-0.00989682
-0.00244185
0.0101161
-0.00991658
-0.00264589
0.010152
-0.00994794
-0.00285485
0.0102026
-0.00999367
-0.00306657
0.010268
-0.0100562
-0.00327023
0.0103358
-0.0101321
-0.0034302
0.0103593
-0.0101993
-0.00346375
0.0102112
-0.0101776
-0.00322293
0.00961733
-0.00985815
-0.00252618
0.00808328
-0.00878002
-0.00131545
0.00518874
-0.00639948
-0.000272675
0.00167071
-0.00271348
-0.000280732
8.05745e-06
-0.000925032
-0.00110885
-0.0012941
-0.00148062
-0.00166879
-0.00185881
-0.00205104
-0.00224588
-0.00244374
-0.0026447
-0.00284757
-0.00304726
-0.00322822
-0.00334641
-0.00330198
-0.00293163
-0.00209413
-0.000918819
-0.000140361
-0.000904864
0.00980471
-0.00967256
-0.00103752
0.00979424
-0.00966158
-0.00117146
0.00977625
-0.00964231
-0.00130712
0.00976135
-0.00962569
-0.00144467
0.00975065
-0.00961309
-0.00158447
0.00974513
-0.00960534
-0.00172691
0.00974562
-0.00960319
-0.00187247
0.00975336
-0.0096078
-0.0020218
0.00976992
-0.00962059
-0.00217567
0.00979761
-0.00964375
-0.00233477
0.00983929
-0.00968019
-0.00249904
0.00989791
-0.00973364
-0.00266587
0.00997274
-0.00980592
-0.00282389
0.0100553
-0.00989723
-0.00294125
0.0100974
-0.00998006
-0.00292645
0.00995621
-0.00997101
-0.00260362
0.00923841
-0.00956124
-0.001758
0.00734827
-0.0081939
-0.000572055
0.00373282
-0.00491876
0.000333138
-0.000905192
-0.000915111
-0.00104652
-0.00117942
-0.00131375
-0.00144999
-0.00158828
-0.00172899
-0.00187245
-0.00201912
-0.00216944
-0.00232382
-0.00248215
-0.00264151
-0.00278556
-0.00286577
-0.00276771
-0.00230933
-0.00136053
-0.000341195
-0.000853687
0.00959761
-0.00952104
-0.000931216
0.00958581
-0.00950828
-0.0010104
0.0095648
-0.00948561
-0.00109145
0.00954663
-0.00946558
-0.00117485
0.00953175
-0.00944835
-0.0012609
0.00952161
-0.00943556
-0.00135002
0.0095167
-0.00942758
-0.00144266
0.00951822
-0.00942557
-0.00153947
0.00952742
-0.0094306
-0.00164126
0.00954637
-0.00944459
-0.00174893
0.00957779
-0.00947011
-0.00186315
0.00962544
-0.00951122
-0.0019846
0.00969144
-0.00956998
-0.00211109
0.00978027
-0.00965378
-0.00223621
0.00987491
-0.00974978
-0.00231539
0.00993729
-0.00985812
-0.00224785
0.00972017
-0.00978772
-0.00179554
0.00874135
-0.00919365
-0.000836426
0.00584913
-0.00680824
0.00147889
-0.00231531
-0.000865502
-0.000941273
-0.00101878
-0.00109784
-0.00117919
-0.00126291
-0.0013494
-0.00143898
-0.00153216
-0.00162953
-0.00173193
-0.00184013
-0.00195461
-0.00207158
-0.00217673
-0.00221045
-0.00205151
-0.00150406
-0.000573694
-0.000767369
0.00950356
-0.009484
-0.00078858
0.00948928
-0.00946807
-0.000811955
0.00946461
-0.00944123
-0.000837726
0.00944231
-0.00941654
-0.000866234
0.00942267
-0.00939417
-0.000897872
0.00940702
-0.00937538
-0.000933121
0.00939581
-0.00936056
-0.000972516
0.00939019
-0.00935079
-0.00101672
0.00939108
-0.00934687
-0.00106665
0.00940016
-0.00935022
-0.00112353
0.00941989
-0.00936301
-0.00118849
0.00945417
-0.00938921
-0.00126348
0.00950501
-0.00943002
-0.0013491
0.00958013
-0.00949451
-0.00144774
0.00966951
-0.00957087
-0.00154537
0.00978753
-0.0096899
-0.00160569
0.00978109
-0.00972077
-0.00144818
0.00942026
-0.00957776
-0.000855453
0.00739886
-0.0079916
0.00295012
-0.00380557
-0.000780036
-0.00079904
-0.000820044
-0.000843313
-0.000868993
-0.000897537
-0.000929305
-0.000964688
-0.00100422
-0.00104865
-0.00109887
-0.00115592
-0.0012209
-0.00129455
-0.00137482
-0.00144541
-0.00145203
-0.00122542
-0.000634805
-0.00065219
0.00952348
-0.00956062
-0.000617675
0.00950507
-0.00953958
-0.000585457
0.0094763
-0.00950852
-0.00055628
0.00944857
-0.00947775
-0.000530199
0.00942355
-0.00944963
-0.000507898
0.00940129
-0.0094236
-0.000490039
0.00938272
-0.00940058
-0.000476784
0.00936879
-0.00938205
-0.000469096
0.00936011
-0.0093678
-0.000468322
0.00935769
-0.00935847
-0.000475684
0.00936388
-0.00935652
-0.000492969
0.00938174
-0.00936445
-0.000522
0.00941358
-0.00938455
-0.000567175
0.00946422
-0.00941904
-0.000630211
0.00952862
-0.00946558
-0.000721292
0.00962322
-0.00953214
-0.000820904
0.00966027
-0.00956066
-0.000863942
0.00958169
-0.00953865
-0.000623195
0.00822618
-0.00846692
0.00423424
-0.00485743
-0.000664662
-0.000627662
-0.000592594
-0.000560565
-0.00053118
-0.000505268
-0.000483108
-0.00046511
-0.000451874
-0.000444403
-0.000443541
-0.000451015
-0.00046745
-0.00049774
-0.000539994
-0.000606675
-0.00066718
-0.000663249
-0.000428668
-0.000516125
0.00965489
-0.00974666
-0.000428371
0.00963015
-0.00971791
-0.000342914
0.00959746
-0.00968292
-0.000260828
0.00956314
-0.00964522
-0.000181472
0.00953237
-0.00961173
-0.000106222
0.00950249
-0.00957774
-3.55718e-05
0.00947546
-0.00954611
2.89325e-05
0.00945073
-0.00951523
8.57397e-05
0.00943027
-0.00948708
0.000134813
0.00941411
-0.00946318
0.00017455
0.00940432
-0.00944406
0.000202693
0.00940255
-0.00943069
0.00021663
0.00941176
-0.00942569
0.000210917
0.00942958
-0.00942387
0.000181927
0.00945976
-0.00943077
0.000109921
0.00948542
-0.00941342
1.21873e-05
0.00949271
-0.00939498
-0.000179208
0.00938639
-0.00919499
-0.000198859
0.00844055
-0.00842089
0.00487181
-0.00507066
-0.000527105
-0.000436537
-0.000347594
-0.000262207
-0.000179464
-0.000100565
-2.56901e-05
4.29924e-05
0.000105465
0.00016111
0.000208916
0.000247011
0.000274218
0.000284753
0.000278933
0.000232219
0.00016427
1.20073e-05
-1.43713e-05
-0.000369012
0.00989185
-0.0100313
-0.000232312
0.00985719
-0.00999389
-9.59167e-05
0.00982226
-0.00995866
3.50575e-05
0.00977971
-0.00991069
0.000159695
0.00974135
-0.00986599
0.000279369
0.00970304
-0.00982272
0.000393018
0.00966629
-0.00977993
0.000500134
0.00963012
-0.00973724
0.000599722
0.00959581
-0.00969539
0.000690248
0.00956435
-0.00965487
0.00077006
0.0095363
-0.00961611
0.000836848
0.00951205
-0.00957883
0.000886917
0.00949278
-0.00954285
0.00091457
0.00947172
-0.00949937
0.000909459
0.00944907
-0.00944396
0.000853908
0.00938617
-0.00933062
0.000720417
0.00929576
-0.00916227
0.000449434
0.00895746
-0.00868647
0.000128634
0.00813516
-0.00781436
0.0046766
-0.00454796
-0.000376048
-0.000236766
-9.74185e-05
3.70712e-05
0.000166694
0.000291995
0.000412175
0.000527064
0.000635792
0.000736954
0.000829197
0.000910555
0.000977643
0.0010255
0.0010438
0.00101655
0.000917333
0.000679796
0.000394066
0.00378759
3.71264e-06
-2.8851e-06
0.00378837
-1.08468e-07
-6.72516e-07
0.0037858
1.2529e-05
-9.96327e-06
0.0037857
1.00621e-05
-9.95879e-06
0.00378171
2.05293e-05
-1.65421e-05
0.00377957
2.95101e-05
-2.73694e-05
0.00377283
3.63808e-05
-2.96384e-05
0.00376628
6.82516e-05
-6.1702e-05
0.00375409
6.87724e-05
-5.65837e-05
0.00373806
0.000146587
-0.000130555
0.00371439
0.000138162
-0.000114493
0.00367786
0.000308994
-0.000272465
0.00362827
0.000294004
-0.000244412
0.0035454
0.000666563
-0.000583697
0.00343071
0.000675055
-0.000560359
0.00323128
0.00155566
-0.00135624
0.00292085
0.00177897
-0.00146854
0.00236625
0.00431921
-0.00376461
0.00136255
0.00607811
-0.00507441
0.015356
-0.0139934
0.0037876
4.52402e-06
0.0037883
-8.01373e-07
0.00378585
1.49787e-05
0.00378565
1.02614e-05
0.00378175
2.44262e-05
0.00377953
3.1727e-05
0.0037728
4.31141e-05
0.0037662
7.4847e-05
0.00375379
8.11829e-05
0.00373777
0.000162608
0.00371326
0.000162674
0.00367684
0.00034541
0.00362478
0.000346069
0.00354226
0.000749078
0.00342082
0.000796496
0.0032231
0.00175339
0.00289591
0.00210615
0.00235802
0.0048571
0.00135196
0.00708418
0.0167079
0.00432155
2.14502e-06
-1.52742e-06
0.00432178
1.13595e-06
-1.36448e-06
0.00431977
7.65267e-06
-5.64406e-06
0.0043187
9.23707e-06
-8.16303e-06
0.00431548
1.28899e-05
-9.67034e-06
0.00431181
2.41927e-05
-2.0527e-05
0.00430622
2.33787e-05
-1.77844e-05
0.0042973
5.34483e-05
-4.4531e-05
0.0042869
4.5117e-05
-3.47122e-05
0.00426724
0.000111762
-9.21047e-05
0.00424654
9.19912e-05
-7.12914e-05
0.00420449
0.000231503
-0.000189449
0.00416049
0.00019706
-0.00015306
0.00406911
0.000493783
-0.000402405
0.00396721
0.000451399
-0.0003495
0.00375364
0.00114612