/*--------------------------------*- C++ -*----------------------------------*\
  =========                 |
  \\      /  F ield         | OpenFOAM: The Open Source CFD Toolbox
   \\    /   O peration     | Website:  https://openfoam.org
    \\  /    A nd           | Version:  10
     \\/     M anipulation  |
\*---------------------------------------------------------------------------*/
FoamFile
{
    format      ascii;
    class       volScalarField;
    location    "5";
    object      p;
}
// * * * * * * * * * * * * * * * * * * * * * * * * * * * * * * * * * * * * * //

dimensions      [0 2 -2 0 0 0 0];

internalField   nonuniform List<scalar> 
2000
(
-0.000432976
-0.00130927
-0.00206776
-0.00332538
-0.00289875
-0.00484511
-0.0120341
-0.0125107
-0.0903189
-0.106087
-0.000432653
-0.00130876
-0.0020653
-0.0033212
-0.00288888
-0.00479955
-0.0119791
-0.0123164
-0.0899088
-0.105563
-0.000432416
-0.00130846
-0.00206343
-0.00331747
-0.00287932
-0.00475615
-0.0119183
-0.0121354
-0.0895332
-0.104967
-0.000432186
-0.00130814
-0.00206161
-0.00331395
-0.0028703
-0.0047161
-0.0118628
-0.0119627
-0.0891815
-0.104448
-0.000431965
-0.00130779
-0.00205988
-0.00331085
-0.00286235
-0.00468052
-0.0118149
-0.0118002
-0.0888605
-0.104014
-0.000431758
-0.00130743
-0.0020583
-0.00330823
-0.00285555
-0.00464949
-0.011774
-0.0116486
-0.0885721
-0.10365
-0.000431566
-0.00130708
-0.00205687
-0.00330606
-0.00284982
-0.00462279
-0.0117396
-0.0115078
-0.0883163
-0.103353
-0.000431386
-0.00130672
-0.00205556
-0.00330433
-0.00284509
-0.00460013
-0.0117113
-0.011376
-0.0880921
-0.103122
-0.00043122
-0.00130636
-0.00205441
-0.00330309
-0.00284158
-0.00458225
-0.011691
-0.0112518
-0.0878961
-0.102969
-0.000431115
-0.00130612
-0.00205373
-0.00330259
-0.00284025
-0.0045739
-0.0116842
-0.011164
-0.0877532
-0.102922
-0.000438551
-0.00132004
-0.00211086
-0.00339225
-0.00307871
-0.00561539
-0.0130361
-0.0166496
-0.0978894
-0.113314
-0.000437904
-0.00131891
-0.00210559
-0.00338308
-0.00305178
-0.00550997
-0.0128843
-0.0161142
-0.0966459
-0.112879
-0.000437284
-0.0013177
-0.00210061
-0.00337491
-0.00302892
-0.00541473
-0.0127541
-0.0156032
-0.0958161
-0.111651
-0.000436705
-0.00131659
-0.00209608
-0.00336758
-0.00300897
-0.00532949
-0.0126401
-0.0151531
-0.0950446
-0.110641
-0.000436137
-0.00131552
-0.00209169
-0.00336059
-0.00298996
-0.00524778
-0.012531
-0.0147175
-0.094264
-0.109808
-0.000435575
-0.00131444
-0.00208739
-0.00335389
-0.0029717
-0.00516863
-0.0124258
-0.0142882
-0.0935063
-0.109019
-0.000435023
-0.00131337
-0.00208319
-0.00334749
-0.00295424
-0.00509224
-0.0123249
-0.0138684
-0.0927789
-0.108253
-0.000434477
-0.00131229
-0.00207909
-0.00334142
-0.00293755
-0.00501804
-0.012227
-0.013451
-0.0920693
-0.107508
-0.00043394
-0.00131123
-0.00207518
-0.00333605
-0.00292273
-0.00494892
-0.012138
-0.0130387
-0.091378
-0.106807
-0.00043345
-0.00131028
-0.00207173
-0.00333179
-0.00291244
-0.00489675
-0.0120829
-0.0127209
-0.0908016
-0.106332
-0.148609
-0.16316
-0.172835
-0.196433
-0.217586
-0.266596
-0.309701
-0.426857
-0.543127
-0.868595
-0.148311
-0.162929
-0.172472
-0.196021
-0.216948
-0.265604
-0.308858
-0.424331
-0.547633
-0.837264
-0.148027
-0.162701
-0.172212
-0.19576
-0.216734
-0.265255
-0.309462
-0.424174
-0.555164
-0.805472
-0.147725
-0.16243
-0.171907
-0.195417
-0.216417
-0.264721
-0.309713
-0.423593
-0.560874
-0.786697
-0.147397
-0.162105
-0.171519
-0.194931
-0.215857
-0.263791
-0.309198
-0.42203
-0.563845
-0.774328
-0.147046
-0.161731
-0.17106
-0.194326
-0.215106
-0.262556
-0.308132
-0.419906
-0.565239
-0.764735
-0.146676
-0.161313
-0.170544
-0.193622
-0.214209
-0.261081
-0.306649
-0.41743
-0.56571
-0.757794
-0.146287
-0.160852
-0.169973
-0.192822
-0.213166
-0.259365
-0.304741
-0.414586
-0.565313
-0.753509
-0.145882
-0.160349
-0.169346
-0.191923
-0.21197
-0.257385
-0.302347
-0.411192
-0.563818
-0.752327
-0.145458
-0.1598
-0.168661
-0.190927
-0.210635
-0.255204
-0.299707
-0.408072
-0.563087
-0.75173
-0.150238
-0.162588
-0.173852
-0.196205
-0.220008
-0.267785
-0.312912
-0.435569
-0.515984
-1.02408
-0.150266
-0.1629
-0.174
-0.196532
-0.220017
-0.268183
-0.312385
-0.436764
-0.514791
-0.995191
-0.150265
-0.163209
-0.174217
-0.197051
-0.220435
-0.269292
-0.313536
-0.439759
-0.52077
-0.952995
-0.150219
-0.163461
-0.174383
-0.197507
-0.220825
-0.270309
-0.314841
-0.442153
-0.527938
-0.922989
-0.150122
-0.163633
-0.174442
-0.197793
-0.220977
-0.270886
-0.315573
-0.443062
-0.533209
-0.903966
-0.149976
-0.163728
-0.174398
-0.197916
-0.220898
-0.271046
-0.315744
-0.442715
-0.536708
-0.889558
-0.149784
-0.163753
-0.174265
-0.197902
-0.220632
-0.270869
-0.315499
-0.44143
-0.539175
-0.877639
-0.149548
-0.163709
-0.174047
-0.197759
-0.220195
-0.270383
-0.31488
-0.439297
-0.540819
-0.868373
-0.149271
-0.163598
-0.173743
-0.197483
-0.219578
-0.269574
-0.313853
-0.436304
-0.541852
-0.861998
-0.148954
-0.163421
-0.173354
-0.197071
-0.218773
-0.268427
-0.312351
-0.432201
-0.54096
-0.857315
-0.146799
-0.155531
-0.167871
-0.187451
-0.211919
-0.253147
-0.300639
-0.382859
-0.48597
-0.832909
-0.147414
-0.156538
-0.168768
-0.188667
-0.213064
-0.25506
-0.302529
-0.39027
-0.488411
-0.840985
-0.147975
-0.157532
-0.16972
-0.190052
-0.214584
-0.257644
-0.305542
-0.399436
-0.49438
-0.83524
-0.148474
-0.158458
-0.170603
-0.191364
-0.216025
-0.260106
-0.308464
-0.408108
-0.501326
-0.841956
-0.148909
-0.159295
-0.171373
-0.192509
-0.217217
-0.262175
-0.310742
-0.415407
-0.507673
-0.858315
-0.149281
-0.160047
-0.172033
-0.193496
-0.218188
-0.263894
-0.312405
-0.421344
-0.513184
-0.878493
-0.149593
-0.160719
-0.172598
-0.194345
-0.21897
-0.26534
-0.313592
-0.426372
-0.517644
-0.900893
-0.149845
-0.161313
-0.173071
-0.19506
-0.219575
-0.266522
-0.314356
-0.430582
-0.520579
-0.926557
-0.150038
-0.161829
-0.173451
-0.195631
-0.220002
-0.26741
-0.314669
-0.433814
-0.521711
-0.956751
-0.150174
-0.162265
-0.173737
-0.196052
-0.220245
-0.267982
-0.314501
-0.435901
-0.520185
-0.989557
-0.137126
-0.141926
-0.154687
-0.171096
-0.194929
-0.229149
-0.264711
-0.30052
-0.33231
-0.210266
-0.139926
-0.145492
-0.158818
-0.176111
-0.200801
-0.236388
-0.273829
-0.311553
-0.354897
-0.242017
-0.141214
-0.147186
-0.160419
-0.177906
-0.202448
-0.238435
-0.277496
-0.319564
-0.379522
-0.292143
-0.141888
-0.148189
-0.161229
-0.178894
-0.203363
-0.239932
-0.280983
-0.328668
-0.401901
-0.345627
-0.142587
-0.149248
-0.162187
-0.180161
-0.204772
-0.242174
-0.285215
-0.338292
-0.421542
-0.399584
-0.143376
-0.150417
-0.1633
-0.181622
-0.206404
-0.24464
-0.289339
-0.347417
-0.43917
-0.45717
-0.144159
-0.151569
-0.164387
-0.183025
-0.207899
-0.246868
-0.292851
-0.355866
-0.454877
-0.520328
-0.144886
-0.152646
-0.165376
-0.184292
-0.209179
-0.248805
-0.295746
-0.363753
-0.468107
-0.589592
-0.145556
-0.153649
-0.166274
-0.185443
-0.210284
-0.250523
-0.298099
-0.371076
-0.478245
-0.66582
-0.146179
-0.154592
-0.167099
-0.186498
-0.211233
-0.252037
-0.299868
-0.3776
-0.484141
-0.747409
0.0145848
0.00928989
0.0191684
0.00774368
0.0296578
0.0109389
0.0634137
0.0325328
0.211091
0.152876
0.0145737
0.00929395
0.0191407
0.00777956
0.0295868
0.0110762
0.0631219
0.0330176
0.209152
0.14175
0.0145617
0.00929894
0.0191095
0.00782161
0.0295062
0.0112308
0.0628162
0.0335659
0.207063
0.131415
0.0145493
0.0093026
0.0190783
0.00786029
0.029422
0.0113706
0.0624885
0.0340087
0.204716
0.120544
0.0145365
0.00930498
0.0190465
0.0078967
0.0293342
0.0114994
0.0621343
0.0343718
0.202069
0.108865
0.0145234
0.00930624
0.0190139
0.00793161
0.0292419
0.011619
0.0617535
0.0346653
0.199112
0.096518
0.0145099
0.00930623
0.0189808
0.00796461
0.0291459
0.0117274
0.0613454
0.0348782
0.19583
0.0835673
0.0144959
0.00930502
0.0189478
0.00799554
0.0290488
0.0118277
0.0609203
0.035028
0.192348
0.0700112
0.0144807
0.00930427
0.0189133
0.0080283
0.0289479
0.0119406
0.0604902
0.0352137
0.188809
0.0557898
0.0144655
0.00930535
0.0188676
0.00806643
0.0288132
0.012032
0.0599423
0.0351938
0.183731
0.0407091
0.0146428
0.00928352
0.0193117
0.00760903
0.0300906
0.0104247
0.0652608
0.0313914
0.222334
0.215188
0.0146407
0.00928694
0.0193047
0.00762624
0.0300809
0.0105016
0.0652528
0.0318033
0.222624
0.213895
0.0146374
0.00929049
0.0192959
0.00764316
0.0300623
0.0105702
0.0652008
0.0321135
0.222516
0.211597
0.0146334
0.00929304
0.0192855
0.00765844
0.0300356
0.0106306
0.0651052
0.0323478
0.222082
0.208249
0.0146289
0.00929463
0.0192734
0.00767271
0.0300012
0.0106851
0.0649672
0.0325169
0.221326
0.203813
0.0146237
0.00929535
0.0192595
0.00768598
0.029959
0.0107333
0.0647872
0.0326185
0.22024
0.198284
0.0146178
0.00929513
0.019244
0.00769816
0.0299091
0.0107751
0.064566
0.0326541
0.21883
0.191665
0.0146114
0.00929379
0.0192267
0.00770894
0.0298511
0.0108086
0.0643015
0.0326165
0.217071
0.183999
0.0146044
0.00929135
0.0192076
0.00771842
0.0297848
0.0108305
0.0639872
0.0324834
0.214844
0.175311
0.0145959
0.00928954
0.0191865
0.00772997
0.0297153
0.010861
0.0636525
0.0323554
0.212406
0.165058
0.0145959
0.00928954
0.0191865
0.00772996
0.0297154
0.010861
0.0636525
0.0323554
0.212406
0.165058
0.0146044
0.00929136
0.0192075
0.0077184
0.0297849
0.0108305
0.0639871
0.0324834
0.214844
0.175311
0.0146114
0.00929379
0.0192267
0.00770893
0.0298511
0.0108086
0.0643015
0.0326165
0.217071
0.183999
0.0146178
0.00929513
0.0192439
0.00769815
0.0299091
0.0107751
0.064566
0.0326541
0.21883
0.191665
0.0146237
0.00929535
0.0192595
0.00768598
0.029959
0.0107333
0.0647871
0.0326185
0.22024
0.198284
0.0146289
0.00929464
0.0192734
0.0076727
0.0300012
0.0106851
0.0649672
0.0325169
0.221326
0.203813
0.0146334
0.00929304
0.0192855
0.00765844
0.0300356
0.0106306
0.0651052
0.0323478
0.222082
0.208249
0.0146374
0.0092905
0.0192959
0.00764315
0.0300623
0.0105702
0.0652008
0.0321135
0.222516
0.211597
0.0146407
0.00928694
0.0193047
0.00762624
0.030081
0.0105016
0.0652528
0.0318033
0.222624
0.213895
0.0146428
0.00928352
0.0193117
0.00760903
0.0300906
0.0104247
0.0652608
0.0313914
0.222334
0.215188
0.0144655
0.00930536
0.0188676
0.00806641
0.0288132
0.012032
0.0599423
0.0351938
0.183731
0.0407091
0.0144807
0.00930428
0.0189133
0.00802828
0.0289479
0.0119406
0.0604902
0.0352137
0.188809
0.0557898
0.0144959
0.00930503
0.0189477
0.00799552
0.0290489
0.0118277
0.0609203
0.035028
0.192348
0.0700112
0.0145099
0.00930623
0.0189807
0.0079646
0.029146
0.0117274
0.0613454
0.0348782
0.19583
0.0835673
0.0145234
0.00930624
0.0190139
0.0079316
0.029242
0.011619
0.0617535
0.0346653
0.199112
0.096518
0.0145365
0.00930499
0.0190465
0.00789668
0.0293342
0.0114994
0.0621343
0.0343718
0.202069
0.108865
0.0145493
0.00930261
0.0190782
0.00786027
0.0294221
0.0113706
0.0624885
0.0340087
0.204716
0.120544
0.0145617
0.00929895
0.0191095
0.0078216
0.0295063
0.0112308
0.0628162
0.0335659
0.207063
0.131415
0.0145737
0.00929396
0.0191407
0.00777955
0.0295868
0.0110762
0.0631219
0.0330176
0.209152
0.14175
0.0145848
0.0092899
0.0191684
0.00774366
0.0296578
0.0109389
0.0634137
0.0325328
0.211091
0.152876
-0.146179
-0.154592
-0.167099
-0.186498
-0.211233
-0.252037
-0.299868
-0.3776
-0.484141
-0.747409
-0.145556
-0.153649
-0.166274
-0.185443
-0.210284
-0.250523
-0.298099
-0.371076
-0.478245
-0.66582
-0.144886
-0.152646
-0.165376
-0.184292
-0.209179
-0.248805
-0.295746
-0.363753
-0.468107
-0.589592
-0.144159
-0.151569
-0.164387
-0.183025
-0.207899
-0.246869
-0.292851
-0.355866
-0.454877
-0.520328
-0.143376
-0.150417
-0.1633
-0.181622
-0.206404
-0.24464
-0.289339
-0.347417
-0.43917
-0.45717
-0.142586
-0.149248
-0.162187
-0.180161
-0.204772
-0.242174
-0.285215
-0.338292
-0.421542
-0.399584
-0.141888
-0.148189
-0.161229
-0.178894
-0.203363
-0.239932
-0.280983
-0.328668
-0.401901
-0.345627
-0.141214
-0.147186
-0.160419
-0.177906
-0.202448
-0.238435
-0.277496
-0.319564
-0.379522
-0.292143
-0.139926
-0.145492
-0.158818
-0.176111
-0.200801
-0.236388
-0.273829
-0.311553
-0.354897
-0.242017
-0.137126
-0.141926
-0.154687
-0.171096
-0.194929
-0.229149
-0.264711
-0.30052
-0.33231
-0.210266
-0.150174
-0.162265
-0.173737
-0.196052
-0.220245
-0.267982
-0.314501
-0.435901
-0.520185
-0.989556
-0.150038
-0.161829
-0.173451
-0.195631
-0.220002
-0.26741
-0.314669
-0.433814
-0.521711
-0.956751
-0.149845
-0.161313
-0.173071
-0.19506
-0.219575
-0.266522
-0.314356
-0.430582
-0.520579
-0.926557
-0.149593
-0.160719
-0.172598
-0.194345
-0.21897
-0.26534
-0.313592
-0.426372
-0.517644
-0.900893
-0.149281
-0.160047
-0.172033
-0.193496
-0.218188
-0.263894
-0.312405
-0.421344
-0.513184
-0.878493
-0.148909
-0.159295
-0.171373
-0.192509
-0.217217
-0.262175
-0.310742
-0.415407
-0.507673
-0.858315
-0.148474
-0.158458
-0.170603
-0.191364
-0.216025
-0.260106
-0.308464
-0.408108
-0.501326
-0.841956
-0.147975
-0.157532
-0.16972
-0.190052
-0.214584
-0.257644
-0.305542
-0.399436
-0.49438
-0.83524
-0.147414
-0.156538
-0.168768
-0.188667
-0.213064
-0.25506
-0.302529
-0.39027
-0.488411
-0.840985
-0.146799
-0.155531
-0.167871
-0.187451
-0.211919
-0.253147
-0.300639
-0.382859
-0.48597
-0.832909
-0.148954
-0.163421
-0.173354
-0.197071
-0.218773
-0.268427
-0.312351
-0.432201
-0.54096
-0.857315
-0.149271
-0.163598
-0.173743
-0.197483
-0.219578
-0.269574
-0.313853
-0.436304
-0.541852
-0.861998
-0.149548
-0.163709
-0.174047
-0.197759
-0.220195
-0.270383
-0.31488
-0.439297
-0.540819
-0.868373
-0.149784
-0.163753
-0.174265
-0.197902
-0.220632
-0.270869
-0.315499
-0.44143
-0.539175
-0.877639
-0.149976
-0.163728
-0.174398
-0.197916
-0.220898
-0.271046
-0.315744
-0.442715
-0.536708
-0.889558
-0.150122
-0.163633
-0.174442
-0.197793
-0.220977
-0.270886
-0.315573
-0.443062
-0.533209
-0.903966
-0.150219
-0.163461
-0.174382
-0.197507
-0.220825
-0.270309
-0.314841
-0.442153
-0.527938
-0.922989
-0.150265
-0.163209
-0.174217
-0.197051
-0.220435
-0.269292
-0.313536
-0.439759
-0.52077
-0.952995
-0.150266
-0.1629
-0.174
-0.196532
-0.220017
-0.268183
-0.312385
-0.436764
-0.514791
-0.995191
-0.150238
-0.162588
-0.173852
-0.196205
-0.220008
-0.267785
-0.312912
-0.435569
-0.515984
-1.02408
-0.145458
-0.1598
-0.168661
-0.190927
-0.210635
-0.255204
-0.299707
-0.408072
-0.563087
-0.75173
-0.145882
-0.160349
-0.169346
-0.191923
-0.21197
-0.257385
-0.302347
-0.411192
-0.563818
-0.752327
-0.146287
-0.160852
-0.169973
-0.192822
-0.213166
-0.259365
-0.304741
-0.414586
-0.565313
-0.753509
-0.146676
-0.161313
-0.170544
-0.193622
-0.214209
-0.261081
-0.306649
-0.41743
-0.56571
-0.757794
-0.147046
-0.161731
-0.17106
-0.194326
-0.215106
-0.262556
-0.308132
-0.419906
-0.565239
-0.764735
-0.147397
-0.162105
-0.171519
-0.194931
-0.215857
-0.263791
-0.309198
-0.42203
-0.563845
-0.774328
-0.147725
-0.16243
-0.171907
-0.195417
-0.216417
-0.264721
-0.309713
-0.423593
-0.560874
-0.786697
-0.148027
-0.162701
-0.172212
-0.19576
-0.216734
-0.265255
-0.309462
-0.424174
-0.555164
-0.805472
-0.148311
-0.162929
-0.172472
-0.196021
-0.216948
-0.265604
-0.308858
-0.424331
-0.547633
-0.837264
-0.148609
-0.16316
-0.172835
-0.196433
-0.217586
-0.266596
-0.309701
-0.426857
-0.543127
-0.868595
-0.000433449
-0.00131028
-0.00207173
-0.00333179
-0.00291244
-0.00489675
-0.0120829
-0.0127209
-0.0908016
-0.106332
-0.000433939
-0.00131123
-0.00207518
-0.00333605
-0.00292273
-0.00494892
-0.012138
-0.0130387
-0.091378
-0.106807
-0.000434476
-0.00131229
-0.00207909
-0.00334143
-0.00293755
-0.00501804
-0.012227
-0.013451
-0.0920693
-0.107508
-0.000435022
-0.00131337
-0.00208319
-0.00334749
-0.00295424
-0.00509224
-0.0123249
-0.0138684
-0.0927789
-0.108253
-0.000435575
-0.00131444
-0.00208739
-0.00335389
-0.0029717
-0.00516863
-0.0124258
-0.0142882
-0.0935063
-0.109019
-0.000436137
-0.00131552
-0.00209169
-0.00336059
-0.00298996
-0.00524778
-0.012531
-0.0147175
-0.094264
-0.109808
-0.000436705
-0.00131659
-0.00209608
-0.00336758
-0.00300897
-0.0053295
-0.0126401
-0.0151531
-0.0950446
-0.110641
-0.000437284
-0.00131769
-0.00210061
-0.00337492
-0.00302892
-0.00541473
-0.0127541
-0.0156032
-0.0958161
-0.111651
-0.000437904
-0.00131891
-0.00210559
-0.00338308
-0.00305178
-0.00550997
-0.0128843
-0.0161142
-0.0966459
-0.112879
-0.000438551
-0.00132004
-0.00211086
-0.00339225
-0.00307871
-0.00561539
-0.0130361
-0.0166496
-0.0978894
-0.113314
-0.000431115
-0.00130612
-0.00205373
-0.00330259
-0.00284025
-0.0045739
-0.0116842
-0.011164
-0.0877532
-0.102922
-0.00043122
-0.00130636
-0.00205441
-0.00330309
-0.00284158
-0.00458226
-0.011691
-0.0112518
-0.0878961
-0.102969
-0.000431386
-0.00130672
-0.00205556
-0.00330433
-0.00284509
-0.00460013
-0.0117113
-0.011376
-0.0880921
-0.103122
-0.000431566
-0.00130708
-0.00205687
-0.00330606
-0.00284982
-0.00462279
-0.0117396
-0.0115078
-0.0883163
-0.103353
-0.000431757
-0.00130743
-0.0020583
-0.00330823
-0.00285555
-0.00464949
-0.011774
-0.0116486
-0.0885721
-0.10365
-0.000431964
-0.00130778
-0.00205988
-0.00331085
-0.00286235
-0.00468052
-0.0118149
-0.0118002
-0.0888605
-0.104014
-0.000432186
-0.00130813
-0.00206161
-0.00331395
-0.0028703
-0.0047161
-0.0118628
-0.0119627
-0.0891815
-0.104448
-0.000432415
-0.00130846
-0.00206343
-0.00331747
-0.00287932
-0.00475615
-0.0119183
-0.0121354
-0.0895332
-0.104967
-0.000432652
-0.00130876
-0.0020653
-0.0033212
-0.00288888
-0.00479955
-0.0119791
-0.0123164
-0.0899089
-0.105563
-0.000432975
-0.00130926
-0.00206776
-0.00332538
-0.00289875
-0.00484511
-0.0120341
-0.0125107
-0.090319
-0.106087
0.0114249
0.0100311
0.0115577
0.00621066
0.00839364
-0.00330152
-0.0125122
-0.0262062
-0.0657252
-0.0764829
0.0120001
0.00943979
0.0128432
0.0061244
0.0105593
-0.00152687
-0.00579453
-0.0194117
-0.0581628
-0.064435
0.0122626
0.00936644
0.0135163
0.00625784
0.0123386
-0.000422525
-0.00174189
-0.0160628
-0.051956
-0.0608755
0.0126686
0.00911663
0.0145447
0.00643098
0.014659
0.00104076
0.0055552
-0.0108477
-0.0415386
-0.0548906
0.0129895
0.00901491
0.0153773
0.00667049
0.0170988
0.00259445
0.0127191
-0.00613235
-0.0286477
-0.0525757
0.0133203
0.00893138
0.0162886
0.00697822
0.0196462
0.0042781
0.0213345
-0.000864316
-0.00921758
-0.0530145
0.0136378
0.00890881
0.0170811
0.00723747
0.0221834
0.00609272
0.0302073
0.00526858
0.0151155
-0.0512791
0.0139322
0.00898725
0.0176946
0.0075884
0.0243726
0.00798759
0.039406
0.011994
0.0497073
-0.0662927
0.0142183
0.00904528
0.0183797
0.00769533
0.026614
0.00960585
0.0485435
0.0202833
0.0944385
-0.0346845
0.0143953
0.00931026
0.0185162
0.00826077
0.0278346
0.0117435
0.0558454
0.0303185
0.137336
-0.0422397
0.0143953
0.00931025
0.0185162
0.00826079
0.0278346
0.0117435
0.0558454
0.0303185
0.137336
-0.0422397
0.0142183
0.00904529
0.0183798
0.00769535
0.026614
0.00960585
0.0485435
0.0202833
0.0944385
-0.0346845
0.0139322
0.00898726
0.0176946
0.00758841
0.0243726
0.0079876
0.039406
0.011994
0.0497073
-0.0662927
0.0136378
0.00890883
0.0170811
0.00723748
0.0221834
0.00609272
0.0302073
0.00526858
0.0151155
-0.0512791
0.0133203
0.0089314
0.0162886
0.00697823
0.0196462
0.00427811
0.0213345
-0.00086431
-0.00921757
-0.0530145
0.0129895
0.00901492
0.0153774
0.0066705
0.0170988
0.00259446
0.0127191
-0.00613234
-0.0286476
-0.0525757
0.0126686
0.00911664
0.0145447
0.00643099
0.014659
0.00104077
0.00555521
-0.0108476
-0.0415386
-0.0548906
0.0122626
0.00936646
0.0135163
0.00625784
0.0123386
-0.000422515
-0.00174189
-0.0160628
-0.051956
-0.0608755
0.0120001
0.00943981
0.0128432
0.0061244
0.0105593
-0.00152686
-0.00579452
-0.0194117
-0.0581628
-0.064435
0.0114249
0.0100311
0.0115577
0.00621067
0.00839364
-0.00330151
-0.0125122
-0.0262062
-0.0657252
-0.0764829
-0.000442251
-0.00132436
-0.00213626
-0.0034308
-0.00319349
-0.00607048
-0.0136617
-0.0185365
-0.106761
-0.104391
-0.000444269
-0.00132599
-0.00216696
-0.00352828
-0.00344064
-0.00687776
-0.0147492
-0.020643
-0.100825
-0.127639
-0.000446287
-0.00132858
-0.00220187
-0.0036318
-0.00374953
-0.00779911
-0.0161334
-0.0245217
-0.106078
-0.147251
-0.000448544
-0.00133267
-0.00223963
-0.00373678
-0.00405091
-0.00862318
-0.0171377
-0.0266817
-0.100195
-0.152367
-0.000450048
-0.00133616
-0.00227586
-0.00383724
-0.00434254
-0.00937963
-0.0180996
-0.0292788
-0.0992464
-0.154093
-0.000451213
-0.00133917
-0.00230873
-0.00392539
-0.00459762
-0.00999562
-0.0187173
-0.0305783
-0.0938012
-0.148412
-0.000451724
-0.00134126
-0.00233773
-0.00400161
-0.00482227
-0.010514
-0.0192365
-0.0319457
-0.0909633
-0.145595
-0.000451339
-0.00134166
-0.00236066
-0.00406104
-0.00500289
-0.0108947
-0.0194817
-0.0323083
-0.0853308
-0.137595
-0.000450725
-0.00134106
-0.0023782
-0.00410598
-0.00514956
-0.0111835
-0.0196565
-0.0327996
-0.0830333
-0.134489
-0.000447283
-0.00133567
-0.00238695
-0.00412854
-0.0052495
-0.0113238
-0.0195342
-0.0321328
-0.0758169
-0.125489
-0.000447288
-0.00133567
-0.00238695
-0.00412854
-0.00524951
-0.0113238
-0.0195342
-0.0321328
-0.0758169
-0.125489
-0.00045073
-0.00134107
-0.0023782
-0.00410599
-0.00514956
-0.0111835
-0.0196565
-0.0327995
-0.0830333
-0.134489
-0.000451344
-0.00134167
-0.00236066
-0.00406104
-0.00500289
-0.0108947
-0.0194817
-0.0323083
-0.0853308
-0.137595
-0.000451728
-0.00134126
-0.00233773
-0.00400162
-0.00482227
-0.010514
-0.0192365
-0.0319457
-0.0909633
-0.145595
-0.000451217
-0.00133918
-0.00230874
-0.00392539
-0.00459762
-0.00999561
-0.0187173
-0.0305783
-0.0938012
-0.148412
-0.000450052
-0.00133617
-0.00227586
-0.00383725
-0.00434254
-0.00937963
-0.0180996
-0.0292788
-0.0992464
-0.154093
-0.000448547
-0.00133267
-0.00223963
-0.00373679
-0.00405091
-0.00862317
-0.0171377
-0.0266817
-0.100195
-0.152367
-0.00044629
-0.00132858
-0.00220186
-0.0036318
-0.00374953
-0.00779911
-0.0161334
-0.0245217
-0.106078
-0.147251
-0.000444271
-0.00132599
-0.00216696
-0.00352828
-0.00344064
-0.00687776
-0.0147492
-0.020643
-0.100825
-0.127639
-0.000442252
-0.00132436
-0.00213626
-0.0034308
-0.00319348
-0.00607048
-0.0136617
-0.0185364
-0.106761
-0.104391
)
;

boundaryField
{
    inlet
    {
        type            zeroGradient;
    }
    outlet
    {
        type            fixedValue;
        value           uniform 0;
    }
    polygon
    {
        type            zeroGradient;
    }
    top
    {
        type            symmetryPlane;
    }
    bottom
    {
        type            symmetryPlane;
    }
    outside
    {
        type            slip;
    }
}


// ************************************************************************* //
