/*--------------------------------*- C++ -*----------------------------------*\
  =========                 |
  \\      /  F ield         | OpenFOAM: The Open Source CFD Toolbox
   \\    /   O peration     | Website:  https://openfoam.org
    \\  /    A nd           | Version:  10
     \\/     M anipulation  |
\*---------------------------------------------------------------------------*/
FoamFile
{
    format      ascii;
    class       surfaceScalarField;
    location    "5";
    object      phi;
}
// * * * * * * * * * * * * * * * * * * * * * * * * * * * * * * * * * * * * * //

dimensions      [0 3 -1 0 0 0 0];

internalField   nonuniform List<scalar> 
3800
(
-0.00195612
2.17851e-05
-2.41699e-05
-0.00194839
7.07986e-05
-7.85326e-05
-0.00193065
0.000162802
-0.000180539
-0.00188807
0.000392243
-0.000434825
-0.00180333
0.000786542
-0.00087128
-0.00164506
0.00147865
-0.00163692
-0.00138921
0.00240156
-0.00265742
-0.00104906
0.00314663
-0.00348678
-0.000706408
0.00263895
-0.0029816
0.00652626
-0.00723267
-0.0019561
1.93891e-05
-0.00194832
6.30227e-05
-0.00193047
0.000144949
-0.00188756
0.000349337
-0.00180197
0.000700949
-0.00164177
0.00131845
-0.00138241
0.00214219
-0.0010388
0.00280303
-0.000708649
0.00230879
0.00581761
-0.00195608
1.69835e-05
-0.00194827
5.52109e-05
-0.00193032
0.000126999
-0.00188714
0.000306156
-0.00180082
0.000614634
-0.001639
0.00115663
-0.00137667
0.00187987
-0.00103039
0.00245675
-0.000712053
0.00199045
0.00510556
-0.00195606
1.45699e-05
-0.00194822
4.73693e-05
-0.00193019
0.000108971
-0.00188679
0.00026275
-0.00179988
0.000527725
-0.00163671
0.000993459
-0.00137195
0.0016151
-0.00102364
0.00210845
-0.000716263
0.00168307
0.0043893
-0.00195605
1.21497e-05
-0.00194819
3.95036e-05
-0.00193009
9.08798e-05
-0.00188651
0.000219164
-0.00179912
0.00044034
-0.00163488
0.000829213
-0.00136816
0.00134839
-0.00101838
0.00175866
-0.000720929
0.00138562
0.00366837
-0.00195604
9.72449e-06
-0.00194816
3.16193e-05
-0.00193002
7.27413e-05
-0.0018863
0.000175443
-0.00179855
0.000352591
-0.00163347
0.000664138
-0.00136525
0.00108017
-0.00101442
0.00140783
-0.000725712
0.00109691
0.00294265
-0.00195603
7.29553e-06
-0.00194813
2.37217e-05
-0.00192996
5.45701e-05
-0.00188615
0.000131627
-0.00179814
0.000264585
-0.00163247
0.000498466
-0.00136316
0.000810857
-0.00101163
0.00105631
-0.00073029
0.000815572
0.00221236
-0.00195603
4.86423e-06
-0.00194812
1.58159e-05
-0.00192993
3.63803e-05
-0.00188606
8.7756e-05
-0.0017979
0.000176421
-0.00163185
0.000332416
-0.00136181
0.000540825
-0.00100986
0.00070436
-0.000734377
0.000540086
0.00147799
-0.00195602
2.43193e-06
-0.00194811
7.90697e-06
-0.00192992
1.81858e-05
-0.00188603
4.3868e-05
-0.00179781
8.81944e-05
-0.00163158
0.000166193
-0.00136119
0.000270427
-0.00100902
0.000352194
-0.000737745
0.00026881
0.000740242
-0.00195602
-8.12471e-12
-0.00194812
-8.70428e-12
-0.00192993
6.63005e-12
-0.00188606
1.39624e-11
-0.00179787
-1.25369e-11
-0.00163167
-4.05517e-11
-0.00136125
-6.88413e-11
-0.00100905
-3.48373e-12
-0.000740242
3.92659e-11
-7.14379e-13
-0.00165851
4.22371e-05
-4.41806e-05
-0.00165225
0.000137135
-0.000143394
-0.00163797
0.000315293
-0.000329574
-0.00160435
0.000756355
-0.00078998
-0.0015399
0.00150213
-0.00156658
-0.00142467
0.00279411
-0.00290935
-0.00124876
0.00448345
-0.00465935
-0.0010175
0.00588765
-0.00611892
-0.000594919
0.00624845
-0.00667103
0.0123614
-0.0129564
-0.00165848
4.02785e-05
-0.00165216
0.000130813
-0.00163772
0.000300849
-0.00160357
0.000722203
-0.00153778
0.00143635
-0.00141942
0.00267575
-0.00123692
0.00430096
-0.000997712
0.00564844
-0.000586029
0.00583677
0.0117754
-0.00165846
3.83053e-05
-0.00165208
0.000124434
-0.00163747
0.000286244
-0.00160284
0.000687577
-0.00153578
0.00136928
-0.00141441
0.00255438
-0.00122594
0.00411248
-0.000978243
0.00540075
-0.000578884
0.00543741
0.0111965
-0.00165843
3.63186e-05
-0.001652
0.000118003
-0.00163724
0.00027149
-0.00160218
0.000652508
-0.00153391
0.00130101
-0.00140971
0.00243019
-0.00121561
0.00391838
-0.000960076
0.00514522
-0.000573045
0.00505038
0.0106235
-0.0016584
3.43194e-05
-0.00165192
0.000111522
-0.00163703
0.0002566
-0.00160156
0.000617034
-0.00153218
0.00123164
-0.00140535
0.00230336
-0.00120599
0.00371902
-0.000943337
0.00488256
-0.000568497
0.00467554
0.010055
-0.00165838
3.23086e-05
-0.00165185
0.000104997
-0.00163684
0.000241586
-0.001601
0.000581189
-0.0015306
0.00116124
-0.00140134
0.0021741
-0.00119712
0.00351479
-0.000928055
0.0046135
-0.000565325
0.00431281
0.00948967
-0.00165836
3.02872e-05
-0.00165179
9.84315e-05
-0.00163667
0.00022646
-0.00160049
0.000545009
-0.00152916
0.00108991
-0.00139768
0.00204262
-0.001189
0.00330611
-0.000914227
0.00433873
-0.00056354
0.00396212
0.00892613
-0.00165834
2.82562e-05
-0.00165174
9.18293e-05
-0.00163651
0.000211235
-0.00160003
0.000508531
-0.00152787
0.00101774
-0.00139437
0.00190912
-0.00118164
0.00309338
-0.000901828
0.00405892
-0.000563106
0.0036234
0.00836303
-0.00165832
2.62168e-05
-0.00165169
8.51949e-05
-0.00163637
0.000195925
-0.00159963
0.000471791
-0.00152673
0.000944837
-0.00139142
0.00177382
-0.00117505
0.002877
-0.000890849
0.00377472
-0.000564019
0.00329657
0.00779901
-0.0016583
-0.00165164
-0.00163626
-0.00159929
-0.00152573
-0.00138883
-0.00116925
-0.000881305
-0.000566338
-0.000228337
0.0177061
-0.0175844
-0.000352037
0.0179412
-0.0178175
-0.000477794
0.0180846
-0.0179588
-0.000605588
0.0183639
-0.0182361
-0.000735481
0.0186204
-0.0184905
-0.000867101
0.0191363
-0.0190047
-0.00100631
0.0197234
-0.0195842
-0.0010985
0.020722
-0.0206298
-0.00100125
0.0207322
-0.0208295
0.014637
-0.0156382
-0.000226505
0.0178274
-0.000349402
0.0180641
-0.000474294
0.0182095
-0.000600441
0.01849
-0.000728094
0.0187481
-0.000855575
0.0192638
-0.000986573
0.0198544
-0.00106093
0.0207964
-0.000939745
0.020611
0.0136972
-0.000224626
0.0179483
-0.000346814
0.0181863
-0.000470788
0.0183335
-0.000595438
0.0186147
-0.000720841
0.0188735
-0.000844522
0.0193875
-0.000967459
0.0199773
-0.00102543
0.0208543
-0.000875822
0.0204614
0.0128214
-0.000222743
0.0180688
-0.000344218
0.0183077
-0.000467271
0.0184565
-0.00059042
0.0187378
-0.000713566
0.0189966
-0.000833368
0.0195073
-0.00094821
0.0200922
-0.000990909
0.020897
-0.000815827
0.0202864
0.0120056
-0.000220855
0.0181889
-0.00034161
0.0184285
-0.000463721
0.0185786
-0.000585325
0.0188595
-0.000706106
0.0191174
-0.000821779
0.0196229
-0.000927991
0.0201984
-0.000955687
0.0209247
-0.000758986
0.0200897
0.0112466
-0.000218966
0.0183087
-0.000338994
0.0185485
-0.000460141
0.0186998
-0.000580156
0.0189795
-0.000698461
0.0192357
-0.000809753
0.0197342
-0.000906841
0.0202955
-0.000919582
0.0209375
-0.000703611
0.0198737
0.010543
-0.000217079
0.018428
-0.000336375
0.0186678
-0.000456542
0.0188199
-0.000574932
0.0190979
-0.000690673
0.0193514
-0.000797368
0.0198409
-0.000884984
0.0203831
-0.000882896
0.0209354
-0.000649527
0.0196403
0.00989347
-0.000215196
0.0185469
-0.000333756
0.0187864
-0.000452932
0.0189391
-0.000569665
0.0192146
-0.000682766
0.0194645
-0.000784653
0.0199428
-0.000862479
0.0204609
-0.000845632
0.0209185
-0.000596773
0.0193915
0.00929669
-0.00021332
0.0186655
-0.000331142
0.0189042
-0.000449315
0.0190573
-0.000564366
0.0193296
-0.000674759
0.0195749
-0.000771673
0.0200397
-0.000839543
0.0205288
-0.000808009
0.020887
-0.000545367
0.0191288
0.00875133
-0.000211448
0.0187836
-0.000328567
0.0190213
-0.000445701
0.0191744
-0.000559002
0.0194429
-0.00066646
0.0196824
-0.000757614
0.0201309
-0.00081412
0.0205853
-0.000766936
0.0208398
-0.000498491
0.0188604
0.00825284
-0.000190184
0.0171986
-0.0171524
-0.000240378
0.0174096
-0.0173594
-0.000292284
0.0175452
-0.0174933
-0.000349156
0.0178032
-0.0177463
-0.000407942
0.0180675
-0.0180087
-0.00047631
0.0185734
-0.018505
-0.000554377
0.0191284
-0.0190504
-0.000659052
0.0203526
-0.0202479
-0.000702271
0.0211056
-0.0210624
0.019808
-0.0205102
-0.000187901
0.0172441
-0.000237114
0.0174588
-0.000287838
0.0175959
-0.000343019
0.0178584
-0.00039951
0.018124
-0.000464015
0.0186379
-0.000537005
0.0192014
-0.000623988
0.0204396
-0.000647902
0.0211295
0.0191601
-0.000185572
0.0172889
-0.000233809
0.017507
-0.000283355
0.0176455
-0.00033683
0.0179119
-0.000391047
0.0181782
-0.000451604
0.0186984
-0.000519559
0.0192694
-0.000590276
0.0205103
-0.000596469
0.0211357
0.0185636
-0.000183198
0.017333
-0.00023046
0.0175543
-0.000278824
0.0176939
-0.000330565
0.0179636
-0.000382485
0.0182301
-0.000438991
0.0187549
-0.000501716
0.0193321
-0.000557774
0.0205664
-0.000548588
0.0211265
0.018015
-0.000180785
0.0173765
-0.000227069
0.0176006
-0.000274242
0.017741
-0.000324214
0.0180136
-0.000373778
0.0182797
-0.000426125
0.0188073
-0.000483309
0.0193893
-0.000525704
0.0206087
-0.000503024
0.0211038
0.017512
-0.000178335
0.0174193
-0.000223645
0.0176459
-0.000269618
0.017787
-0.000317788
0.0180617
-0.00036494
0.0183268
-0.000413043
0.0188554
-0.000464405
0.0194406
-0.000493694
0.020638
-0.000458895
0.021069
0.0170531
-0.000175855
0.0174615
-0.000220194
0.0176902
-0.000264961
0.0178318
-0.000311308
0.0181081
-0.000356
0.0183715
-0.000399802
0.0188992
-0.000445119
0.019486
-0.000461656
0.0206546
-0.000415853
0.0210232
0.0166372
-0.000173348
0.0175031
-0.000216722
0.0177336
-0.000260282
0.0178753
-0.00030479
0.0181526
-0.000346985
0.0184137
-0.000386454
0.0189387
-0.000425556
0.0195251
-0.000429598
0.0206586
-0.000373747
0.0209674
0.0162635
-0.000170818
0.017544
-0.000213235
0.017776
-0.000255589
0.0179177
-0.000298247
0.0181953
-0.000337911
0.0184534
-0.000373013
0.0189738
-0.000405656
0.0195577
-0.000397051
0.02065
-0.000332026
0.0209023
0.0159315
-0.000168269
-0.000209752
-0.000250908
-0.000291755
-0.000328915
-0.000359826
-0.000386287
-0.000366073
-0.000293224
-0.000123348
0.0174891
-0.0175222
-9.54898e-05
0.0176621
-0.01769
-6.9034e-05
0.0177898
-0.0178162
-4.85661e-05
0.0180114
-0.0180318
-3.1241e-05
0.0182674
-0.0182848
-2.66704e-05
0.0187095
-0.0187141
-3.40937e-05
0.0192153
-0.0192079
-0.000126465
0.0200186
-0.0199263
-0.000205046
0.020793
-0.0207144
0.0205376
-0.0207426
-0.000121521
0.017455
-9.25243e-05
0.0176332
-6.47803e-05
0.017762
-4.26756e-05
0.0179893
-2.3137e-05
0.0182479
-1.53063e-05
0.0187017
-1.80433e-05
0.0192181
-9.64779e-05
0.0200971
-0.000164962
0.0208615
0.0203726
-0.000119643
0.0174201
-8.94753e-05
0.017603
-6.04377e-05
0.017733
-3.65956e-05
0.0179654
-1.48069e-05
0.0182261
-3.0584e-06
0.01869
-1.61309e-06
0.0192166
-6.6044e-05
0.0201615
-0.000128557
0.020924
0.0202441
-0.000117702
0.0173843
-8.63612e-05
0.0175716
-5.60144e-05
0.0177027
-3.03821e-05
0.0179398
-6.345e-06
0.0182021
8.85601e-06
0.0186748
1.5783e-05
0.0192097
-3.5191e-05
0.0202125
-9.11859e-05
0.02098
0.0201529
-0.000115702
0.0173476
-8.31921e-05
0.0175391
-5.15344e-05
0.017671
-2.40722e-05
0.0179123
2.18697e-06
0.0181758
2.0978e-05
0.018656
3.35114e-05
0.0191972
-2.40957e-06
0.0202484
-5.2431e-05
0.02103
0.0201005
-0.000113646
0.0173102
-7.99752e-05
0.0175055
-4.70113e-05
0.017638
-1.76784e-05
0.017883
1.10331e-05
0.0181471
3.34077e-05
0.0186336
5.15025e-05
0.0191791
2.61464e-05
0.0202737
-1.3416e-05
0.0210696
0.0200871
-0.000111539
0.0172719
-7.67143e-05
0.0174706
-4.24521e-05
0.0176038
-1.11998e-05
0.0178517
1.98823e-05
0.018116
4.60512e-05
0.0186074
6.97596e-05
0.0191554
5.62254e-05
0.0202873
3.15524e-05
0.0210942
0.0201186
-0.000109381
0.0172328
-7.34141e-05
0.0174347
-3.78644e-05
0.0175682
-4.6121e-06
0.0178185
2.87622e-05
0.0180826
5.88551e-05
0.0185773
8.82279e-05
0.019126
8.73897e-05
0.0202881
7.96196e-05
0.021102
0.0201982
-0.000107176
0.017193
-7.008e-05
0.0173976
-3.32582e-05
0.0175314
1.96914e-06
0.0177833
3.76536e-05
0.018047
7.17579e-05
0.0185432
0.000106784
0.019091
0.000119457
0.0202754
0.000129246
0.0210922
0.0203275
-0.000104926
-6.67119e-05
-2.86322e-05
8.28447e-06
4.65662e-05
8.478e-05
0.000125384
0.000152906
0.000182756
-3.04186e-05
0.0185245
-0.0186322
7.02614e-05
0.0186526
-0.0187533
0.000169956
0.0187792
-0.0188789
0.000264151
0.0189611
-0.0190553
0.0003553
0.0192086
-0.0192998
0.000436331
0.0195704
-0.0196515
0.000485654
0.0198981
-0.0199474
0.000461121
0.0199395
-0.0199149
0.000319867
0.0200382
-0.019897
0.0162965
-0.0159766
-2.88505e-05
0.0184163
7.36028e-05
0.0185501
0.000175795
0.018677
0.000272945
0.0188639
0.000367512
0.0191141
0.000452308
0.0194856
0.000505703
0.0198447
0.000481495
0.0199637
0.000343526
0.0201762
0.01664
-2.76528e-05
0.0183071
7.60675e-05
0.0184464
0.000179586
0.0185735
0.000278392
0.0187651
0.000375022
0.0190174
0.00046209
0.0193986
0.000519614
0.0197872
0.000499608
0.0199837
0.000372298
0.0203035
0.0170123
-2.65046e-05
0.0181972
7.83225e-05
0.0183416
0.000182989
0.0184688
0.000283204
0.0186649
0.000381619
0.018919
0.000471007
0.0193092
0.000533966
0.0197242
0.00051958
0.0199981
0.000404905
0.0204182
0.0174172
-2.53393e-05
0.0180866
8.05629e-05
0.0182357
0.000186371
0.018363
0.000288044
0.0185632
0.000388398
0.0188187
0.000480434
0.0192172
0.000549557
0.0196551
0.000541116
0.0200065
0.000440056
0.0205192
0.0178573
-2.41269e-05
0.0179752
8.28627e-05
0.0181287
0.00018985
0.018256
0.000293055
0.01846
0.000395507
0.0187162
0.000490361
0.0191223
0.000565928
0.0195795
0.000564089
0.0200084
0.000478883
0.0206044
0.0183362
-2.28709e-05
0.017863
8.52065e-05
0.0180206
0.000193385
0.0181478
0.000298139
0.0183553
0.000402744
0.0186116
0.000500451
0.0190246
0.000582702
0.0194973
0.000588549
0.0200025
0.00052238
0.0206706
0.0188585
-2.15793e-05
0.0177502
8.75719e-05
0.0179115
0.000196935
0.0180385
0.000303223
0.018249
0.00040999
0.0185049
0.000510562
0.018924
0.000599761
0.0194081
0.000614508
0.0199878
0.000571123
0.020714
0.0194297
-2.02594e-05
0.0176366
8.99526e-05
0.0178013
0.000200488
0.0179279
0.000308295
0.0181412
0.000417228
0.0183959
0.000520674
0.0188206
0.000616986
0.0193118
0.000641673
0.0199631
0.000624995
0.0207307
0.0200547
-1.89127e-05
9.23503e-05
0.000204061
0.000313409
0.000424576
0.000531044
0.000634896
0.000671712
0.000687988
0.00161007
0.00014873
-0.000136687
0.00162305
-0.000146611
0.00013364
0.00161574
5.76182e-05
-5.03095e-05
0.00160678
0.00015193
-0.000142978
0.0016116
-0.000109076
0.000104258
0.0015767
0.000467092
-0.000432192
0.00154533
0.000238732
-0.000207363
0.00140051
0.00191945
-0.00177462
0.00116895
0.0019684
-0.00173684
0.01606
-0.0148911
0.00160999
0.000160853
0.00162328
-0.000159899
0.0016154
6.54977e-05
0.0016071
0.000160236
0.00161118
-0.000113163
0.00157685
0.000501426
0.00154344
0.000272137
0.0014016
0.00206129
0.00116477
0.00220524
0.0172248
0.00160992
0.000173047
0.00162351
-0.000173489
0.00161508
7.39306e-05
0.0016074
0.000167914
0.0016108
-0.000116559
0.00157699
0.000535238
0.00154169
0.000307431
0.00140306
0.00219993
0.00116183
0.00244647
0.0183866
0.00160986
0.000185305
0.00162375
-0.000187384
0.00161476
8.29276e-05
0.00160773
0.000174944
0.00161042
-0.000119253
0.00157714
0.000568518
0.00154
0.000344569
0.00140484
0.00233508
0.00115969
0.00269162
0.0195463
0.0016098
0.000197623
0.001624
-0.000201585
0.00161443
9.24941e-05
0.00160807
0.00018131
0.00161005
-0.000121239
0.00157731
0.000601264
0.00153839
0.000383485
0.00140695
0.00246652
0.00115807
0.00294051
0.0207044
0.00160975
0.000209991
0.00162425
-0.000216088
0.00161412
0.00010263
0.00160843
0.000187001
0.0016097
-0.000122516
0.00157749
0.000633475
0.0015369
0.000424076
0.0014094
0.00259402
0.00115699
0.00319292
0.0218614
0.00160971
0.0002224
0.00162451
-0.000230888
0.00161381
0.000113331
0.0016088
0.00019201
0.00160937
-0.000123091
0.00157769
0.000665155
0.00153557
0.000466195
0.00141221
0.00271739
0.00115654
0.00344859
0.0230179
0.00160968
0.000234837
0.00162477
-0.000245976
0.00161351
0.000124584
0.00160919
0.000196335
0.00160907
-0.000122974
0.00157791
0.000696317
0.00153444
0.000509667
0.00141528
0.00283654
0.00115691
0.00370696
0.0241748
0.00160966
0.000247289
0.00162503
-0.000261339
0.00161324
0.000136375
0.00160959
0.000199977
0.0016088
-0.000122179
0.00157815
0.000726962
0.00153355
0.00055427
0.00141874
0.00295135
0.00115887
0.00396684
0.0253337
0.00160979
0.00025962
0.00162508
-0.00027663
0.00161331
0.000148146
0.00160961
0.000203674
0.00160925
-0.000121819
0.00157776
0.000758454
0.0015347
0.000597322
0.00142231
0.00306375
0.00116753
0.00422162
0.0265012
0.00189999
1.34302e-05
1.05901e-11
0.00191257
-1.25826e-05
-1.06835e-11
0.00190884
3.72549e-06
-1.54939e-12
0.00189312
1.57226e-05
2.60764e-11
0.00190504
-1.19222e-05
-1.02158e-11
0.0018604
4.46395e-05
-5.49053e-12
0.00184364
1.67682e-05
3.1929e-11
0.00165901
0.000184625
-1.62789e-11
0.00149251
0.000166497
-1.362e-11
0.00149251
-4.33582e-13
0.00189997
2.68773e-05
0.00191261
-2.52215e-05
0.00190878
7.55522e-06
0.00189316
3.13439e-05
0.00190495
-2.37098e-05
0.00186034
8.92473e-05
0.00184304
3.40708e-05
0.00165849
0.000369173
0.00148877
0.000336214
0.00298128
0.00189994
4.03568e-05
0.00191268
-3.79646e-05
0.00190867
1.1564e-05
0.00189324
4.67774e-05
0.00190481
-3.52821e-05
0.00186035
0.000133706
0.00184236
5.20583e-05
0.00165853
0.000553003
0.00148623
0.000508518
0.00446751
0.00189989
5.38834e-05
0.00191278
-5.08581e-05
0.00190852
1.58238e-05
0.00189336
6.19407e-05
0.00190464
-4.65633e-05
0.00186044
0.000177909
0.00184164
7.08621e-05
0.00165907
0.000735566
0.00148485
0.000682737
0.00595237
0.00189983
6.74707e-05
0.00191292
-6.39457e-05
0.00190834
2.0404e-05
0.00189352
7.67537e-05
0.00190444
-5.74808e-05
0.0018606
0.00022175
0.00184086
9.06023e-05
0.00166011
0.000916319
0.0014846
0.000858243
0.00743697
0.00189976
8.11308e-05
0.00191308
-7.72687e-05
0.00190811
2.53703e-05
0.00189373
9.11393e-05
0.00190421
-6.79651e-05
0.00186083
0.000265128
0.00184004
0.000111392
0.00166163
0.00109473
0.00148543
0.00103445
0.0089224
0.00189967
9.4874e-05
0.00191327
-9.08647e-05
0.00190786
3.07846e-05
0.00189397
0.000105025
0.00190396
-7.7951e-05
0.00186113
0.000307949
0.00183919
0.000133341
0.00166364
0.00127028
0.00148727
0.00121082
0.0104097
0.00189958
0.000108709
0.00191349
-0.000104768
0.00190757
3.67039e-05
0.00189425
0.000118344
0.00190367
-8.73786e-05
0.0018615
0.000350128
0.00183828
0.000156553
0.00166611
0.00144245
0.00149003
0.0013869
0.0118997
0.00189948
0.000122641
0.00191372
-0.000119007
0.00190725
4.31803e-05
0.00189456
0.000131035
0.00190337
-9.61933e-05
0.00186191
0.000391594
0.00183732
0.000181136
0.00166902
0.00161075
0.00149359
0.00156233
0.0133933
0.00189937
0.001914
0.00190688
0.00189493
0.001903
0.0018624
0.00183617
0.0016723
0.00149779
0.00189937
-0.000122641
0.000136687
0.001914
0.000119007
-0.00013364
0.00190688
-4.31803e-05
5.03095e-05
0.00189493
-0.000131035
0.000142978
0.001903
9.61933e-05
-0.000104258
0.0018624
-0.000391594
0.000432192
0.00183617
-0.000181136
0.000207363
0.0016723
-0.00161075
0.00177462
0.00149779
-0.00156233
0.00173684
-0.0133933
0.0148911
0.00189948
-0.000108709
0.00191372
0.000104768
0.00190725
-3.67039e-05
0.00189456
-0.000118344
0.00190337
8.73786e-05
0.00186191
-0.000350128
0.00183732
-0.000156553
0.00166902
-0.00144245
0.00149359
-0.0013869
-0.0118997
0.00189958
-9.4874e-05
0.00191349
9.08647e-05
0.00190757
-3.07846e-05
0.00189425
-0.000105025
0.00190367
7.7951e-05
0.0018615
-0.000307949
0.00183828
-0.000133341
0.00166611
-0.00127028
0.00149003
-0.00121082
-0.0104097
0.00189967
-8.11308e-05
0.00191327
7.72687e-05
0.00190786
-2.53703e-05
0.00189397
-9.11394e-05
0.00190396
6.79651e-05
0.00186113
-0.000265128
0.00183919
-0.000111392
0.00166364
-0.00109473
0.00148727
-0.00103445
-0.0089224
0.00189976
-6.74708e-05
0.00191308
6.39457e-05
0.00190811
-2.0404e-05
0.00189373
-7.67537e-05
0.00190421
5.74808e-05
0.00186083
-0.00022175
0.00184004
-9.06023e-05
0.00166163
-0.000916319
0.00148543
-0.000858243
-0.00743697
0.00189983
-5.38835e-05
0.00191292
5.08581e-05
0.00190834
-1.58238e-05
0.00189352
-6.19408e-05
0.00190444
4.65634e-05
0.0018606
-0.000177909
0.00184086
-7.08621e-05
0.00166011
-0.000735566
0.0014846
-0.000682737
-0.00595237
0.00189989
-4.03568e-05
0.00191278
3.79647e-05
0.00190852
-1.1564e-05
0.00189336
-4.67774e-05
0.00190464
3.52821e-05
0.00186044
-0.000133706
0.00184164
-5.20584e-05
0.00165907
-0.000553003
0.00148485
-0.000508518
-0.00446751
0.00189994
-2.68773e-05
0.00191268
2.52215e-05
0.00190867
-7.55522e-06
0.00189324
-3.13439e-05
0.00190481
2.37099e-05
0.00186035
-8.92473e-05
0.00184236
-3.40709e-05
0.00165853
-0.000369173
0.00148623
-0.000336214
-0.00298128
0.00189997
-1.34303e-05
0.00191261
1.25826e-05
0.00190878
-3.72549e-06
0.00189316
-1.57226e-05
0.00190495
1.19223e-05
0.00186034
-4.46395e-05
0.00184304
-1.67683e-05
0.00165849
-0.000184625
0.00148877
-0.000166497
-0.00149251
0.00189999
0.00191257
0.00190884
0.00189312
0.00190504
0.0018604
0.00184364
0.00165901
0.00149251
0.00160979
-0.000247289
0.00025962
0.00162508
0.00026134
-0.00027663
0.00161331
-0.000136375
0.000148146
0.00160961
-0.000199977
0.000203674
0.00160925
0.000122179
-0.000121819
0.00157776
-0.000726962
0.000758454
0.0015347
-0.00055427
0.000597322
0.00142231
-0.00295135
0.00306375
0.00116753
-0.00396684
0.00422162
-0.0253337
0.0265012
0.00160966
-0.000234837
0.00162503
0.000245976
0.00161324
-0.000124584
0.00160959
-0.000196335
0.0016088
0.000122974
0.00157815
-0.000696317
0.00153355
-0.000509668
0.00141874
-0.00283654
0.00115887
-0.00370696
-0.0241748
0.00160968
-0.0002224
0.00162477
0.000230889
0.00161351
-0.000113331
0.00160919
-0.00019201
0.00160907
0.000123091
0.00157791
-0.000665155
0.00153444
-0.000466195
0.00141528
-0.00271739
0.00115691
-0.00344859
-0.0230179
0.00160971
-0.000209991
0.00162451
0.000216088
0.00161381
-0.00010263
0.0016088
-0.000187001
0.00160937
0.000122516
0.00157769
-0.000633475
0.00153557
-0.000424076
0.00141221
-0.00259402
0.00115654
-0.00319292
-0.0218614
0.00160975
-0.000197623
0.00162425
0.000201585
0.00161412
-9.24941e-05
0.00160843
-0.00018131
0.0016097
0.000121239
0.00157749
-0.000601264
0.0015369
-0.000383485
0.0014094
-0.00246652
0.00115699
-0.00294051
-0.0207044
0.0016098
-0.000185305
0.001624
0.000187384
0.00161443
-8.29276e-05
0.00160807
-0.000174944
0.00161005
0.000119253
0.00157731
-0.000568518
0.00153839
-0.000344569
0.00140695
-0.00233508
0.00115807
-0.00269162
-0.0195463
0.00160986
-0.000173047
0.00162375
0.000173489
0.00161476
-7.39306e-05
0.00160773
-0.000167914
0.00161042
0.000116559
0.00157714
-0.000535238
0.00154
-0.000307431
0.00140484
-0.00219993
0.00115969
-0.00244647
-0.0183866
0.00160992
-0.000160853
0.00162351
0.000159899
0.00161508
-6.54977e-05
0.0016074
-0.000160236
0.0016108
0.000113163
0.00157699
-0.000501426
0.00154169
-0.000272137
0.00140306
-0.00206129
0.00116183
-0.00220524
-0.0172248
0.00160999
-0.00014873
0.00162328
0.000146611
0.0016154
-5.76182e-05
0.0016071
-0.00015193
0.00161118
0.000109076
0.00157685
-0.000467092
0.00154344
-0.000238732
0.0014016
-0.00191945
0.00116477
-0.0019684
-0.01606
0.00161007
0.00162305
0.00161574
0.00160678
0.0016116
0.0015767
0.00154533
0.00140051
0.00116895
-1.89128e-05
-0.0176366
0.0175222
9.23504e-05
-0.0178013
0.01769
0.000204061
-0.0179279
0.0178162
0.000313409
-0.0181412
0.0180318
0.000424576
-0.0183959
0.0182848
0.000531044
-0.0188206
0.0187141
0.000634896
-0.0193118
0.0192079
0.000671712
-0.0199631
0.0199263
0.000687988
-0.0207307
0.0207144
-0.0200547
0.0207426
-2.02594e-05
-0.0177502
8.99525e-05
-0.0179115
0.000200488
-0.0180385
0.000308295
-0.018249
0.000417228
-0.0185049
0.000520674
-0.018924
0.000616986
-0.0194081
0.000641673
-0.0199878
0.000624995
-0.020714
-0.0194297
-2.15794e-05
-0.017863
8.7572e-05
-0.0180206
0.000196935
-0.0181478
0.000303223
-0.0183553
0.00040999
-0.0186116
0.000510562
-0.0190246
0.000599761
-0.0194973
0.000614508
-0.0200025
0.000571123
-0.0206706
-0.0188585
-2.28708e-05
-0.0179752
8.52064e-05
-0.0181287
0.000193385
-0.018256
0.000298139
-0.01846
0.000402744
-0.0187162
0.000500451
-0.0191223
0.000582702
-0.0195795
0.000588549
-0.0200084
0.00052238
-0.0206044
-0.0183362
-2.41269e-05
-0.0180866
8.28627e-05
-0.0182357
0.00018985
-0.018363
0.000293055
-0.0185632
0.000395507
-0.0188187
0.000490361
-0.0192172
0.000565928
-0.0196551
0.000564089
-0.0200065
0.000478883
-0.0205192
-0.0178573
-2.53394e-05
-0.0181972
8.05628e-05
-0.0183416
0.000186371
-0.0184688
0.000288044
-0.0186649
0.000388398
-0.018919
0.000480434
-0.0193092
0.000549557
-0.0197242
0.000541116
-0.0199981
0.000440056
-0.0204182
-0.0174172
-2.65047e-05
-0.0183071
7.83225e-05
-0.0184464
0.000182989
-0.0185735
0.000283204
-0.0187651
0.000381619
-0.0190174
0.000471007
-0.0193986
0.000533966
-0.0197872
0.00051958
-0.0199837
0.000404905
-0.0203035
-0.0170123
-2.76527e-05
-0.0184163
7.60675e-05
-0.0185501
0.000179586
-0.018677
0.000278392
-0.0188639
0.000375022
-0.0191141
0.00046209
-0.0194856
0.000519614
-0.0198447
0.000499608
-0.0199637
0.000372298
-0.0201762
-0.01664
-2.88505e-05
-0.0185245
7.36028e-05
-0.0186526
0.000175795
-0.0187792
0.000272945
-0.0189611
0.000367512
-0.0192086
0.000452308
-0.0195704
0.000505703
-0.0198981
0.000481495
-0.0199395
0.000343526
-0.0200382
-0.0162965
-3.04186e-05
-0.0186322
7.02613e-05
-0.0187533
0.000169956
-0.0188789
0.000264151
-0.0190553
0.0003553
-0.0192998
0.000436331
-0.0196515
0.000485654
-0.0199474
0.000461121
-0.0199149
0.000319867
-0.019897
-0.0159766
-0.000104926
-0.017193
0.0171524
-6.67119e-05
-0.0173976
0.0173594
-2.86322e-05
-0.0175314
0.0174933
8.28451e-06
-0.0177833
0.0177463
4.65662e-05
-0.018047
0.0180087
8.478e-05
-0.0185432
0.018505
0.000125384
-0.019091
0.0190504
0.000152906
-0.0202754
0.0202479
0.000182756
-0.0210922
0.0210624
-0.0203275
0.0205102
-0.000107176
-0.0172328
-7.00799e-05
-0.0174347
-3.32582e-05
-0.0175682
1.96908e-06
-0.0178185
3.76537e-05
-0.0180826
7.17579e-05
-0.0185773
0.000106784
-0.019126
0.000119457
-0.0202881
0.000129246
-0.021102
-0.0201982
-0.000109381
-0.0172719
-7.34142e-05
-0.0174706
-3.78644e-05
-0.0176038
-4.61206e-06
-0.0178517
2.87622e-05
-0.018116
5.88551e-05
-0.0186074
8.82279e-05
-0.0191554
8.73897e-05
-0.0202873
7.96196e-05
-0.0210942
-0.0201186
-0.000111538
-0.0173102
-7.67143e-05
-0.0175055
-4.24521e-05
-0.017638
-1.11998e-05
-0.017883
1.98823e-05
-0.0181471
4.60512e-05
-0.0186336
6.97596e-05
-0.0191791
5.62254e-05
-0.0202737
3.15524e-05
-0.0210696
-0.0200871
-0.000113647
-0.0173476
-7.99751e-05
-0.0175391
-4.70113e-05
-0.017671
-1.76785e-05
-0.0179123
1.10332e-05
-0.0181758
3.34077e-05
-0.018656
5.15025e-05
-0.0191972
2.61464e-05
-0.0202484
-1.3416e-05
-0.02103
-0.0201005
-0.000115702
-0.0173843
-8.31922e-05
-0.0175716
-5.15344e-05
-0.0177027
-2.40722e-05
-0.0179398
2.18694e-06
-0.0182021
2.0978e-05
-0.0186748
3.35114e-05
-0.0192097
-2.40957e-06
-0.0202125
-5.2431e-05
-0.02098
-0.0201529
-0.000117702
-0.0174201
-8.63612e-05
-0.017603
-5.60144e-05
-0.017733
-3.03821e-05
-0.0179654
-6.34504e-06
-0.0182261
8.85602e-06
-0.01869
1.5783e-05
-0.0192166
-3.5191e-05
-0.0201615
-9.11859e-05
-0.020924
-0.0202441
-0.000119644
-0.017455
-8.94752e-05
-0.0176332
-6.04377e-05
-0.017762
-3.65957e-05
-0.0179893
-1.48068e-05
-0.0182479
-3.0584e-06
-0.0187017
-1.61309e-06
-0.0192181
-6.6044e-05
-0.0200971
-0.000128557
-0.0208615
-0.0203726
-0.000121521
-0.0174891
-9.25243e-05
-0.0176621
-6.47803e-05
-0.0177898
-4.26755e-05
-0.0180114
-2.3137e-05
-0.0182674
-1.53063e-05
-0.0187095
-1.80433e-05
-0.0192153
-9.64779e-05
-0.0200186
-0.000164962
-0.020793
-0.0205376
-0.000123348
-9.54898e-05
-6.9034e-05
-4.8566e-05
-3.12411e-05
-2.66704e-05
-3.40937e-05
-0.000126465
-0.000205046
-0.000168269
-0.017544
0.0175844
-0.000209752
-0.017776
0.0178175
-0.000250908
-0.0179177
0.0179588
-0.000291755
-0.0181953
0.0182361
-0.000328915
-0.0184534
0.0184905
-0.000359826
-0.0189738
0.0190047
-0.000386287
-0.0195577
0.0195842
-0.000366073
-0.02065
0.0206298
-0.000293224
-0.0209023
0.0208295
-0.0159315
0.0156382
-0.000170818
-0.0175031
-0.000213235
-0.0177336
-0.000255589
-0.0178753
-0.000298247
-0.0181526
-0.000337911
-0.0184137
-0.000373013
-0.0189387
-0.000405656
-0.0195251
-0.000397051
-0.0206586
-0.000332026
-0.0209674
-0.0162635
-0.000173348
-0.0174615
-0.000216722
-0.0176902
-0.000260282
-0.0178318
-0.00030479
-0.0181081
-0.000346986
-0.0183715
-0.000386454
-0.0188992
-0.000425556
-0.019486
-0.000429598
-0.0206546
-0.000373747
-0.0210232
-0.0166372
-0.000175855
-0.0174193
-0.000220194
-0.0176459
-0.000264961
-0.017787
-0.000311308
-0.0180617
-0.000355999
-0.0183268
-0.000399802
-0.0188554
-0.000445119
-0.0194406
-0.000461656
-0.020638
-0.000415853
-0.021069
-0.0170531
-0.000178335
-0.0173765
-0.000223645
-0.0176006
-0.000269618
-0.017741
-0.000317788
-0.0180136
-0.00036494
-0.0182797
-0.000413043
-0.0188073
-0.000464405
-0.0193893
-0.000493694
-0.0206087
-0.000458895
-0.0211038
-0.017512
-0.000180785
-0.017333
-0.000227069
-0.0175543
-0.000274242
-0.0176939
-0.000324214
-0.0179636
-0.000373778
-0.0182301
-0.000426125
-0.0187549
-0.000483309
-0.0193321
-0.000525704
-0.0205664
-0.000503024
-0.0211265
-0.018015
-0.000183198
-0.0172889
-0.00023046
-0.017507
-0.000278824
-0.0176455
-0.000330565
-0.0179119
-0.000382485
-0.0181782
-0.000438991
-0.0186984
-0.000501716
-0.0192694
-0.000557774
-0.0205103
-0.000548588
-0.0211357
-0.0185636
-0.000185572
-0.0172441
-0.000233809
-0.0174588
-0.000283355
-0.0175959
-0.00033683
-0.0178584
-0.000391047
-0.018124
-0.000451604
-0.0186379
-0.000519559
-0.0192014
-0.000590276
-0.0204396
-0.000596469
-0.0211295
-0.0191601
-0.000187901
-0.0171986
-0.000237114
-0.0174096
-0.000287838
-0.0175452
-0.000343019
-0.0178032
-0.00039951
-0.0180675
-0.000464015
-0.0185734
-0.000537005
-0.0191284
-0.000623988
-0.0203526
-0.000647902
-0.0211056
-0.019808
-0.000190184
-0.000240378
-0.000292284
-0.000349156
-0.000407942
-0.00047631
-0.000554377
-0.000659052
-0.000702271
-0.000211448
-0.0186655
0.0187836
-0.000328567
-0.0189042
0.0190213
-0.000445701
-0.0190573
0.0191744
-0.000559002
-0.0193296
0.0194429
-0.00066646
-0.0195749
0.0196824
-0.000757614
-0.0200397
0.0201309
-0.00081412
-0.0205288
0.0205853
-0.000766936
-0.020887
0.0208398
-0.000498491
-0.0191288
0.0188604
-0.00875133
0.00825284
-0.00021332
-0.0185469
-0.000331142
-0.0187864
-0.000449315
-0.0189391
-0.000564366
-0.0192146
-0.000674759
-0.0194645
-0.000771673
-0.0199428
-0.000839543
-0.0204609
-0.000808009
-0.0209185
-0.000545367
-0.0193915
-0.00929669
-0.000215196
-0.018428