/*--------------------------------*- C++ -*----------------------------------*\
  =========                 |
  \\      /  F ield         | OpenFOAM: The Open Source CFD Toolbox
   \\    /   O peration     | Website:  https://openfoam.org
    \\  /    A nd           | Version:  10
     \\/     M anipulation  |
\*---------------------------------------------------------------------------*/
FoamFile
{
    format      ascii;
    class       volVectorField;
    location    "5";
    object      U;
}
// * * * * * * * * * * * * * * * * * * * * * * * * * * * * * * * * * * * * * //

dimensions      [0 1 -1 0 0 0 0];

internalField   nonuniform List<vector> 
2000
(
(1.02356 -0.0001993 -1.23671e-20)
(1.02109 -0.000647549 -2.16693e-19)
(1.01554 -0.00148876 -4.49984e-19)
(1.00279 -0.00358475 -5.2938e-19)
(0.971542 -0.00718638 -8.03324e-19)
(0.915433 -0.0135117 -5.75567e-20)
(0.808398 -0.0219359 -4.16555e-19)
(0.650132 -0.0288379 6.35806e-20)
(0.455991 -0.0244074 -1.59428e-18)
(0.297211 -0.0596761 -1.43569e-17)
(1.02356 -0.000178624 -1.89109e-20)
(1.02107 -0.000580506 -2.16234e-19)
(1.01549 -0.00133502 -4.62165e-19)
(1.00263 -0.00321592 -5.38414e-19)
(0.971088 -0.00645192 -7.95529e-19)
(0.914255 -0.0121388 -3.11046e-20)
(0.805711 -0.0197172 -1.85344e-19)
(0.644975 -0.0258848 2.80896e-19)
(0.449504 -0.0215176 -1.46117e-19)
(0.304448 -0.0535979 -1.89502e-17)
(1.02355 -0.00015788 -4.64267e-21)
(1.02105 -0.000513161 -1.96876e-19)
(1.01544 -0.00118036 -4.05567e-19)
(1.00249 -0.00284372 -4.85281e-19)
(0.970694 -0.00570843 -8.06364e-19)
(0.913237 -0.0107457 -2.56067e-20)
(0.803395 -0.0174573 2.30415e-19)
(0.640563 -0.0229011 4.18517e-19)
(0.444198 -0.0187188 -3.84204e-18)
(0.311694 -0.0474042 -2.1006e-17)
(1.02355 -0.000137025 1.87662e-21)
(1.02104 -0.000445417 -1.54326e-19)
(1.01539 -0.00102464 -3.62727e-19)
(1.00237 -0.00246885 -5.42699e-19)
(0.970358 -0.00495833 -7.78096e-19)
(0.912369 -0.00933829 -5.04428e-20)
(0.80143 -0.0151737 9.12908e-19)
(0.63685 -0.0198924 4.3806e-19)
(0.439939 -0.0160092 -2.66666e-18)
(0.31874 -0.0412125 -1.50086e-17)
(1.02355 -0.000116087 2.12813e-20)
(1.02103 -0.000377376 -1.47656e-19)
(1.01536 -0.000868171 -3.22647e-19)
(1.00227 -0.00209199 -5.51271e-19)
(0.970077 -0.00420322 -7.11117e-19)
(0.911645 -0.00791973 -1.0643e-19)
(0.799795 -0.012871 7.91791e-19)
(0.633786 -0.0168662 3.78342e-19)
(0.436594 -0.0133888 3.29868e-18)
(0.325362 -0.0349937 -1.14952e-17)
(1.02354 -9.50856e-05 3.19573e-20)
(1.02102 -0.000309108 -1.20641e-19)
(1.01533 -0.000711128 -3.06014e-19)
(1.00218 -0.00171356 -5.50242e-19)
(0.969847 -0.00344403 -6.43492e-19)
(0.911055 -0.00649205 -1.62458e-19)
(0.79847 -0.010552 4.44846e-19)
(0.631322 -0.013827 1.36057e-19)
(0.434033 -0.0108482 1.01919e-17)
(0.331329 -0.0287274 -1.01597e-17)
(1.02354 -7.40318e-05 3.36238e-20)
(1.02101 -0.000240658 -7.82845e-20)
(1.01531 -0.000553638 -2.48963e-19)
(1.00212 -0.00133388 -5.30324e-19)
(0.969666 -0.00268168 -4.92742e-19)
(0.910591 -0.00505727 -1.7583e-19)
(0.797434 -0.0082202 5.61683e-19)
(0.629412 -0.0107772 1.61281e-19)
(0.432138 -0.0083747 1.41932e-17)
(0.336419 -0.0224143 -4.25498e-18)
(1.02354 -5.29407e-05 4.50139e-20)
(1.021 -0.000172078 -2.82187e-20)
(1.01529 -0.000395848 -1.76181e-19)
(1.00207 -0.000953331 -5.06639e-19)
(0.969532 -0.00191713 -3.02274e-19)
(0.910249 -0.00361776 -3.8144e-19)
(0.796673 -0.00587974 4.88271e-19)
(0.628016 -0.00772055 4.6064e-19)
(0.43081 -0.00595585 1.60975e-17)
(0.340433 -0.0160624 1.11832e-18)
(1.02354 -3.18289e-05 4.37154e-20)
(1.021 -0.000103426 2.56561e-20)
(1.01528 -0.000237903 7.20775e-21)
(1.00204 -0.000572227 -4.56867e-19)
(0.969443 -0.00115118 -9.33394e-20)
(0.910023 -0.0021754 -5.38371e-19)
(0.796172 -0.00353327 9.5435e-19)
(0.627103 -0.00466293 4.81454e-19)
(0.429968 -0.00358263 1.60701e-17)
(0.343205 -0.00967251 6.98008e-18)
(1.02354 -1.06679e-05 5.13317e-20)
(1.021 -3.46265e-05 8.08693e-22)
(1.01527 -7.96075e-05 8.30187e-20)
(1.00202 -0.000190632 -3.2398e-19)
(0.969398 -0.000383491 1.24325e-19)
(0.90991 -0.000726729 -4.09894e-19)
(0.795923 -0.00117613 7.21031e-19)
(0.626651 -0.00158312 3.37656e-19)
(0.429559 -0.00122472 1.42334e-17)
(0.344621 -0.00321088 7.95921e-18)
(1.02364 -0.000371604 -2.93988e-20)
(1.02135 -0.00120621 -1.42122e-19)
(1.01634 -0.00277303 -5.03073e-19)
(1.00512 -0.00664516 -8.82563e-20)
(0.978237 -0.0131931 -3.4891e-19)
(0.93303 -0.0245427 -9.47066e-19)
(0.849332 -0.0393388 6.22602e-19)
(0.73238 -0.0519367 1.06199e-18)
(0.582405 -0.0558095 6.96177e-18)
(0.250225 -0.109091 -1.36188e-18)
(1.02363 -0.000355075 -2.41204e-20)
(1.02131 -0.00115295 -1.39986e-19)
(1.01624 -0.00265117 -3.99036e-19)
(1.00482 -0.00635822 -1.42228e-19)
(0.977366 -0.0126391 -2.91296e-19)
(0.930755 -0.0235408 -8.21258e-19)
(0.844046 -0.0377967 3.0319e-19)
(0.721662 -0.04984 1.12598e-18)
(0.564455 -0.0520326 4.14953e-18)
(0.252512 -0.104059 -1.16105e-18)
(1.02362 -0.00033847 -2.95353e-20)
(1.02128 -0.00109927 -1.47062e-19)
(1.01614 -0.00252842 -3.28693e-19)
(1.00453 -0.00606793 -2.19518e-19)
(0.976538 -0.0120783 -2.87613e-19)
(0.928584 -0.0225273 -8.91133e-19)
(0.838997 -0.0362301 1.56259e-19)
(0.71143 -0.0477565 4.67412e-19)
(0.547648 -0.0486721 1.51306e-18)
(0.255332 -0.0987677 -1.03434e-18)
(1.02361 -0.000321736 -2.11331e-20)
(1.02125 -0.00104513 -1.63954e-19)
(1.01605 -0.00240436 -2.98992e-19)
(1.00426 -0.00577347 -3.05168e-19)
(0.975753 -0.0115069 -2.96638e-19)
(0.926525 -0.0214918 -6.82025e-19)
(0.834202 -0.034618 1.13345e-19)
(0.701726 -0.0456403 -1.04241e-19)
(0.532026 -0.0453643 -9.57552e-19)
(0.258694 -0.0938598 -1.09541e-18)
(1.0236 -0.000304852 -1.45336e-20)
(1.02122 -0.000990435 -1.28764e-19)
(1.01596 -0.0022788 -3.00514e-19)
(1.004 -0.00547468 -2.51082e-19)
(0.975014 -0.0109241 -3.00993e-19)
(0.924581 -0.0204298 -4.37201e-19)
(0.829676 -0.0329535 2.02835e-19)
(0.692583 -0.0434499 3.77775e-20)
(0.517614 -0.042117 -3.846e-18)
(0.262608 -0.0890769 -1.46822e-18)
(1.0236 -0.000287829 -2.11506e-20)
(1.0212 -0.000935227 -1.52041e-19)
(1.01588 -0.00215185 -3.12369e-19)
(1.00376 -0.00517193 -3.31688e-19)
(0.974322 -0.0103308 -4.11737e-19)
(0.922759 -0.0193432 -4.08532e-19)
(0.825429 -0.0312408 3.83358e-19)
(0.684025 -0.0411915 1.51534e-19)
(0.504424 -0.038969 -7.44853e-18)
(0.267082 -0.0842863 4.81891e-18)
(1.02359 -0.000270679 -2.09746e-20)
(1.02117 -0.000879547 -1.69329e-19)
(1.0158 -0.00202365 -3.37678e-19)
(1.00353 -0.00486561 -3.75884e-19)
(0.973677 -0.00972805 -4.95157e-19)
(0.921059 -0.0182345 -3.30849e-19)
(0.821468 -0.0294849 7.13331e-19)
(0.676068 -0.0388752 3.042e-19)
(0.49245 -0.0359216 -7.32216e-18)
(0.272116 -0.0794904 6.71716e-18)
(1.02358 -0.000253413 -3.02626e-20)
(1.02115 -0.000823437 -1.76156e-19)
(1.01573 -0.00189433 -3.67047e-19)
(1.00333 -0.00455607 -3.69179e-19)
(0.973079 -0.00911694 -5.80894e-19)
(0.919482 -0.0171069 -2.49841e-19)
(0.817797 -0.0276922 5.15712e-19)
(0.668717 -0.0365149 -2.36263e-19)
(0.481669 -0.0329789 -8.24342e-18)
(0.277696 -0.074717 2.61769e-18)
(1.02358 -0.000236042 -3.03149e-20)
(1.02113 -0.000766933 -1.68656e-19)
(1.01566 -0.00176396 -3.92739e-19)
(1.00313 -0.00424333 -4.37908e-19)
(0.972529 -0.00849765 -6.58433e-19)
(0.91803 -0.0159616 -1.78467e-19)
(0.814413 -0.0258651 3.51869e-19)
(0.66197 -0.0341285 -1.95325e-19)
(0.47204 -0.0301539 -5.45759e-18)
(0.283794 -0.0699786 -1.8218e-18)
(1.02357 -0.000218551 -2.50364e-20)
(1.02111 -0.000709982 -2.00058e-19)
(1.0156 -0.00163232 -3.887e-19)
(1.00296 -0.00392681 -4.35771e-19)
(0.972026 -0.00786715 -7.33722e-19)
(0.9167 -0.0147869 -1.12138e-19)
(0.811315 -0.0239781 1.09394e-19)
(0.655815 -0.0316481 -3.04612e-19)
(0.463511 -0.0273654 -3.45233e-18)
(0.290361 -0.065078 -7.18139e-18)
(1.14318 0.0652354 2.27506e-19)
(1.1583 0.063296 -4.79582e-19)
(1.16738 0.0590486 8.06205e-18)
(1.18524 0.0589719 3.33326e-18)
(1.20132 0.0479841 -7.73887e-18)
(1.23423 0.0456884 -2.28925e-17)
(1.27055 0.0137822 -7.80214e-18)
(1.33508 0.0076472 1.84275e-17)
(1.3376 -0.0953102 -7.98829e-18)
(0.978121 -0.0482762 -5.01692e-17)
(1.14301 0.064338 2.83746e-19)
(1.15814 0.0619084 3.04953e-18)
(1.16725 0.0572946 7.62922e-18)
(1.18506 0.0564851 2.97993e-18)
(1.20105 0.0444882 -7.74687e-18)
(1.23366 0.0405806 -2.71075e-17)
(1.26984 0.00618144 -7.00171e-18)
(1.33014 -0.00540653 1.74662e-17)
(1.32058 -0.112582 -9.61285e-18)
(0.904629 -0.0623959 -4.79457e-17)
(1.14284 0.063434 3.61554e-19)
(1.15795 0.0605191 3.15417e-18)
(1.16714 0.0555337 6.99702e-18)
(1.1849 0.0539815 2.70191e-18)
(1.2009 0.0409629 -7.69093e-18)
(1.23326 0.0353846 -2.52217e-17)
(1.26945 -0.00157964 -5.44337e-18)
(1.32545 -0.0187816 1.59728e-17)
(1.30399 -0.128614 -1.01996e-17)
(0.836924 -0.0748743 -4.12169e-17)
(1.14265 0.0625249 4.03371e-19)
(1.15773 0.0591295 6.40246e-18)
(1.16697 0.0537678 2.632e-18)
(1.18464 0.051464 6.71209e-18)
(1.20059 0.0374121 -2.90834e-18)
(1.23258 0.0301102 -2.35472e-17)
(1.26844 -0.00949012 -3.70633e-18)
(1.31966 -0.0323977 1.54125e-17)
(1.28544 -0.143951 -1.11498e-17)
(0.7789 -0.0864302 -1.72677e-17)
(1.14242 0.0616121 6.75568e-19)
(1.15745 0.057742 5.96223e-18)
(1.16672 0.0520011 2.52454e-18)
(1.18426 0.0489396 6.15132e-18)
(1.20008 0.0338465 -3.59213e-18)
(1.23158 0.0247796 -2.18261e-17)
(1.26673 -0.0175205 -2.8473e-18)
(1.31273 -0.0461581 5.20559e-18)
(1.26495 -0.158906 -1.09434e-17)
(0.72556 -0.0975248 -1.1806e-17)
(1.14218 0.060697 7.64854e-19)
(1.15713 0.056359 5.70371e-18)
(1.16642 0.0502366 2.35202e-18)
(1.18378 0.0464139 9.78102e-18)
(1.19942 0.0302739 -8.5357e-18)
(1.2303 0.0194081 -2.05194e-17)
(1.26445 -0.0256543 -2.62533e-18)
(1.30494 -0.0600105 4.68611e-18)
(1.24334 -0.173623 -1.05916e-17)
(0.675516 -0.108391 8.64144e-18)
(1.14191 0.059781 5.64033e-19)
(1.15678 0.0549819 5.44172e-18)
(1.16606 0.048477 2.17028e-18)
(1.18322 0.0438908 8.67836e-18)
(1.19861 0.0267004 -8.26247e-18)
(1.22878 0.0140071 -1.90069e-17)
(1.26166 -0.0338808 -8.70157e-19)
(1.2964 -0.0739298 5.68751e-18)
(1.22097 -0.188239 -1.08923e-17)
(0.629308 -0.119212 -1.44673e-17)
(1.14163 0.0588653 -2.53553e-18)
(1.15638 0.0536126 4.75531e-18)
(1.16565 0.0467246 5.82887e-18)
(1.18256 0.0413745 1.16562e-17)
(1.19766 0.0231322 -1.26947e-17)
(1.22699 0.00858792 -1.21966e-17)
(1.25831 -0.042191 -9.86971e-19)
(1.28702 -0.0879053 -5.56952e-18)
(1.19778 -0.202897 -9.58359e-18)
(0.587229 -0.13003 -1.42704e-17)
(1.14132 0.0579515 -2.03114e-18)
(1.15594 0.052253 4.45897e-18)
(1.16518 0.0449824 8.95892e-18)
(1.18181 0.0388692 1.07065e-17)
(1.19657 0.0195766 -1.23366e-17)
(1.22497 0.00316977 -1.12438e-17)
(1.25452 -0.0505385 -1.14301e-18)
(1.27731 -0.101833 4.22023e-18)
(1.17472 -0.217755 -7.79932e-18)
(0.54757 -0.140356 -1.29638e-17)
(1.14095 0.0570436 -1.7379e-18)
(1.15542 0.0509142 7.5941e-18)
(1.16461 0.0432639 4.99501e-18)
(1.1809 0.0363786 1.38006e-17)
(1.19522 0.0160037 -1.15025e-17)
(1.22246 -0.00240873 -5.10127e-18)
(1.24956 -0.059429 -1.34087e-18)
(1.26468 -0.116876 4.16016e-18)
(1.14579 -0.23313 -1.98273e-17)
(0.507921 -0.147976 -1.12628e-17)
(1.14359 0.0746831 -1.1931e-18)
(1.15749 0.0790441 5.97429e-18)
(1.16644 0.0791149 1.46304e-18)
(1.1834 0.0867165 3.06441e-19)
(1.20085 0.0873329 -1.01373e-17)
(1.23413 0.0982628 -1.93292e-18)
(1.27045 0.0967884 -3.3106e-18)
(1.351 0.122848 -1.37529e-17)
(1.4014 0.112082 5.97043e-18)
(1.34732 0.154826 -2.14465e-17)
(1.14373 0.0738449 -1.0666e-18)
(1.15783 0.0775168 5.73851e-18)
(1.16681 0.0771663 5.16857e-18)
(1.18398 0.0840149 -1.5664e-19)
(1.20135 0.0835105 -1.48724e-17)
(1.23495 0.0933058 4.55634e-18)
(1.27125 0.0887124 3.85641e-18)
(1.35258 0.112878 -1.36816e-17)
(1.39654 0.0870492 4.8758e-18)
(1.29737 0.129613 -4.32699e-17)
(1.14383 0.072977 -8.50426e-19)
(1.15815 0.0759709 5.48018e-18)
(1.1672 0.0751927 8.92283e-18)
(1.18462 0.081283 -5.94934e-19)
(1.20201 0.0796342 -1.36078e-17)
(1.23605 0.0882565 4.46178e-18)
(1.2728 0.0804925 3.83361e-18)
(1.35458 0.102453 -2.5899e-18)
(1.39453 0.064011 6.22757e-18)
(1.24522 0.106343 -3.84435e-17)
(1.1439 0.0720803 -5.80304e-19)
(1.1584 0.0744069 5.30753e-18)
(1.16752 0.0731944 7.99409e-18)
(1.18516 0.0785193 -3.7323e-19)
(1.20256 0.0757045 -1.18175e-17)
(1.23693 0.0831047 4.88295e-18)
(1.27415 0.072147 3.37731e-18)
(1.35566 0.0915633 -2.23759e-18)
(1.39205 0.0424107 -5.51671e-18)
(1.20217 0.0846084 -5.56357e-17)
(1.14392 0.0711569 -2.13606e-19)
(1.15858 0.0728279 7.39288e-19)
(1.16775 0.0711767 7.36618e-18)
(1.18555 0.0757311 -6.04006e-19)
(1.20291 0.0717356 -1.07928e-17)
(1.23744 0.0778697 4.86076e-18)
(1.27498 0.0637253 3.04316e-18)
(1.35553 0.0803076 -3.71242e-18)
(1.38794 0.0216537 -6.55783e-18)
(1.1656 0.0638167 -5.33044e-17)
(1.14389 0.0702088 -2.31357e-20)
(1.15869 0.0712371 4.50628e-18)
(1.16788 0.0691445 6.94248e-18)
(1.18581 0.0729257 -1.10417e-18)
(1.20308 0.0677409 -9.66864e-18)
(1.23764 0.0725713 4.33821e-18)
(1.27534 0.0552683 3.07895e-18)
(1.35439 0.068772 5.78812e-18)
(1.3826 0.00146807 -6.64983e-18)
(1.13204 0.0436984 -4.93038e-17)
(1.14382 0.0692377 1.01848e-19)
(1.15873 0.069637 8.19636e-18)
(1.16794 0.0671017 6.82324e-18)
(1.18594 0.0701088 3.688e-18)
(1.20308 0.0637311 -8.86658e-18)
(1.23755 0.0672239 3.90642e-18)
(1.27531 0.0468043 2.84457e-18)
(1.35243 0.0570047 3.16652e-18)
(1.37644 -0.0182947 -5.51333e-18)
(1.10081 0.0241292 -4.68253e-17)
(1.14371 0.0682455 2.94023e-19)
(1.15872 0.0680301 7.39073e-18)
(1.16792 0.065052 9.5767e-18)
(1.18596 0.0672855 -9.67102e-19)
(1.20292 0.0597158 -8.43198e-18)
(1.23718 0.0618409 -8.11209e-19)
(1.2749 0.0383616 3.25314e-18)
(1.34971 0.045057 1.41156e-17)
(1.36986 -0.0377702 -1.78051e-17)
(1.07232 0.00497399 -4.15489e-17)
(1.14357 0.0672339 -3.31569e-18)
(1.15864 0.0664188 3.19583e-18)
(1.16783 0.062999 4.37532e-18)
(1.18586 0.06446 -1.1066e-18)
(1.20261 0.0557023 -8.45764e-18)
(1.23655 0.0564271 -1.31007e-17)
(1.27409 0.0299437 -3.12898e-18)
(1.34608 0.0328558 1.21654e-17)
(1.36181 -0.0572285 -1.93312e-17)
(1.04626 -0.0139193 -6.0863e-17)
(1.14337 0.0662054 3.01906e-19)
(1.15848 0.0648087 -1.09587e-18)
(1.16761 0.0609521 8.91849e-18)
(1.18558 0.061658 3.78396e-18)
(1.202 0.0517384 -7.95003e-18)
(1.2354 0.0511096 -1.77407e-17)
(1.27247 0.0217789 -9.44437e-18)
(1.34166 0.0211437 2.03495e-17)
(1.35707 -0.0760696 -6.916e-18)
(1.03081 -0.0322524 -5.42327e-17)
(1.1396 0.081383 -2.80861e-18)
(1.15073 0.0933361 -1.8826e-19)
(1.15907 0.0981224 1.27639e-17)
(1.17342 0.113242 -9.12606e-18)
(1.1902 0.125004 -2.35254e-17)
(1.21886 0.147495 -2.72538e-17)
(1.25198 0.174349 7.33422e-18)
(1.3025 0.216678 -7.77402e-18)
(1.35677 0.332966 -8.9941e-18)
(1.35937 0.377148 -4.9156e-17)
(1.14023 0.0808759 -2.21749e-18)
(1.15171 0.0920285 3.69269e-18)
(1.16012 0.0963485 1.54177e-17)
(1.17482 0.110751 -3.72892e-18)
(1.19174 0.121507 -2.13878e-17)
(1.22112 0.142894 -1.92692e-17)
(1.25482 0.167713 6.49387e-18)
(1.31021 0.208436 -7.70868e-18)
(1.36294 0.312174 -8.83759e-18)
(1.3464 0.355953 -4.37053e-17)
(1.14082 0.0803298 -2.25827e-18)
(1.15265 0.0906891 3.33505e-18)
(1.16117 0.0945378 1.01688e-17)
(1.17628 0.108212 -3.63176e-18)
(1.19342 0.117926 -1.91381e-17)
(1.22363 0.138186 -1.16727e-17)
(1.25818 0.160723 6.28538e-18)
(1.31841 0.199908 -1.42746e-17)
(1.37055 0.292128 -7.70448e-18)
(1.33178 0.335424 -5.89641e-17)
(1.14135 0.0797451 -2.14035e-18)
(1.15352 0.089318 7.01253e-18)
(1.16214 0.0926905 8.67226e-18)
(1.17763 0.105623 -7.66212e-18)
(1.19497 0.114264 -1.79227e-17)
(1.22593 0.133369 -1.67515e-17)
(1.26129 0.153396 5.95739e-18)
(1.32584 0.191054 -2.21706e-17)
(1.37821 0.272236 -1.93352e-17)
(1.32591 0.315058 -5.4155e-17)
(1.14182 0.0791229 -1.64314e-18)
(1.15431 0.0879179 6.35822e-18)
(1.16302 0.0908108 8.01169e-18)
(1.17885 0.102994 -6.16803e-18)
(1.19633 0.110532 -1.14065e-17)
(1.22791 0.128464 -1.59079e-17)
(1.2639 0.14578 5.23464e-18)
(1.33213 0.181878 -2.12321e-17)
(1.38535 0.251966 -1.71156e-17)
(1.32558 0.29438 -4.88121e-17)
(1.14224 0.0784647 -1.68221e-18)
(1.15503 0.0864915 9.82601e-18)
(1.16381 0.0889028 6.96093e-18)
(1.17993 0.100328 -1.01596e-17)
(1.19752 0.106742 -1.06806e-17)
(1.22962 0.123491 -1.48999e-17)
(1.26608 0.13793 4.47422e-18)
(1.33745 0.17241 -1.11351e-17)
(1.39191 0.231093 -2.6477e-17)
(1.32769 0.273204 -6.42673e-17)
(1.14261 0.0777715 2.2845e-18)
(1.15567 0.0850405 8.71551e-18)
(1.16451 0.0869696 6.69203e-18)
(1.18089 0.097633 -9.16513e-18)
(1.19855 0.1029 -9.57084e-18)
(1.2311 0.118466 -8.46013e-18)
(1.26788 0.129879 4.55219e-18)
(1.34206 0.162681 -9.44403e-18)
(1.3977 0.209481 -2.76519e-17)
(1.33184 0.25143 -7.90023e-17)
(1.14293 0.0770445 2.12754e-18)
(1.15624 0.0835669 1.19847e-17)
(1.16513 0.0850145 2.2959e-18)
(1.18173 0.094912 -9.31494e-18)
(1.19944 0.0990138 -1.40228e-17)
(1.23234 0.1134 -1.62844e-18)
(1.26933 0.121654 -3.16835e-18)
(1.34591 0.15275 -1.88428e-17)
(1.40258 0.186954 -1.41578e-17)
(1.33907 0.228894 -7.28855e-17)
(1.1432 0.0762847 -1.68527e-18)
(1.15673 0.0820727 6.92628e-18)
(1.16568 0.0830414 1.87663e-18)
(1.18245 0.0921707 -4.09333e-18)
(1.20018 0.0950934 -1.27819e-17)
(1.23333 0.108312 -1.62879e-18)
(1.27043 0.113301 -3.23493e-18)
(1.34895 0.1427 -1.69278e-17)
(1.40596 0.163308 -1.54595e-17)
(1.3485 0.205404 -5.0638e-17)
(1.14341 0.0754929 -1.37073e-18)
(1.15714 0.0805587 6.48084e-18)
(1.1661 0.0810491 1.64444e-18)
(1.18298 0.0894051 7.6935e-19)
(1.20064 0.0911256 -1.12825e-17)
(1.23384 0.103185 -2.03144e-18)
(1.27072 0.104761 -2.94632e-18)
(1.35053 0.132533 -1.55913e-17)
(1.40911 0.138067 -4.55989e-18)
(1.36403 0.180488 -2.52481e-17)
(1.13137 0.0845244 -7.69239e-18)
(1.13901 0.103907 -4.87143e-18)
(1.14676 0.113487 2.65049e-17)
(1.15796 0.135431 -9.53905e-19)
(1.17355 0.156433 -3.01239e-17)
(1.196 0.189457 -4.25027e-17)
(1.21602 0.228482 3.08763e-17)
(1.21848 0.297553 2.21264e-19)
(1.21525 0.423269 3.06104e-18)
(0.985075 0.484571 4.42838e-18)
(1.1332 0.0843274 -1.00344e-17)
(1.14139 0.102947 -7.34139e-18)
(1.14945 0.112033 2.44195e-17)
(1.16118 0.133316 -4.368e-18)
(1.17715 0.153463 -2.79178e-17)
(1.20042 0.185706 -4.50279e-17)
(1.22218 0.224274 2.27212e-17)
(1.22779 0.292204 -5.90023e-18)
(1.23301 0.423701 1.89259e-18)
(1.00853 0.480718 3.86488e-18)
(1.13412 0.0841033 -9.27688e-18)
(1.14268 0.101963 -6.66321e-18)
(1.15072 0.110563 2.2542e-17)
(1.16269 0.131186 -7.587e-18)
(1.17866 0.150468 -2.56034e-17)
(1.2024 0.181851 -4.75776e-17)
(1.22596 0.219803 2.1007e-17)
(1.23645 0.285929 -5.42798e-18)
(1.25147 0.422285 1.02817e-17)
(1.04159 0.47578 3.60411e-18)
(1.1348 0.0838551 -1.17567e-17)
(1.1437 0.100965 -6.1802e-18)
(1.15173 0.109082 1.75172e-17)
(1.16398 0.129039 -1.03995e-17)
(1.18007 0.147439 -2.34677e-17)
(1.20447 0.177874 -4.49327e-17)
(1.23 0.215005 1.90375e-17)
(1.24597 0.278813 -4.64604e-18)
(1.26871 0.41895 9.60352e-19)
(1.07545 0.469562 3.28178e-18)
(1.13553 0.0835812 -1.06423e-17)
(1.14478 0.0999458 -5.53113e-18)
(1.15287 0.10758 1.6303e-17)
(1.16547 0.12686 -9.35552e-18)
(1.18178 0.144355 -1.75355e-17)
(1.20695 0.173763 -4.72544e-17)
(1.23437 0.209891 2.34296e-17)
(1.25562 0.271008 -4.27567e-18)
(1.28482 0.413742 1.55558e-18)
(1.11003 0.462009 -6.58011e-18)
(1.13629 0.0832804 -9.72642e-18)
(1.1459 0.0989033 -5.29482e-18)
(1.15406 0.106054 1.49228e-17)
(1.16702 0.124646 -8.49187e-18)
(1.18355 0.141216 -1.56041e-17)
(1.20945 0.169532 -4.44876e-17)
(1.23847 0.204493 2.11088e-17)
(1.26486 0.262601 -2.86139e-18)
(1.30027 0.406536 3.21306e-19)
(1.14744 0.452975 -6.43865e-18)
(1.13703 0.0829531 -8.98945e-18)
(1.14698 0.0978381 -4.49824e-18)
(1.1552 0.104505 1.73284e-17)
(1.16848 0.122402 -7.41754e-18)
(1.18517 0.138029 -1.94549e-17)
(1.21172 0.165204 -4.21499e-17)
(1.2421 0.198834 1.96482e-17)
(1.27362 0.253654 -1.02243e-17)
(1.31503 0.397121 5.30559e-19)
(1.18846 0.442254 -5.6614e-18)
(1.13772 0.0825998 -8.56905e-18)
(1.14799 0.096752 -4.03618e-18)
(1.15626 0.102936 1.61458e-17)
(1.16984 0.120134 -6.35379e-18)
(1.18663 0.134801 -1.81223e-17)
(1.21379 0.160796 -3.97087e-17)
(1.24529 0.192928 1.79774e-17)
(1.28193 0.244255 -9.7379e-18)
(1.32884 0.385262 1.94214e-19)
(1.23337 0.42962 -4.98985e-18)
(1.13837 0.0822209 -7.9988e-18)
(1.14894 0.0956461 -2.33906e-19)
(1.15724 0.101348 1.48303e-17)
(1.1711 0.117845 -5.85443e-18)
(1.18795 0.131538 -1.71642e-17)
(1.21568 0.156328 -3.71406e-17)
(1.24805 0.186802 1.6693e-17)
(1.28965 0.234563 -7.01974e-19)
(1.34105 0.370826 1.32505e-18)
(1.28139 0.414959 -1.93529e-18)
(1.13898 0.0818179 -6.84123e-18)
(1.14982 0.0945217 -1.91598e-19)
(1.15815 0.0997407 1.38891e-17)
(1.17225 0.115524 -9.55421e-18)
(1.1891 0.128204 -2.05246e-17)
(1.2173 0.151726 -2.94476e-17)
(1.25019 0.180278 8.59175e-18)
(1.29644 0.224236 -7.96507e-21)
(1.35209 0.352403 2.28987e-18)
(1.33283 0.396857 -3.38449e-17)
(1.02639 0.00257015 -5.42135e-19)
(0.958522 -0.00251561 1.10973e-18)
(1.04286 0.000960476 -4.3542e-18)
(0.949324 0.00269744 1.6608e-18)
(1.0329 -0.00193155 -6.81077e-18)
(0.954763 0.00824423 -1.32316e-18)
(0.996148 0.00407037 7.51367e-18)
(0.922774 0.0340041 -1.21004e-17)
(0.845428 0.0339062 2.18102e-17)
(0.774567 0.279675 -7.03696e-18)
(1.02631 0.00278262 -1.23775e-18)
(0.95851 -0.00274705 9.54963e-19)
(1.04313 0.00109582 -3.67891e-18)
(0.948727 0.00284733 1.58961e-18)
(1.03387 -0.00200737 -7.11881e-18)
(0.953517 0.00885379 -2.03346e-18)
(0.997989 0.00466522 6.33919e-18)
(0.920237 0.0365361 -1.12479e-17)
(0.852893 0.0382018 2.24866e-17)
(0.77719 0.300905 6.40671e-19)
(1.02622 0.00299583 -1.21614e-18)
(0.958512 -0.00298379 7.97641e-19)
(1.0434 0.00124116 -3.19376e-18)
(0.948122 0.00298311 1.3694e-18)
(1.03486 -0.00206813 -6.20213e-18)
(0.952242 0.0094422 -2.05277e-18)
(0.999882 0.00527815 5.21896e-18)
(0.917659 0.0389536 -1.10278e-17)
(0.860751 0.0424081 2.63289e-17)
(0.780154 0.320951 2.0578e-18)
(1.02612 0.00320933 -1.18276e-18)
(0.958529 -0.00322452 6.32677e-19)
(1.04366 0.00139502 -2.74256e-18)
(0.947518 0.00310928 5.84292e-19)
(1.03588 -0.00211771 -5.82101e-18)
(0.950952 0.0100264 -2.59532e-18)
(1.00181 0.0059209 8.17535e-19)
(0.915091 0.0413408 -1.1281e-17)
(0.868967 0.0466622 2.15768e-17)
(0.783451 0.341026 4.51846e-18)
(1.02601 0.00342307 -1.17588e-18)
(0.958563 -0.00346963 4.76929e-19)
(1.04392 0.00155832 -2.41868e-18)
(0.946925 0.0032235 -7.24705e-19)
(1.0369 -0.00215502 -5.77338e-18)
(0.949664 0.0105995 -3.16317e-18)
(1.00377 0.00659476 -3.4601e-19)
(0.912583 0.0436551 -1.00515e-17)
(0.877506 0.0509759 1.87948e-17)
(0.787092 0.361147 9.12976e-18)
(1.02589 0.00363699 -4.18389e-19)
(0.958619 -0.00371928 3.46108e-19)
(1.04416 0.00173119 -1.22589e-18)
(0.94635 0.00332512 -1.66518e-18)
(1.03793 -0.00217978 -4.56293e-18)
(0.948396 0.0111601 -3.09746e-18)
(1.00573 0.00729654 -1.37969e-18)
(0.910195 0.0458872 -9.22245e-18)
(0.886323 0.0553274 1.85767e-17)
(0.791123 0.381164 9.56561e-18)
(1.02576 0.00385098 3.10873e-19)
(0.958697 -0.00397348 2.10256e-19)
(1.04439 0.00191357 -1.15111e-19)
(0.945804 0.00341396 -2.60464e-18)
(1.03895 -0.00219193 -3.6538e-18)
(0.947164 0.011707 -3.06299e-18)
(1.00768 0.00802159 -2.55761e-18)
(0.907989 0.0480285 -8.67873e-18)
(0.895364 0.0596808 2.10135e-17)
(0.795678 0.401066 1.20584e-17)
(1.02562 0.00406476 2.95037e-19)
(0.958802 -0.00423224 1.15366e-19)
(1.04459 0.00210615 8.83794e-19)
(0.945296 0.00348945 -3.10496e-18)
(1.03995 -0.00218885 -2.94841e-18)
(0.945984 0.0122407 -3.10019e-18)
(1.00961 0.00877295 -4.14349e-18)
(0.906036 0.0500776 -8.48328e-18)
(0.904567 0.064115 1.51561e-17)
(0.801113 0.420907 1.13545e-17)
(1.02547 0.00427732 2.93759e-19)
(0.958935 -0.00449404 3.4801e-20)
(1.04477 0.00230877 1.76069e-18)
(0.944835 0.00355435 -3.11501e-18)
(1.04092 -0.00216823 -2.29072e-18)
(0.944875 0.0127826 -3.27733e-18)
(1.01151 0.00957274 -2.8237e-18)
(0.904412 0.0521456 -8.57863e-18)
(0.913862 0.068999 1.07839e-17)
(0.808381 0.440709 1.10906e-17)
(1.0253 0.00448807 2.67562e-19)
(0.959099 -0.00475485 -3.63207e-20)
(1.04492 0.00251186 1.65632e-18)
(0.944431 0.00361796 -3.091e-18)
(1.04186 -0.00215527 -1.88136e-18)
(0.943852 0.0133438 -2.90513e-18)
(1.01338 0.0103539 -1.76563e-18)
(0.903211 0.0542274 -9.24603e-18)
(0.923178 0.0734424 7.86091e-18)
(0.820062 0.4601 1.1927e-17)
(1.02677 0.000120694 1.07652e-18)
(0.958865 -0.000111026 -1.84247e-18)
(1.04084 3.10572e-05 7.35232e-19)
(0.953495 0.000152496 -2.14527e-18)
(1.02651 -0.000110555 -1.56762e-18)
(0.962924 0.000441143 -4.25909e-20)
(0.98429 0.00016429 1.77707e-17)
(0.938304 0.00185839 4.07042e-18)
(0.802523 0.00169836 1.08498e-17)
(0.756959 0.0134485 1.42879e-17)
(1.02676 0.000364289 1.59689e-18)
(0.958855 -0.000339138 -1.31953e-18)
(1.04089 9.9137e-05 9.71687e-19)
(0.953405 0.000438409 -2.45147e-18)
(1.02664 -0.000326847 -3.117e-18)
(0.962752 0.00125359 1.838e-19)
(0.984523 0.000473784 2.19723e-17)
(0.937968 0.00521456 3.32609e-18)
(0.80338 0.00473664 2.10762e-17)
(0.757366 0.0406604 8.00848e-18)
(1.02675 0.000608455 2.11909e-18)
(0.958834 -0.000569058 -8.2082e-19)
(1.04097 0.00016956 -3.98543e-20)
(0.953228 0.000721238 -2.3526e-18)
(1.02691 -0.000538755 -2.92172e-18)
(0.962414 0.00206662 1.424e-19)
(0.984995 0.000795694 2.44118e-17)
(0.937316 0.00858933 2.59187e-18)
(0.805074 0.00788265 2.0211e-17)
(0.758156 0.0676429 1.81382e-18)
(1.02673 0.000852901 1.76715e-18)
(0.958804 -0.000800804 -3.63701e-19)
(1.0411 0.000243798 -1.20132e-18)
(0.952966 0.000999628 -2.26092e-18)
(1.0273 -0.000745889 -2.75941e-18)
(0.961912 0.00287439 -1.08125e-19)
(0.985706 0.00113069 2.54724e-17)
(0.936366 0.0119346 1.67988e-18)
(0.807589 0.0110502 2.26825e-17)
(0.759314 0.0945324 -6.36406e-18)
(1.0267 0.00109795 1.48121e-18)
(0.958766 -0.00103538 2.02772e-20)
(1.04127 0.00032323 -1.38797e-18)
(0.952624 0.00127163 -1.65013e-18)
(1.02781 -0.000946839 -9.64462e-19)
(0.961255 0.00367375 8.29218e-20)
(0.986651 0.00148044 2.12758e-17)
(0.935135 0.0152381 -1.3869e-18)
(0.810905 0.0142302 2.82854e-17)
(0.760823 0.121379 -1.76688e-17)
(1.02667 0.00134388 1.25699e-18)
(0.958722 -0.00127357 8.92999e-19)
(1.04148 0.000409021 -1.69789e-18)
(0.952208 0.00153601 -1.01866e-18)
(1.02844 -0.00114021 -9.97151e-19)
(0.960451 0.00446376 5.97396e-19)
(0.987817 0.00184742 1.54454e-17)
(0.933639 0.0184952 -4.69092e-18)
(0.814997 0.0174173 2.45572e-17)
(0.762664 0.148191 -2.18239e-17)
(1.02663 0.00159088 1.10839e-18)
(0.958675 -0.00151606 1.13524e-18)
(1.04172 0.000502312 -3.39565e-18)
(0.951723 0.00179154 -3.62006e-19)
(1.02918 -0.00132475 -2.92916e-18)
(0.959512 0.00524339 5.68727e-19)
(0.98919 0.00223453 1.08754e-17)
(0.931892 0.0217004 -8.47908e-18)
(0.819834 0.0206117 2.25367e-17)
(0.764804 0.174975 -1.85232e-17)
(1.02659 0.00183923 1.92797e-19)
(0.958627 -0.00176366 6.58088e-19)
(1.04198 0.000604186 -5.35276e-18)
(0.951179 0.00203672 3.26802e-19)
(1.03001 -0.00149987 -5.13737e-18)
(0.958451 0.00601003 -8.61751e-20)
(0.990749 0.00264244 7.23011e-18)
(0.929908 0.0248415 -1.09036e-17)
(0.825378 0.0238033 2.32513e-17)
(0.767193 0.201799 -1.68177e-17)
(1.02653 0.0020893 1.74988e-19)
(0.958583 -0.00201719 7.10849e-19)
(1.04227 0.000715358 -6.3343e-18)
(0.950583 0.00226997 9.9867e-19)
(1.03093 -0.00166575 -5.81624e-18)
(0.957282 0.0067566 -6.71223e-19)
(0.992466 0.0030621 8.08374e-18)
(0.927702 0.0278754 -1.19572e-17)
(0.831578 0.0268519 2.78289e-17)
(0.769746 0.22886 -1.87292e-17)
(1.02646 0.00234039 2.1925e-19)
(0.958546 -0.0022757 1.23383e-18)
(1.04257 0.000836177 -5.16692e-18)
(0.949946 0.00249307 1.62413e-18)
(1.03192 -0.00181836 -6.94623e-18)
(0.956021 0.00749239 -4.49329e-19)
(0.99431 0.00350445 9.32107e-18)
(0.925282 0.0308299 -1.1683e-17)
(0.838375 0.0297649 2.33799e-17)
(0.772314 0.255853 -1.29177e-17)
(1.02646 -0.0023404 -5.70197e-19)
(0.958546 0.00227571 -6.15375e-19)
(1.04257 -0.000836177 -1.46685e-18)
(0.949946 -0.00249307 -4.47514e-18)
(1.03192 0.00181836 -4.27001e-18)
(0.956021 -0.00749239 -1.80211e-18)
(0.99431 -0.00350446 -7.46262e-18)
(0.925282 -0.0308299 3.56215e-18)
(0.838375 -0.0297649 5.03927e-18)
(0.772314 -0.255853 -3.68593e-18)
(1.02653 -0.0020893 -3.01058e-19)
(0.958583 0.00201719 -5.2503e-19)
(1.04227 -0.000715358 -5.2062e-19)
(0.950583 -0.00226997 -5.0351e-18)
(1.03093 0.00166575 -4.50693e-18)
(0.957282 -0.0067566 -1.15943e-18)
(0.992466 -0.0030621 -8.79109e-18)
(0.927702 -0.0278754 4.54636e-18)
(0.831578 -0.0268519 5.31492e-18)
(0.769746 -0.22886 3.79424e-18)
(1.02659 -0.00183923 -1.0014e-18)
(0.958627 0.00176366 -1.04075e-18)
(1.04198 -0.000604186 2.33933e-19)
(0.951179 -0.00203673 -5.15621e-18)
(1.03001 0.00149987 -5.05854e-18)
(0.958451 -0.00601003 -6.12557e-19)
(0.990749 -0.00264244 -7.03733e-18)
(0.929908 -0.0248415 4.23634e-18)
(0.825378 -0.0238033 6.57804e-18)
(0.767193 -0.201799 1.46078e-19)
(1.02663 -0.00159088 -9.26964e-19)
(0.958675 0.00151606 -9.69456e-19)
(1.04172 -0.000502313 -3.43426e-19)
(0.951723 -0.00179154 -4.33894e-18)
(1.02918 0.00132475 -3.95463e-18)
(0.959512 -0.00524339 6.22328e-19)
(0.98919 -0.00223453 -5.86145e-18)
(0.931892 -0.0217004 4.71398e-18)
(0.819834 -0.0206117 -3.5469e-18)
(0.764804 -0.174975 6.93276e-18)
(1.02667 -0.00134388 -9.37292e-19)
(0.958722 0.00127357 -8.99346e-19)
(1.04148 -0.000409021 1.07748e-19)
(0.952208 -0.00153601 -3.06885e-18)
(1.02844 0.00114021 -4.80031e-18)
(0.960451 -0.00446376 1.75685e-18)
(0.987817 -0.00184742 -5.10777e-18)
(0.933639 -0.0184952 5.54094e-18)
(0.814997 -0.0174173 -2.51148e-18)
(0.762664 -0.148191 1.25504e-17)
(1.0267 -0.00109795 -1.0427e-18)
(0.958766 0.00103538 -8.53661e-19)
(1.04127 -0.00032323 4.65565e-19)
(0.952624 -0.00127163 -2.0052e-18)
(1.02781 0.00094684 -3.96345e-18)
(0.961255 -0.00367375 2.15428e-18)
(0.986651 -0.00148044 -4.77006e-18)
(0.935135 -0.0152381 3.13513e-18)
(0.810905 -0.0142302 -1.4194e-17)
(0.760823 -0.121379 8.66003e-18)
(1.02673 -0.000852901 -1.24505e-18)
(0.958804 0.000800805 -8.52434e-19)
(1.0411 -0.000243798 -4.15368e-19)
(0.952966 -0.000999629 -1.19179e-18)
(1.0273 0.000745889 -3.30726e-18)
(0.961912 -0.00287439 1.77055e-18)
(0.985706 -0.00113069 -9.26479e-19)
(0.936366 -0.0119346 2.69305e-18)
(0.807589 -0.0110502 -1.37707e-17)
(0.759314 -0.0945324 7.24053e-18)
(1.02675 -0.000608456 -1.45529e-18)
(0.958834 0.000569058 -1.50944e-18)
(1.04097 -0.00016956 -1.30915e-18)
(0.953228 -0.000721239 -1.15008e-18)
(1.02691 0.000538756 -9.84836e-19)
(0.962414 -0.00206662 6.89185e-19)
(0.984995 -0.000795695 2.93602e-18)
(0.937316 -0.00858933 2.37096e-18)
(0.805074 -0.00788265 -1.55581e-17)
(0.758156 -0.0676429 6.9029e-18)