/*--------------------------------*- C++ -*----------------------------------*\
  =========                 |
  \\      /  F ield         | OpenFOAM: The Open Source CFD Toolbox
   \\    /   O peration     | Website:  https://openfoam.org
    \\  /    A nd           | Version:  7
     \\/     M anipulation  |
\*---------------------------------------------------------------------------*/
FoamFile
{
    version     2.0;
    format      ascii;
    class       volVectorField;
    location    "62";
    object      U;
}
// * * * * * * * * * * * * * * * * * * * * * * * * * * * * * * * * * * * * * //

dimensions      [0 1 -1 0 0 0 0];

internalField   nonuniform List<vector> 
175
(
(-0.327942 -0.0161201 -2.103e-19)
(-0.319157 -0.0159953 -4.75363e-19)
(-0.310484 -0.0157589 8.22587e-19)
(-0.301984 -0.0154128 3.42165e-19)
(-0.293716 -0.0149607 8.45548e-19)
(-0.285735 -0.0144084 -6.37575e-19)
(-0.278094 -0.0137638 -1.71984e-19)
(-0.27084 -0.0130368 -2.07041e-18)
(-0.264011 -0.0122398 7.48494e-19)
(-0.257641 -0.0113866 -1.21518e-18)
(-0.251754 -0.0104929 1.45458e-18)
(-0.246363 -0.00957503 -1.00673e-19)
(-0.241475 -0.00864971 9.88986e-19)
(-0.237085 -0.00773307 -1.68665e-18)
(-0.23318 -0.00684003 1.08952e-18)
(-0.229741 -0.00598383 -1.01984e-18)
(-0.22674 -0.0051755 -8.12344e-19)
(-0.224147 -0.00442378 -8.16705e-19)
(-0.323724 -0.0173536 -1.15885e-19)
(-0.315052 -0.0172132 -2.25247e-19)
(-0.306496 -0.0169524 5.66931e-19)
(-0.298115 -0.0165733 3.0835e-19)
(-0.289968 -0.0160802 4.20034e-19)
(-0.282109 -0.0154794 -1.17995e-19)
(-0.274589 -0.0147796 -1.43383e-19)
(-0.267455 -0.0139916 -1.5198e-18)
(-0.260744 -0.0131289 -2.02083e-20)
(-0.254489 -0.0122068 -6.18716e-19)
(-0.248711 -0.011242 9.53927e-19)
(-0.243425 -0.0102525 2.86686e-19)
(-0.238633 -0.00925622 6.44631e-19)
(-0.234331 -0.00827058 -1.62363e-18)
(-0.230506 -0.00731161 3.12045e-19)
(-0.227136 -0.00639341 -9.49653e-19)
(-0.224194 -0.00552771 -8.54389e-19)
(-0.221648 -0.00472385 -1.98394e-19)
(-0.319207 -0.0185585 -5.7862e-20)
(-0.310657 -0.0184015 3.33311e-21)
(-0.302226 -0.0181155 3.9904e-19)
(-0.293973 -0.0177029 -1.33915e-19)
(-0.285954 -0.0171684 3.43474e-20)
(-0.278225 -0.0165189 3.293e-19)
(-0.270835 -0.0157639 -1.12791e-19)
(-0.263829 -0.0149153 -1.24801e-18)
(-0.257244 -0.0139877 -7.14619e-19)
(-0.251111 -0.0129975 -1.22693e-19)
(-0.24545 -0.011963 6.56997e-19)
(-0.240273 -0.0109034 -8.39369e-20)
(-0.235584 -0.00983801 3.71008e-19)
(-0.231376 -0.00878546 -1.88265e-18)
(-0.227634 -0.00776288 -3.20137e-19)
(-0.224337 -0.00678523 -9.95217e-19)
(-0.221456 -0.00586496 -9.62866e-19)
(-0.218959 -0.00501185 -4.11776e-19)
(-0.314398 -0.0197486 -8.38717e-21)
(-0.305978 -0.0195741 2.58096e-19)
(-0.297679 -0.0192622 3.36401e-19)
(-0.289561 -0.0188155 -1.83279e-19)
(-0.28168 -0.0182391 -3.09497e-19)
(-0.274089 -0.0175406 3.02182e-19)
(-0.266836 -0.0167302 -1.66245e-19)
(-0.259966 -0.015821 -1.17263e-18)
(-0.253514 -0.0148286 -7.36822e-19)
(-0.24751 -0.0137707 3.73623e-19)
(-0.241972 -0.0126671 4.587e-19)
(-0.236912 -0.0115382 -4.95156e-19)
(-0.23233 -0.0104047 1.41632e-19)
(-0.22822 -0.00928651 -1.6765e-18)
(-0.224566 -0.0082017 -1.22556e-19)
(-0.221344 -0.00716615 4.30068e-19)
(-0.218526 -0.006193 -1.21304e-18)
(-0.216079 -0.00529244 -6.14681e-19)
(-0.309301 -0.0209202 6.79528e-20)
(-0.301018 -0.0207276 2.96392e-19)
(-0.292861 -0.0203891 3.25087e-19)
(-0.284886 -0.0199077 -3.19788e-19)
(-0.27715 -0.019289 -2.6385e-19)
(-0.269704 -0.0185411 3.45843e-19)
(-0.262597 -0.0176753 3.17714e-19)
(-0.25587 -0.0167056 -5.75269e-19)
(-0.249559 -0.0156487 -8.94737e-19)
(-0.24369 -0.0145237 9.89619e-19)
(-0.238281 -0.0133518 2.98965e-19)
(-0.233343 -0.0121547 -2.5929e-19)
(-0.228874 -0.0109544 -6.07058e-20)
(-0.224866 -0.00977205 -8.83409e-19)
(-0.221303 -0.00862672 9.24713e-20)
(-0.218159 -0.00753514 1.97707e-18)
(-0.215406 -0.00651105 -8.33335e-19)
(-0.21301 -0.00556504 -3.60422e-20)
(-0.303924 -0.0220705 1.66337e-19)
(-0.295786 -0.0218589 9.61619e-20)
(-0.287777 -0.0214931 3.51323e-19)
(-0.279953 -0.0209764 -1.20109e-19)
(-0.272369 -0.020315 -2.07419e-19)
(-0.265077 -0.0195176 4.73929e-19)
(-0.258122 -0.0185964 8.54755e-19)
(-0.251545 -0.0175663 -1.53088e-19)
(-0.245381 -0.0164454 -1.11927e-18)
(-0.239654 -0.0152541 1.09966e-18)
(-0.23438 -0.0140148 1.75225e-19)
(-0.229569 -0.0127508 -1.56294e-20)
(-0.225218 -0.0114854 -2.78956e-19)
(-0.221316 -0.0102406 -2.62739e-19)
(-0.217846 -0.00903673 4.29623e-19)
(-0.214783 -0.00789126 2.22194e-18)
(-0.212096 -0.00681849 -6.4244e-19)
(-0.20975 -0.00582936 6.15019e-19)
(-0.298271 -0.0231975 1.2612e-19)
(-0.290285 -0.0229661 -1.05729e-19)
(-0.282432 -0.0225724 5.51354e-20)
(-0.274767 -0.0220199 -3.75218e-19)
(-0.267343 -0.0213154 -2.02464e-19)
(-0.260211 -0.0204683 1.14512e-19)
(-0.253415 -0.0194917 9.00053e-19)
(-0.246996 -0.0184017 2.25843e-19)
(-0.240985 -0.0172174 -8.24664e-19)
(-0.235405 -0.0159607 7.35338e-19)
(-0.230273 -0.0146552 5.66912e-21)
(-0.225593 -0.0133258 2.0921e-19)
(-0.221363 -0.0119968 -5.10579e-19)
(-0.217571 -0.0106915 -4.58269e-19)
(-0.214197 -0.00943131 2.21215e-20)
(-0.211216 -0.00823426 1.92694e-18)
(-0.208595 -0.00711529 1.12637e-19)
(-0.2063 -0.00608557 5.77704e-19)
(-0.292351 -0.0243021 1.24494e-19)
(-0.284524 -0.02405 -3.42818e-19)
(-0.276833 -0.0236274 -2.22826e-19)
(-0.269333 -0.0230385 -7.1629e-19)
(-0.262076 -0.0222903 -2.00743e-19)
(-0.255111 -0.0213933 3.53576e-19)
(-0.248482 -0.0203612 1.13185e-18)
(-0.242226 -0.0192113 -7.60843e-20)
(-0.236374 -0.0179641 -6.61053e-19)
(-0.230948 -0.0166427 4.79208e-19)
(-0.225962 -0.0152721 -2.4904e-19)
(-0.221418 -0.0138785 5.1496e-19)
(-0.217313 -0.0124876 -8.9948e-19)
(-0.213633 -0.0111239 1.3816e-19)
(-0.210357 -0.00980937 -2.8101e-19)
(-0.207459 -0.00856305 1.95414e-18)
(-0.204905 -0.00740037 8.17254e-19)
(-0.20266 -0.0063327 6.41098e-19)
(-0.286168 -0.0253945 1.52205e-19)
(-0.278507 -0.0251202 -3.61143e-19)
(-0.270986 -0.0246674 -5.67657e-19)
(-0.263658 -0.0240407 -7.74128e-19)
(-0.256574 -0.0232476 -1.97409e-19)
(-0.249783 -0.0222995 6.96327e-19)
(-0.243327 -0.021211 9.79331e-19)
(-0.237241 -0.0200006 1.69186e-19)
(-0.231554 -0.01869 1.31933e-19)
(-0.226286 -0.0173037 3.6766e-19)
(-0.22145 -0.0158684 -5.81058e-19)
(-0.217047 -0.0144112 8.55802e-19)
(-0.21307 -0.0129593 -1.45468e-18)
(-0.209504 -0.0115383 -1.09395e-20)
(-0.206328 -0.0101711 -6.92034e-19)
(-0.203513 -0.0088772 1.49895e-18)
(-0.201025 -0.00767271 1.61198e-18)
(-0.198828 -0.00656916 7.8178e-19)
(-0.27973 -0.0264709 2.3809e-19)
(-0.272241 -0.0261742 -1.78007e-19)
(-0.264896 -0.025691 -6.43874e-19)
(-0.257746 -0.0250264 -4.93891e-19)
(-0.250843 -0.0241885 -1.41643e-19)
(-0.244232 -0.0231894 5.34256e-19)
(-0.237954 -0.0220448 9.17465e-19)
(-0.232043 -0.0207744 -2.56407e-19)
(-0.239781 -0.00711498 -1.21439e-18)
(-0.235794 -0.00629786 3.04141e-18)
(-0.232283 -0.00551352 -4.49949e-19)
(-0.22922 -0.00477216 -1.75646e-18)
(-0.226576 -0.00408175 -8.04835e-19)
)
;

boundaryField
{
    inlet
    {
        type            uniformFixedValue;
        uniformValue    constant (1 0 0);
        value           nonuniform 0();
    }
    outlet
    {
        type            pressureInletOutletVelocity;
        value           nonuniform 0();
    }
    polygon
    {
        type            fixedValue;
        value           nonuniform 0();
    }
    top
    {
        type            symmetryPlane;
    }
    bottom
    {
        type            symmetryPlane;
    }
    outside
    {
        type            zeroGradient;
    }
    procBoundary21to13
    {
        type            processor;
        value           nonuniform List<vector> 
19
(
(-0.226527 -0.0194011 1.90096e-19)
(-0.221423 -0.017951 3.18565e-19)
(-0.216741 -0.0164518 -2.14419e-19)
(-0.212481 -0.0149325 1.4167e-18)
(-0.208635 -0.0134212 -1.47212e-18)
(-0.205186 -0.0119446 7.07864e-19)
(-0.20211 -0.0105266 -4.04421e-19)
(-0.199378 -0.00918736 1.22598e-18)
(-0.196955 -0.00794311 2.68387e-18)
(-0.194805 -0.00680562 9.72811e-19)
(-0.259967 -0.0294178 1.05022e-19)
(-0.253034 -0.0290631 1.92934e-19)
(-0.246254 -0.028501 -1.27579e-19)
(-0.239678 -0.0277376 2.18306e-19)
(-0.233349 -0.0267825 -9.80818e-21)
(-0.227312 -0.0256499 6.17513e-19)
(-0.221601 -0.0243581 1.03376e-18)
(-0.226527 -0.0194011 1.90096e-19)
(-0.216246 -0.0229298 2.22321e-19)
)
;
    }
    procBoundary21to20
    {
        type            processor;
        value           nonuniform List<vector> 8((-0.219462 -0.00398836 7.54769e-20) (-0.216809 -0.00423267 -1.59906e-19) (-0.213966 -0.00447138 -3.74851e-19) (-0.210933 -0.00470418 -6.29256e-19) (-0.20771 -0.00493104 -9.79888e-19) (-0.204294 -0.00515238 1.43608e-19) (-0.200686 -0.00536734 1.2774e-18) (-0.196885 -0.00557384 1.71161e-18));
    }
    procBoundary21to22
    {
        type            processor;
        value           nonuniform List<vector> 10((-0.336777 -0.0161332 -1.28022e-19) (-0.332449 -0.0173734 -1.24596e-19) (-0.327815 -0.0185863 -2.36877e-19) (-0.32288 -0.0197851 -3.04758e-19) (-0.317651 -0.0209664 -3.46731e-19) (-0.312133 -0.0221271 -3.60092e-19) (-0.306333 -0.0232656 -3.48782e-19) (-0.300258 -0.0243828 -3.19881e-19) (-0.293914 -0.0254891 -3.4633e-19) (-0.287309 -0.0265797 -3.3915e-19));
    }
    procBoundary21to28
    {
        type            processor;
        value           nonuniform List<vector> 2((-0.221925 -0.00373484 2.9152e-19) (-0.224315 -0.00344802 5.96066e-19));
    }
    procBoundary21to29
    {
        type            processor;
        value           nonuniform List<vector> 
19
(
(-0.332138 -0.0147251 -3.50198e-19)
(-0.323237 -0.0146165 -5.65113e-19)
(-0.314445 -0.0144063 9.52026e-19)
(-0.305823 -0.0140959 4.22654e-19)
(-0.297431 -0.0136887 9.22423e-19)
(-0.289326 -0.0131899 -7.96732e-19)
(-0.281561 -0.0126065 -2.20667e-19)
(-0.274183 -0.0119474 -2.34591e-18)
(-0.267235 -0.0112236 1.04694e-18)
(-0.260748 -0.0104478 -1.33499e-18)
(-0.254748 -0.00963408 2.25943e-18)
(-0.249251 -0.00879731 -1.42866e-18)
(-0.244263 -0.0079527 7.38174e-19)
(-0.242379 -0.00641687 7.92377e-19)
(-0.23831 -0.00568115 3.99608e-18)
(-0.234726 -0.00497427 -6.91996e-20)
(-0.231601 -0.00430543 -1.24726e-18)
(-0.228905 -0.00368183 -8.31188e-19)
(-0.244263 -0.0079527 7.38174e-19)
)
;
    }
}


// ************************************************************************* //
