/*--------------------------------*- C++ -*----------------------------------*\
  =========                 |
  \\      /  F ield         | OpenFOAM: The Open Source CFD Toolbox
   \\    /   O peration     | Website:  https://openfoam.org
    \\  /    A nd           | Version:  7
     \\/     M anipulation  |
\*---------------------------------------------------------------------------*/
FoamFile
{
    version     2.0;
    format      ascii;
    class       volVectorField;
    location    "94";
    object      U;
}
// * * * * * * * * * * * * * * * * * * * * * * * * * * * * * * * * * * * * * //

dimensions      [0 1 -1 0 0 0 0];

internalField   nonuniform List<vector> 
7360
(
(-0.315959 -1.97751e-05 4.9155e-20)
(-0.316038 -8.43632e-05 1.63473e-19)
(-0.316261 -0.000185469 2.29999e-19)
(-0.316665 -0.000269933 1.03064e-18)
(-0.317185 -0.000319979 -4.12419e-19)
(-0.317756 -0.000329787 9.92453e-19)
(-0.318312 -0.000299554 8.03563e-19)
(-0.31879 -0.000234002 -6.86039e-19)
(-0.319139 -0.000139634 1.76844e-18)
(-0.319319 -2.28817e-05 2.6456e-18)
(-0.319302 0.000108102 3.0844e-19)
(-0.319063 0.000250707 1.97236e-18)
(-0.318589 0.000399406 2.02232e-18)
(-0.317875 0.000550449 2.93624e-18)
(-0.316919 0.000700882 5.37154e-19)
(-0.315725 0.000848283 2.92905e-18)
(-0.3143 0.000990718 7.04981e-18)
(-0.312652 0.00112666 -1.3081e-18)
(-0.310794 0.0012549 4.41558e-18)
(-0.308739 0.0013745 8.37611e-18)
(-0.3065 0.00148468 -9.75411e-19)
(-0.304095 0.00158483 6.95022e-19)
(-0.301539 0.00167445 6.0642e-18)
(-0.29885 0.0017531 -1.40004e-18)
(-0.296045 0.00182045 1.6715e-18)
(-0.293144 0.00187622 6.8385e-18)
(-0.290165 0.00192024 1.11049e-18)
(-0.287126 0.00195242 5.44655e-18)
(-0.284047 0.00197276 1.07053e-17)
(-0.280947 0.00198142 -4.49184e-19)
(-0.277845 0.00197866 3.14088e-18)
(-0.274757 0.00196486 2.25079e-18)
(-0.271701 0.00194053 -8.17301e-19)
(-0.268693 0.0019063 4.25157e-18)
(-0.265748 0.00186289 1.15591e-18)
(-0.262881 0.00181108 2.80982e-19)
(-0.260102 0.00175173 3.26368e-18)
(-0.257424 0.00168573 1.06284e-18)
(-0.254855 0.00161397 4.04839e-18)
(-0.252404 0.00153737 1.87115e-18)
(-0.250078 0.00145684 2.04221e-18)
(-0.247881 0.00137323 9.69961e-18)
(-0.245817 0.0012874 3.78185e-18)
(-0.243888 0.00120015 1.72775e-18)
(-0.242096 0.00111224 1.92672e-19)
(-0.240441 0.00102437 -3.96928e-18)
(-0.238921 0.000937211 7.60543e-18)
(-0.237535 0.00085137 4.70895e-19)
(-0.236279 0.000767406 -2.5832e-18)
(-0.235149 0.000685819 9.37424e-18)
(-0.234142 0.00060706 3.77832e-18)
(-0.233251 0.00053153 -2.28302e-18)
(-0.232472 0.00045958 -6.54162e-19)
(-0.231797 0.000391514 3.49058e-18)
(-0.231222 0.000327594 2.64218e-19)
(-0.230738 0.000268056 2.4507e-18)
(-0.23034 0.000213067 1.42979e-18)
(-0.230019 0.000162791 7.63797e-18)
(-0.229769 0.000117365 4.26431e-18)
(-0.229582 7.6921e-05 8.48106e-19)
(-0.229451 4.15368e-05 7.06397e-18)
(-0.229369 1.08331e-05 8.29149e-18)
(-0.229329 -1.70771e-05 3.38026e-18)
(-0.229323 -4.01072e-05 -2.03615e-19)
(-0.229342 -5.60133e-05 -3.86039e-18)
(-0.229381 -6.65989e-05 -6.85314e-18)
(-0.229431 -7.20726e-05 -1.01788e-18)
(-0.229484 -7.23948e-05 1.29966e-18)
(-0.229532 -6.73344e-05 3.08561e-18)
(-0.229567 -5.64419e-05 -3.95437e-19)
(-0.22958 -3.76358e-05 -5.18446e-18)
(-0.229563 -9.7036e-06 -3.98276e-18)
(-0.229504 2.25059e-05 -2.15012e-18)
(-0.229391 6.00517e-05 -6.81697e-18)
(-0.229213 0.000105885 1.66742e-18)
(-0.228956 0.00016123 -6.14361e-19)
(-0.228604 0.000227173 -3.89094e-18)
(-0.22814 0.000305198 -5.34883e-19)
(-0.227543 0.000397112 1.13791e-18)
(-0.226789 0.000505175 -2.11903e-18)
(-0.225851 0.000632216 -1.3065e-18)
(-0.224696 0.000781773 8.29741e-19)
(-0.223285 0.000958282 -1.09897e-17)
(-0.221573 0.00116735 -5.50363e-18)
(-0.219503 0.00141609 -5.27696e-18)
(-0.217008 0.00171368 1.02323e-18)
(-0.214003 0.00207201 -2.09859e-18)
(-0.21039 0.00250665 8.44123e-18)
(-0.206026 0.00303873 1.23601e-17)
(-0.200781 0.00369486 1.91287e-19)
(-0.194363 0.00451883 2.15903e-17)
(-0.186685 0.00554236 5.78048e-18)
(-0.176972 0.00690311 8.6811e-18)
(-0.165655 0.0085021 6.52532e-18)
(-0.15024 0.0109492 -3.28029e-18)
(-0.133277 0.0132001 1.24331e-20)
(-0.108493 0.0177824 1.03998e-17)
(-0.0813504 0.0197716 -1.05758e-17)
(-0.0465201 0.0235467 1.49006e-17)
(-0.0106306 0.0173641 -5.53273e-19)
(-0.319147 -6.25687e-06 -4.30167e-20)
(-0.319212 -2.74103e-05 7.73804e-20)
(-0.319411 -6.03081e-05 -2.31696e-19)
(-0.319777 -8.79248e-05 -3.09302e-20)
(-0.320255 -0.000104291 4.65262e-20)
(-0.320781 -0.000107464 -9.76428e-19)
(-0.321292 -9.7489e-05 5.27195e-19)
(-0.321727 -7.59052e-05 -1.64503e-19)
(-0.322035 -4.48588e-05 1.23149e-18)
(-0.322175 -6.40674e-06 -2.3237e-19)
(-0.322119 3.64898e-05 1.91571e-19)
(-0.321842 8.30731e-05 -4.64816e-19)
(-0.321331 0.00013161 -4.33191e-19)
(-0.320579 0.000180888 -3.12464e-19)
(-0.319585 0.00022995 -1.31109e-18)
(-0.318352 0.000278018 -1.19064e-18)
(-0.316887 0.000324477 -1.10598e-18)
(-0.315199 0.000368849 -3.65036e-18)
(-0.3133 0.000410757 3.44866e-18)
(-0.311203 0.000449908 4.56281e-18)
(-0.308922 0.000486064 -1.24263e-18)
(-0.306474 0.000519036 1.37917e-18)
(-0.303876 0.000548665 1.46235e-18)
(-0.301144 0.000574819 9.90864e-19)
(-0.298296 0.000597387 -3.72629e-18)
(-0.295353 0.000616282 6.91428e-18)
(-0.292331 0.000631438 5.14133e-18)
(-0.289251 0.000642817 4.79716e-18)
(-0.286131 0.000650413 5.22105e-18)
(-0.282991 0.000654253 1.08295e-18)
(-0.279848 0.000654405 -5.88044e-19)
(-0.276722 0.00065097 -4.28602e-18)
(-0.273629 0.000644091 -1.50528e-18)
(-0.270585 0.000633939 3.99286e-18)
(-0.267606 0.00062072 7.01961e-18)
(-0.264706 0.000604661 -3.24218e-19)
(-0.261896 0.000586013 1.33308e-18)
(-0.259189 0.000565036 -1.37795e-18)
(-0.256593 0.000541998 -1.96851e-18)
(-0.254117 0.000517172 2.77664e-19)
(-0.251767 0.000490829 3.27317e-18)
(-0.24955 0.000463236 6.1862e-18)
(-0.247468 0.000434653 7.03599e-18)
(-0.245523 0.000405332 -2.26745e-19)
(-0.243718 0.000375513 -4.70541e-20)
(-0.242053 0.000345426 -5.28402e-18)
(-0.240525 0.00031529 4.18462e-18)
(-0.239134 0.00028531 -1.96242e-18)
(-0.237876 0.000255682 -1.25972e-18)
(-0.236748 0.000226588 2.93646e-18)
(-0.235745 0.000198197 8.64965e-19)
(-0.234861 0.00017067 -2.7643e-18)
(-0.234092 0.000144154 -5.93988e-18)
(-0.233431 0.000118787 6.60078e-18)
(-0.232872 9.46994e-05 7.22929e-18)
(-0.232408 7.19922e-05 6.68847e-18)
(-0.232032 5.07995e-05 1.9322e-18)
(-0.231737 3.12244e-05 9.17634e-18)
(-0.231516 1.33568e-05 -4.19344e-18)
(-0.231362 -2.71811e-06 -5.01981e-18)
(-0.231266 -1.70023e-05 6.15428e-18)
(-0.231223 -2.9882e-05 1.1808e-17)
(-0.231225 -4.05032e-05 4.61088e-18)
(-0.231263 -4.86033e-05 -7.16864e-18)
(-0.231331 -5.53485e-05 -4.42668e-18)
(-0.231421 -6.05945e-05 -4.14363e-18)
(-0.231524 -6.34203e-05 -1.03015e-17)
(-0.231634 -6.35439e-05 3.78528e-18)
(-0.231742 -6.10407e-05 2.66375e-18)
(-0.23184 -5.66094e-05 6.37849e-19)
(-0.23192 -5.09698e-05 -6.81931e-19)
(-0.231971 -4.3303e-05 -7.18989e-18)
(-0.231983 -3.11486e-05 -1.56104e-18)
(-0.231946 -1.78154e-05 -1.65185e-18)
(-0.231844 -1.85139e-06 -5.81616e-18)
(-0.231667 1.73303e-05 -6.92119e-18)
(-0.231397 4.01165e-05 -8.98399e-18)
(-0.231017 6.68874e-05 -1.01588e-18)
(-0.230505 9.82467e-05 1.35827e-18)
(-0.229839 0.000134943 -1.22816e-19)
(-0.228989 0.000177924 -6.568e-19)
(-0.227922 0.000228392 8.85293e-18)
(-0.226599 0.000287873 -9.72438e-19)
(-0.224973 0.000358305 -9.51172e-18)
(-0.222986 0.000442163 -4.24156e-18)
(-0.22057 0.000542627 7.89094e-18)
(-0.217636 0.000663829 1.20451e-18)
(-0.214083 0.000811128 7.06925e-18)
(-0.209764 0.000991874 7.99608e-18)
(-0.204541 0.00121496 1.53985e-18)
(-0.198113 0.00149578 7.21074e-18)
(-0.190381 0.00184383 1.4985e-17)
(-0.18055 0.00230899 3.60599e-18)
(-0.169012 0.00285673 1.22691e-17)
(-0.153286 0.00370612 -5.22085e-18)
(-0.135719 0.00447497 -1.09481e-18)
(-0.11029 0.00604399 1.15234e-17)
(-0.0819922 0.00672646 -4.94751e-18)
(-0.0458511 0.00794392 -1.36185e-18)
(-0.0101158 0.00578349 -2.45045e-19)
(-0.300685 -6.64173e-05 -3.73846e-20)
(-0.300853 -0.000240652 5.4436e-19)
(-0.301209 -0.000506508 2.29515e-20)
(-0.301809 -0.000720445 1.16804e-18)
(-0.302546 -0.000845016 1.59596e-19)
(-0.303336 -0.000869889 3.93852e-20)
(-0.304106 -0.000798593 -6.99956e-19)
(-0.30479 -0.000644318 -2.61798e-18)
(-0.305334 -0.000423222 1.2043e-18)
(-0.305702 -0.000151351 9.40898e-19)
(-0.305866 0.000154612 -2.43524e-18)
(-0.305807 0.00048463 5.53069e-19)
(-0.305512 0.000828105 -2.31895e-18)
(-0.304977 0.00117659 3.2708e-18)
(-0.304202 0.00152334 -1.63645e-18)
(-0.303192 0.00186287 8.80471e-19)
(-0.301954 0.0021908 2.12647e-18)
(-0.300497 0.00250369 -4.39842e-18)
(-0.298833 0.00279881 3.00081e-18)
(-0.296974 0.00307401 -1.32681e-19)
(-0.294935 0.00332753 1.37648e-18)
(-0.29273 0.00355795 3.74387e-18)
(-0.290376 0.00376408 -8.34452e-19)
(-0.287889 0.00394495 -4.3471e-18)
(-0.285287 0.00409972 2.51785e-18)
(-0.282586 0.00422778 1.67096e-18)
(-0.279806 0.00432868 5.28357e-18)
(-0.276964 0.00440222 6.72546e-18)
(-0.274079 0.00444844 3.77343e-18)
(-0.271169 0.00446768 5.47065e-18)
(-0.268251 0.0044606 1.85403e-18)
(-0.265342 0.00442813 -2.53174e-18)
(-0.26246 0.00437152 -4.76755e-18)
(-0.25962 0.00429226 -8.8921e-19)
(-0.256835 0.00419207 4.76065e-18)
(-0.25412 0.00407287 9.7542e-19)
(-0.251485 0.00393669 4.42147e-18)
(-0.248942 0.00378564 2.24766e-18)
(-0.246499 0.00362188 4.29778e-19)
(-0.244163 0.00344758 1.25574e-18)
(-0.24194 0.00326484 -2.16638e-18)
(-0.239836 0.00307572 3.37021e-18)
(-0.237853 0.0028822 -3.43028e-19)
(-0.235994 0.00268614 1.24268e-18)
(-0.234258 0.00248928 -2.16327e-18)
(-0.232646 0.00229327 4.64039e-18)
(-0.231155 0.00209959 4.74533e-18)
(-0.229784 0.00190962 -5.96644e-19)
(-0.22853 0.00172462 6.41447e-18)
(-0.227387 0.00154567 -4.07018e-19)
(-0.226352 0.00137375 6.22286e-18)
(-0.225418 0.00120971 5.10762e-18)
(-0.224581 0.00105427 2.22941e-18)
(-0.223834 0.000908039 -5.36526e-19)
(-0.22317 0.000771529 2.1383e-18)
(-0.222582 0.000645144 7.93381e-19)
(-0.222064 0.000529205 6.30062e-18)
(-0.221608 0.000423962 -2.17388e-19)
(-0.221207 0.000329599 8.46902e-19)
(-0.220854 0.000246251 5.71919e-18)
(-0.220542 0.000173964 9.44106e-19)
(-0.220263 0.000112822 -2.00546e-19)
(-0.220009 6.40899e-05 -6.34325e-18)
(-0.219772 2.64525e-05 1.37719e-19)
(-0.219548 -2.00267e-06 7.21322e-18)
(-0.219328 -1.9053e-05 9.24282e-19)
(-0.219105 -2.44286e-05 -1.9351e-18)
(-0.21887 -1.79642e-05 5.69214e-18)
(-0.218615 1.05625e-06 1.36182e-18)
(-0.218331 3.34331e-05 1.67984e-18)
(-0.218009 7.77249e-05 8.98529e-18)
(-0.217641 0.00013373 8.69188e-18)
(-0.217219 0.000207374 8.99787e-18)
(-0.21673 0.000298931 6.48607e-18)
(-0.216162 0.000409503 1.65941e-18)
(-0.215503 0.000541468 1.19523e-17)
(-0.214737 0.000697715 1.13125e-17)
(-0.213848 0.000881718 5.31897e-18)
(-0.212817 0.00109777 6.17634e-18)
(-0.211621 0.00135111 -4.03978e-19)
(-0.210236 0.0016482 -3.08155e-18)
(-0.208632 0.00199706 -7.02058e-19)
(-0.206774 0.00240769 -5.08161e-18)
(-0.204622 0.00289267 -3.58912e-18)
(-0.202127 0.00346789 -5.52458e-18)
(-0.199232 0.00415378 -4.86099e-18)
(-0.195864 0.00497665 4.12521e-18)
(-0.191943 0.00597111 8.15153e-18)
(-0.187351 0.00718329 1.36899e-18)
(-0.181986 0.00867328 8.6878e-18)
(-0.175615 0.0105322 1.61108e-17)
(-0.168203 0.0128427 5.23155e-18)
(-0.159085 0.01587 9.02811e-18)
(-0.148854 0.0194538 1.36914e-17)
(-0.13504 0.0248264 5.25299e-18)
(-0.12108 0.0297393 8.59758e-18)
(-0.0995601 0.0397815 8.53363e-18)
(-0.0784643 0.0432041 1.95247e-18)
(-0.0496322 0.0520395 6.28616e-19)
(-0.0128596 0.0352078 5.76902e-18)
(-0.309715 -3.88331e-05 -1.32615e-20)
(-0.309827 -0.000154141 4.77873e-19)
(-0.310101 -0.000332442 -3.17526e-19)
(-0.310581 -0.000479494 1.20255e-18)
(-0.311188 -0.000566593 8.32952e-19)
(-0.311848 -0.000584847 1.3405e-18)
(-0.312491 -0.000535388 1.4542e-18)
(-0.313053 -0.000426661 -2.16889e-18)
(-0.313483 -0.00026973 4.70071e-19)
(-0.31374 -7.55818e-05 2.83453e-18)
(-0.313798 0.000142952 -3.07623e-19)
(-0.313633 0.000379632 7.126e-19)
(-0.313233 0.000626461 -1.14988e-19)
(-0.312593 0.000877315 1.82968e-18)
(-0.311712 0.00112724 2.06922e-18)
(-0.310593 0.00137219 3.65549e-18)
(-0.309245 0.00160895 5.97574e-18)
(-0.307676 0.00183497 -3.56922e-18)
(-0.305897 0.00204826 4.29746e-18)
(-0.303922 0.0022472 3.03976e-18)
(-0.301766 0.00243052 3.20371e-18)
(-0.299443 0.00259718 1.8832e-18)
(-0.29697 0.00274629 -8.72582e-19)
(-0.294364 0.00287714 8.2526e-19)
(-0.291643 0.00298914 1.31038e-18)
(-0.288824 0.00308182 5.5105e-18)
(-0.285927 0.00315487 5.49737e-18)
(-0.282969 0.00320812 4.28672e-18)
(-0.27997 0.0032416 8.00713e-18)
(-0.276949 0.00325554 2.54712e-18)
(-0.273922 0.0032504 1.9865e-18)
(-0.270909 0.00322684 2.74394e-19)
(-0.267925 0.00318573 -1.83618e-18)
(-0.264986 0.00312813 7.65579e-19)
(-0.262108 0.00305527 4.81825e-18)
(-0.259303 0.00296848 1.04109e-18)
(-0.256585 0.00286923 -5.68215e-19)
(-0.253963 0.00275903 3.96211e-18)
(-0.251446 0.0026394 4.83358e-18)
(-0.249044 0.0025119 4.58456e-18)
(-0.246761 0.00237804 3.53401e-18)
(-0.244603 0.0022393 4.36788e-18)
(-0.242573 0.00209708 1.53893e-18)
(-0.240674 0.00195275 4.3849e-18)
(-0.238907 0.00180756 -5.91716e-20)
(-0.23727 0.00166271 3.44188e-18)
(-0.235764 0.00151928 8.43679e-19)
(-0.234385 0.00137827 8.34808e-20)
(-0.233131 0.00124062 4.44553e-18)
(-0.231998 0.00110712 6.65674e-18)
(-0.230981 0.000978519 7.47845e-18)
(-0.230075 0.000855442 5.28957e-18)
(-0.229273 0.000738447 4.72456e-18)
(-0.228571 0.000628009 5.10815e-18)
(-0.227961 0.000524527 5.14559e-18)
(-0.227437 0.000428333 1.57628e-18)
(-0.226992 0.000339698 2.51515e-18)
(-0.226618 0.000258841 2.61121e-18)
(-0.226308 0.000185935 1.78109e-18)
(-0.226056 0.000121117 6.38855e-18)
(-0.225853 6.45137e-05 3.16103e-18)
(-0.225692 1.67855e-05 -1.60802e-18)
(-0.225567 -2.32159e-05 3.35304e-18)
(-0.225471 -5.73011e-05 4.91188e-18)
(-0.225395 -8.52317e-05 6.28445e-18)
(-0.22533 -0.000104 -9.32093e-19)
(-0.22527 -0.000112947 -6.09924e-18)
(-0.225208 -0.000111758 1.4287e-18)
(-0.225135 -0.000100324 6.79828e-18)
(-0.225044 -7.8807e-05 -4.1555e-18)
(-0.224927 -4.90711e-05 8.33497e-19)
(-0.22477 -1.05473e-05 -3.97815e-18)
(-0.224565 3.70444e-05 -3.74576e-18)
(-0.224302 9.7946e-05 -3.46936e-19)
(-0.223969 0.000173107 -5.15081e-18)
(-0.223552 0.000263918 2.91784e-18)
(-0.223035 0.00037239 -3.50344e-18)
(-0.222402 0.000501038 1.11774e-18)
(-0.221632 0.000653 2.42609e-18)
(-0.220703 0.000832113 -7.21217e-18)
(-0.219587 0.00104314 -2.45194e-18)
(-0.218254 0.00129199 -6.78157e-18)
(-0.216665 0.00158606 -1.31701e-17)
(-0.214778 0.00193465 -4.192e-18)
(-0.21254 0.00234954 -1.10485e-17)
(-0.209886 0.00284585 -2.36077e-18)
(-0.206737 0.00344312 -7.33891e-18)
(-0.203002 0.00416691 -3.58196e-18)
(-0.198549 0.00505167 3.9199e-18)
(-0.193256 0.00614087 -4.82856e-18)
(-0.186858 0.00750469 1.11133e-17)
(-0.179286 0.00919732 -3.76909e-18)
(-0.169803 0.01144 -3.03655e-18)
(-0.15891 0.014083 6.07206e-18)
(-0.144121 0.0181118 -7.00126e-18)
(-0.12835 0.0217687 1.53359e-18)
(-0.104869 0.0292704 -2.34963e-18)
(-0.080124 0.0321632 -1.07897e-17)
(-0.0479787 0.0383253 4.18148e-18)
(-0.0117226 0.0269295 -5.15207e-18)
(-0.275888 -0.000171705 -1.03225e-19)
(-0.276279 -0.000509648 2.28224e-19)
(-0.276911 -0.000996002 8.17765e-19)
(-0.277882 -0.00136181 7.615e-19)
(-0.278999 -0.00156297 -6.79133e-19)
(-0.280157 -0.00159551 -6.56706e-19)
(-0.281273 -0.00147396 -1.61902e-19)
(-0.28228 -0.00122425 -2.0667e-18)
(-0.28313 -0.000873943 -2.74261e-19)
(-0.283789 -0.000448942 1.47602e-18)
(-0.284235 3.08476e-05 -3.60093e-18)
(-0.284455 0.000535477 -8.49206e-20)
(-0.28444 0.00106075 1.58336e-20)
(-0.284186 0.00159233 -1.70765e-18)
(-0.283698 0.00211992 -3.41249e-18)
(-0.282979 0.00263556 1.27997e-19)
(-0.282037 0.00313298 -2.96992e-18)
(-0.280881 0.00360721 -4.59624e-18)
(-0.279523 0.00405434 -3.73045e-18)
(-0.277975 0.00447126 3.85407e-18)
(-0.27625 0.00485544 2.33707e-18)
(-0.274363 0.00520478 -2.10399e-18)
(-0.272326 0.00551754 -3.26726e-18)
(-0.270158 0.00579223 -2.14486e-18)
(-0.267872 0.00602762 -7.91571e-19)
(-0.265486 0.00622273 -3.71689e-18)
(-0.263017 0.00637689 1.54138e-18)
(-0.260481 0.00648977 2.78931e-18)
(-0.257897 0.00656147 7.7402e-19)
(-0.25528 0.00659255 6.11453e-18)
(-0.252647 0.00658403 1.68024e-18)
(-0.250015 0.00653743 1.03532e-18)
(-0.2474 0.00645472 -4.87208e-18)
(-0.244814 0.00633827 -1.7145e-18)
(-0.242272 0.00619078 2.34103e-19)
(-0.239786 0.0060152 3.56331e-19)
(-0.237367 0.00581469 1.63777e-18)
(-0.235023 0.00559249 8.79008e-19)
(-0.232763 0.0053519 -4.86623e-18)
(-0.230594 0.00509622 -2.79949e-18)
(-0.228519 0.00482867 -1.00377e-18)
(-0.226543 0.00455237 -1.03808e-18)
(-0.224669 0.0042703 -1.54321e-18)
(-0.222897 0.00398528 -3.83091e-19)
(-0.221227 0.00369996 2.37199e-18)
(-0.219658 0.00341676 1.49674e-18)
(-0.218188 0.00313795 1.21232e-18)
(-0.216814 0.00286557 -1.31967e-18)
(-0.215532 0.00260145 1.99351e-18)
(-0.214337 0.00234724 2.19134e-18)
(-0.213225 0.00210433 7.9842e-21)
(-0.212189 0.00187396 -2.80035e-18)
(-0.211223 0.00165716 1.04011e-18)
(-0.210321 0.00145479 1.4071e-18)
(-0.209475 0.00126753 2.47667e-18)
(-0.20868 0.00109594 8.00947e-19)
(-0.207927 0.000940408 8.08073e-18)
(-0.207209 0.000801238 8.56354e-18)
(-0.20652 0.000678623 1.93152e-18)
(-0.205851 0.000572675 1.59142e-18)
(-0.205195 0.000483453 -7.09189e-18)
(-0.204545 0.000411044 9.46192e-19)
(-0.203894 0.000355704 -8.03157e-18)
(-0.203233 0.000317024 -1.54009e-18)
(-0.202557 0.000294596 -1.55523e-19)
(-0.201856 0.00028896 2.84424e-20)
(-0.201125 0.000301062 -5.41164e-19)
(-0.200355 0.0003316 2.60516e-19)
(-0.199538 0.000381098 2.01012e-18)
(-0.198666 0.000450011 9.9572e-18)
(-0.19773 0.000538889 5.83477e-18)
(-0.196722 0.000649236 5.05607e-18)
(-0.195631 0.000783872 5.13296e-18)
(-0.194448 0.00094516 6.89709e-18)
(-0.193162 0.00113569 5.5333e-18)
(-0.191759 0.00135898 1.41374e-17)
(-0.190227 0.00161934 1.58663e-17)
(-0.188551 0.00192199 7.77862e-18)
(-0.186714 0.00227339 1.8365e-17)
(-0.184697 0.00268129 4.22916e-18)
(-0.182479 0.00315525 1.0389e-18)
(-0.180036 0.00370706 -2.58503e-18)
(-0.177341 0.00435129 -1.02348e-17)
(-0.174363 0.00510615 -1.38012e-17)
(-0.171066 0.00599451 -1.24917e-17)
(-0.16741 0.00704551 -2.20917e-18)
(-0.163347 0.0082963 -9.82273e-18)
(-0.158825 0.00979555 3.21788e-18)
(-0.153777 0.0116065 -9.23367e-18)
(-0.148149 0.0138136 1.16984e-17)
(-0.141816 0.0165307 -2.62904e-18)
(-0.134826 0.0198971 1.13014e-17)
(-0.126756 0.0242084 -2.51904e-19)
(-0.11839 0.0293945 1.21583e-17)
(-0.107569 0.0367765 5.53442e-19)
(-0.0988023 0.0436186 8.41113e-18)
(-0.0832893 0.057094 9.46099e-19)
(-0.0736362 0.0600369 -1.44153e-17)
(-0.053103 0.0741998 -1.25709e-17)
(-0.0164125 0.0421427 -3.60332e-18)
(-0.289247 -0.000109141 -5.43258e-20)
(-0.289505 -0.000357828 4.79825e-19)
(-0.28998 -0.000727349 3.14551e-19)
(-0.290744 -0.00101593 6.90552e-19)
(-0.291652 -0.0011804 -8.02491e-19)
(-0.292612 -0.0012117 -1.2797e-18)
(-0.293542 -0.00111768 -4.09474e-19)
(-0.294376 -0.000917346 -1.59217e-18)
(-0.295064 -0.000632291 1.09824e-19)
(-0.295568 -0.000283497 -7.62132e-19)
(-0.295864 0.000110079 -2.15685e-18)
(-0.295936 0.000528951 1.80474e-18)
(-0.295771 0.000964783 -6.05427e-19)
(-0.295368 0.00140673 2.65535e-18)
(-0.294726 0.00184619 -1.38181e-18)
(-0.293852 0.00227628 1.2779e-19)
(-0.292751 0.00269155 -1.94286e-19)
(-0.291435 0.00308772 -2.95547e-18)
(-0.289913 0.0034614 -8.36663e-19)
(-0.288199 0.00380991 3.75521e-18)
(-0.286306 0.00413105 1.74228e-18)
(-0.284249 0.00442304 8.77772e-19)
(-0.282043 0.00468439 -3.84373e-18)
(-0.279705 0.00491383 -5.34984e-18)
(-0.27725 0.00511033 -1.43307e-19)
(-0.274697 0.00527307 -8.11224e-19)
(-0.272062 0.00540148 2.06359e-18)
(-0.269363 0.00549528 6.15356e-18)
(-0.266619 0.00555455 2.06269e-18)
(-0.263846 0.00557971 4.09769e-18)
(-0.261062 0.0055716 1.65029e-18)
(-0.258284 0.00553144 -2.72137e-19)
(-0.255527 0.00546083 -3.18782e-18)
(-0.252807 0.00536168 -1.27823e-18)
(-0.250137 0.00523622 1.43741e-18)
(-0.24753 0.00508686 4.96536e-19)
(-0.244998 0.00491622 5.07189e-18)
(-0.24255 0.00472699 1.62488e-18)
(-0.240194 0.00452193 -4.24382e-18)
(-0.237938 0.00430378 -9.87759e-19)
(-0.235788 0.00407524 -1.18787e-18)
(-0.233746 0.00383894 -2.29469e-18)
(-0.231817 0.00359737 -3.98939e-18)
(-0.230002 0.0033529 -8.85528e-20)
(-0.228301 0.00310778 3.125e-18)
(-0.226713 0.00286404 2.47213e-18)
(-0.225236 0.00262361 2.25016e-18)
(-0.223868 0.00238823 -3.74764e-18)
(-0.222606 0.00215944 5.63928e-18)
(-0.221444 0.00193865 1.05372e-18)
(-0.220378 0.00172707 2.21371e-18)
(-0.219403 0.00152575 -2.53263e-18)
(-0.218512 0.00133559 7.62644e-19)
(-0.217699 0.00115734 3.98318e-18)
(-0.216957 0.000991604 1.86428e-18)
(-0.21628 0.000838861 5.17798e-19)
(-0.21566 0.000699476 4.84158e-18)
(-0.215091 0.000573713 7.24919e-18)
(-0.214564 0.000461743 1.47096e-18)
(-0.214072 0.000363661 -1.77648e-18)
(-0.213609 0.000279504 -1.85332e-18)
(-0.213167 0.000209269 2.71546e-20)
(-0.212739 0.000152802 -9.15259e-18)
(-0.212317 0.000110699 -1.4725e-18)
(-0.211894 8.37608e-05 2.13833e-18)
(-0.211462 7.05356e-05 6.55647e-19)
(-0.211013 7.0711e-05 -8.63298e-19)
(-0.210541 8.44591e-05 1.96854e-18)
(-0.210038 0.00011241 -3.98903e-18)
(-0.209495 0.000155467 8.71187e-18)
(-0.208903 0.000216234 1.09994e-17)
(-0.208253 0.000296822 1.09824e-17)
(-0.207536 0.000397058 1.15101e-17)
(-0.20674 0.000519023 -4.1201e-19)
(-0.205856 0.000665155 8.5029e-18)
(-0.204869 0.000838473 1.50596e-17)
(-0.203765 0.00104262 1.67167e-17)
(-0.202529 0.00128202 1.21168e-17)
(-0.201143 0.00156215 1.55914e-17)
(-0.199586 0.00188965 3.02431e-18)
(-0.197835 0.00227269 -7.41343e-18)
(-0.195862 0.0027214 5.72282e-18)
(-0.193637 0.00324834 -4.22798e-18)
(-0.191123 0.0038693 -6.04025e-18)
(-0.188278 0.00460415 -6.59783e-18)
(-0.18505 0.00547833 -1.04031e-17)
(-0.18138 0.00652451 -2.84009e-18)
(-0.1772 0.00778545 3.54895e-18)
(-0.172413 0.00931761 -2.27919e-18)
(-0.166941 0.0111948 6.57879e-18)
(-0.160599 0.0135237 1.31947e-17)
(-0.153385 0.0164121 1.48622e-17)
(-0.144735 0.0201574 4.06833e-18)
(-0.135335 0.0246256 8.67057e-18)
(-0.122854 0.0311911 -6.05699e-18)
(-0.111231 0.0371572 -3.24669e-18)
(-0.0923943 0.0492981 2.43688e-18)
(-0.07635 0.0525707 -1.10848e-17)
(-0.0517339 0.063649 -3.75061e-18)
(-0.0144805 0.0394702 1.98423e-19)
(-0.245677 -0.000384294 -4.62265e-20)
(-0.246501 -0.00096587 1.21314e-19)
(-0.247557 -0.00171632 6.70235e-19)
(-0.249044 -0.00223932 6.15627e-19)
(-0.250647 -0.00249854 -1.88001e-18)
(-0.252249 -0.00251643 -5.05562e-19)
(-0.253769 -0.00232751 2.96058e-20)
(-0.255146 -0.00197306 -1.65565e-19)
(-0.256343 -0.00149239 1.55929e-19)
(-0.257334 -0.000919653 -1.53221e-18)
(-0.258101 -0.000281868 -2.79037e-18)
(-0.258639 0.000388965 -8.95388e-19)
(-0.258945 0.00107391 1.32007e-18)
(-0.259018 0.00176502 -3.08528e-18)
(-0.258862 0.00244971 -1.02337e-18)
(-0.258481 0.00311798 3.3929e-18)
(-0.257884 0.00376208 -2.82433e-18)
(-0.25708 0.00437592 -2.86346e-18)
(-0.256079 0.00495471 2.25008e-18)
(-0.254892 0.00549461 9.92723e-19)
(-0.253531 0.00599249 4.02853e-19)
(-0.252009 0.00644573 -1.67677e-19)
(-0.25034 0.00685209 -3.81399e-18)
(-0.248537 0.00720965 2.67822e-18)
(-0.246615 0.00751678 -3.2735e-18)
(-0.244589 0.00777218 -8.41423e-19)
(-0.242473 0.00797494 1.84656e-18)
(-0.240285 0.00812459 1.50275e-18)
(-0.238039 0.00822127 -3.00165e-18)
(-0.235752 0.0082657 2.38948e-18)
(-0.233438 0.00825926 1.1901e-18)
(-0.231113 0.00820398 4.84993e-18)
(-0.22879 0.00810249 3.03175e-18)
(-0.226483 0.00795796 -3.5738e-18)
(-0.224203 0.00777402 -1.51868e-19)
(-0.221962 0.00755465 4.18321e-19)
(-0.219768 0.00730407 -3.15757e-18)
(-0.21763 0.00702662 1.39758e-19)
(-0.215555 0.00672671 -3.00383e-19)
(-0.213546 0.00640868 -5.66048e-18)
(-0.211609 0.00607678 -8.096e-19)
(-0.209746 0.00573512 1.11595e-19)
(-0.207957 0.00538758 3.75335e-19)
(-0.206244 0.00503783 2.58959e-19)
(-0.204604 0.00468926 9.70569e-18)
(-0.203036 0.00434503 2.18389e-18)
(-0.201536 0.00400798 9.22055e-19)
(-0.200101 0.00368076 -2.21542e-20)
(-0.198726 0.00336567 8.0998e-19)
(-0.197406 0.00306476 2.63396e-18)
(-0.196134 0.00277977 -3.33877e-19)
(-0.194904 0.00251217 -4.41236e-18)
(-0.19371 0.00226322 7.55068e-19)
(-0.192544 0.00203389 -2.20917e-18)
(-0.1914 0.00182496 2.12151e-18)
(-0.190269 0.00163701 1.04816e-18)
(-0.189144 0.00147045 3.95743e-18)
(-0.188018 0.00132554 2.95935e-18)
(-0.186883 0.00120242 1.42812e-18)
(-0.185731 0.00110115 3.14617e-18)
(-0.184554 0.00102173 -2.36879e-18)
(-0.183345 0.000964202 2.38024e-18)
(-0.182097 0.000928648 -5.95747e-19)
(-0.180801 0.00091496 9.61839e-20)
(-0.17945 0.000923139 -5.74541e-18)
(-0.178036 0.000953527 -7.77916e-20)
(-0.176552 0.00100688 6.15908e-19)
(-0.174989 0.00108398 -5.8402e-18)
(-0.17334 0.00118568 -2.2177e-18)
(-0.171595 0.00131304 8.5765e-18)
(-0.169747 0.00146752 2.45585e-18)
(-0.167786 0.00165123 1.3658e-18)
(-0.165702 0.00186692 9.76315e-19)
(-0.163487 0.00211771 1.01646e-18)
(-0.161128 0.00240726 -4.05251e-18)
(-0.158615 0.00274017 1.01692e-17)
(-0.155935 0.00312203 4.87041e-18)
(-0.153076 0.00355956 1.13618e-17)
(-0.150024 0.00406108 1.63119e-17)
(-0.146763 0.00463641 3.6188e-18)
(-0.143278 0.00529768 4.13399e-18)
(-0.139552 0.00605971 3.6949e-18)
(-0.135567 0.00694073 -6.32928e-19)
(-0.131304 0.00796331 4.19234e-18)
(-0.126744 0.0091556 -1.49113e-18)
(-0.12187 0.0105531 2.74419e-18)
(-0.116664 0.0122005 -6.83159e-19)
(-0.111116 0.0141559 3.41687e-18)
(-0.10522 0.0164928 7.46925e-19)
(-0.0989966 0.0193089 1.23605e-17)
(-0.0924605 0.0227243 -1.54236e-19)
(-0.0857637 0.0269126 -1.65643e-18)
(-0.0788225 0.0320621 -4.37649e-18)
(-0.0725665 0.0383132 1.76465e-18)
(-0.0655727 0.0463009 1.20919e-17)
(-0.0631141 0.0542777 2.03925e-18)
(-0.0557334 0.0668598 6.86414e-19)
(-0.0624147 0.0692595 -3.40611e-18)
(-0.0512044 0.0828304 -3.75469e-18)
(-0.0329725 0.0363761 -3.79401e-18)
(-0.261163 -0.000262161 -5.30099e-20)
(-0.261741 -0.0007137 3.31191e-19)
(-0.26257 -0.00132896 9.22888e-19)
(-0.263786 -0.00177554 1.16989e-18)
(-0.265139 -0.00200977 -1.55588e-18)
(-0.266515 -0.00203872 -5.55984e-19)
(-0.267831 -0.00188588 -8.31636e-20)
(-0.269022 -0.00158475 -7.6068e-19)
(-0.270045 -0.00116888 -9.16509e-20)
(-0.270869 -0.000668553 2.63211e-20)
(-0.271475 -0.000106492 -3.95119e-18)
(-0.271853 0.000481261 -7.34691e-19)
(-0.271998 0.00108834 4.6766e-19)
(-0.271906 0.0017023 -1.6044e-18)
(-0.271581 0.00231119 -1.73054e-18)
(-0.27103 0.00290594 1.16813e-18)
(-0.270258 0.00347949 -1.84999e-18)
(-0.269276 0.00402627 -2.83483e-18)
(-0.268095 0.00454189 -7.59831e-19)
(-0.266726 0.00502281 1.58037e-18)
(-0.265181 0.00546617 3.7224e-18)
(-0.263475 0.00586959 -2.44473e-19)
(-0.261621 0.00623105 -5.23577e-18)
(-0.259634 0.00654882 -2.57904e-19)
(-0.257529 0.00682145 -1.37812e-18)
(-0.255322 0.00704777 -1.80411e-18)
(-0.253029 0.00722696 3.82105e-18)
(-0.250667 0.00735862 1.85499e-18)
(-0.248251 0.00744283 -7.423e-19)
(-0.245799 0.00748022 5.697e-18)
(-0.243326 0.00747202 1.49989e-18)
(-0.240849 0.00742 2.27445e-18)
(-0.23838 0.00732649 -3.25428e-18)
(-0.235936 0.0071943 -2.17757e-18)
(-0.233527 0.00702664 -2.58887e-19)
(-0.231165 0.00682701 2.13763e-19)
(-0.228861 0.00659914 -5.28831e-19)
(-0.226624 0.00634685 2.63454e-19)
(-0.224459 0.00607403 -1.70943e-18)
(-0.222374 0.00578452 -6.02616e-18)
(-0.220373 0.00548206 -1.21823e-18)
(-0.218459 0.00517029 -4.03246e-19)
(-0.216633 0.00485266 -4.69059e-19)
(-0.214897 0.00453241 -2.74806e-19)
(-0.213249 0.00421258 4.2913e-18)
(-0.211688 0.00389597 1.54963e-18)
(-0.210212 0.00358514 8.40394e-19)
(-0.208817 0.00328244 -3.68446e-19)
(-0.207498 0.00298994 8.91925e-19)
(-0.206252 0.00270946 5.16624e-18)
(-0.205072 0.00244258 -2.94969e-18)
(-0.203952 0.00219066 -6.42004e-18)
(-0.202885 0.00195482 3.64848e-18)
(-0.201866 0.00173598 -4.09439e-20)
(-0.200887 0.00153486 5.30819e-18)
(-0.199941 0.00135201 1.29595e-18)
(-0.19902 0.00118782 8.06888e-18)
(-0.198117 0.00104255 4.77305e-18)
(-0.197225 0.000916343 1.71565e-18)
(-0.196336 0.000809256 5.88573e-18)
(-0.195442 0.000721301 -6.6639e-18)
(-0.194537 0.00065248 4.92306e-18)
(-0.193612 0.000602889 -2.5354e-18)
(-0.192661 0.000572628 -8.50791e-19)
(-0.191675 0.000561901 -2.10046e-18)
(-0.190648 0.000570684 -1.44451e-19)
(-0.189571 0.00059935 -1.68821e-21)
(-0.188438 0.00064842 -1.70929e-18)
(-0.187239 0.00071867 -5.70455e-18)
(-0.185967 0.000811171 5.89358e-18)
(-0.184613 0.000927587 3.38596e-18)
(-0.183167 0.00106985 2.40988e-18)
(-0.181622 0.00123996 2.40689e-18)
(-0.179966 0.00144056 2.56798e-18)
(-0.178188 0.00167482 7.05901e-18)
(-0.176278 0.00194681 8.96955e-18)
(-0.174221 0.00226145 7.8892e-18)
(-0.172005 0.00262468 7.40265e-18)
(-0.169614 0.00304388 1.89032e-17)
(-0.16703 0.00352781 4.24334e-18)
(-0.164236 0.00408733 9.49534e-18)
(-0.161211 0.00473577 8.51007e-18)
(-0.157932 0.00548956 -2.93829e-18)
(-0.154374 0.00636924 -1.15003e-17)
(-0.15051 0.00740052 -4.84366e-18)
(-0.146309 0.0086161 6.94555e-18)
(-0.14174 0.0100576 -2.59582e-18)
(-0.136769 0.0117795 1.01859e-17)
(-0.131359 0.0138523 -2.41625e-18)
(-0.125492 0.016371 7.46372e-18)
(-0.119111 0.0194603 -9.27692e-19)
(-0.112316 0.0232849 -5.7945e-18)
(-0.10485 0.0281046 -9.70668e-18)
(-0.0975575 0.0338949 3.75951e-18)
(-0.0886573 0.0417881 4.47352e-18)
(-0.0830001 0.049295 3.1829e-18)
(-0.071491 0.06308 9.35583e-19)
(-0.0695734 0.0655546 -6.48205e-18)
(-0.0536547 0.0806004 -7.01225e-18)
(-0.0209868 0.0402809 -1.1097e-17)
(1.30258 0.174282 1.64017e-18)
(1.30146 0.186051 2.91062e-18)
(1.29975 0.192669 -1.21314e-18)
(1.29844 0.201759 4.2287e-18)
(1.29772 0.210379 3.68461e-18)
(1.29772 0.219626 -1.48933e-18)
(1.29856 0.229066 -2.52412e-18)
(1.30042 0.238824 1.82521e-18)
(1.30356 0.248809 -4.69794e-19)
(1.30827 0.258981 6.23326e-19)
(1.31473 0.269138 1.11584e-18)
(1.32239 0.278683 2.78406e-19)
(1.32787 0.285779 -1.16419e-18)
(1.31934 0.284636 4.0925e-18)
(1.26822 0.264089 1.50782e-18)
(1.12722 0.21157 2.5367e-18)
(0.843836 0.127771 1.65076e-17)
(0.422036 0.0337196 3.24322e-18)
(0.0662033 0.0189949 1.99082e-17)
(-0.0598009 0.0237913 7.42612e-18)
(1.30598 0.175961 2.86366e-18)
(1.30502 0.187471 2.43963e-18)
(1.30339 0.193986 6.95889e-19)
(1.30226 0.203022 2.19185e-18)
(1.3017 0.211538 2.82028e-18)
(1.3019 0.220692 -5.01115e-20)
(1.30299 0.229987 -5.82983e-19)