/*--------------------------------*- C++ -*----------------------------------*\
  =========                 |
  \\      /  F ield         | OpenFOAM: The Open Source CFD Toolbox
   \\    /   O peration     | Website:  https://openfoam.org
    \\  /    A nd           | Version:  7
     \\/     M anipulation  |
\*---------------------------------------------------------------------------*/
FoamFile
{
    version     2.0;
    format      ascii;
    class       volScalarField;
    location    "6";
    object      p;
}
// * * * * * * * * * * * * * * * * * * * * * * * * * * * * * * * * * * * * * //

dimensions      [0 2 -2 0 0 0 0];

internalField   nonuniform List<scalar> 
7360
(
0.000296351
0.000872988
0.00145637
0.00203533
0.0026177
0.00319847
0.00378111
0.00436352
0.0049473
0.00553162
0.0061173
0.0067041
0.00729251
0.00788259
0.00847473
0.00906914
0.00966623
0.0102663
0.0108699
0.0114774
0.0120894
0.0127063
0.013329
0.013958
0.0145942
0.0152383
0.0158913
0.0165542
0.017228
0.0179139
0.018613
0.0193268
0.0200566
0.0208037
0.0215699
0.0223566
0.0231656
0.0239985
0.0248572
0.0257435
0.0266592
0.0276062
0.0285863
0.0296014
0.0306533
0.0317436
0.0328739
0.0340456
0.0352599
0.0365177
0.0378196
0.0391664
0.0405583
0.041996
0.0434803
0.045013
0.0465968
0.0482362
0.0499374
0.051709
0.0535612
0.0555056
0.0575532
0.0597122
0.0619847
0.0643617
0.0668183
0.0693064
0.0717469
0.0740203
0.0759538
0.0773038
0.0777299
0.0767933
0.0738932
0.0682327
0.0588139
0.044444
0.0238129
-0.00437514
-0.0411715
-0.0871206
-0.141761
-0.203786
-0.270716
-0.339055
-0.404907
-0.464467
-0.514579
-0.552794
-0.577596
-0.587446
-0.582705
-0.563926
-0.53426
-0.498222
-0.464135
-0.434491
-0.417608
-0.405089
0.000296224
0.000872647
0.0014558
0.00203453
0.00261668
0.00319723
0.00377965
0.00436185
0.00494541
0.00552952
0.00611499
0.00670158
0.00728978
0.00787966
0.00847159
0.00906581
0.0096627
0.0102626
0.010866
0.0114733
0.0120851
0.0127019
0.0133244
0.0139532
0.0145892
0.0152331
0.015886
0.0165487
0.0172223
0.017908
0.018607
0.0193206
0.0200501
0.0207971
0.0215631
0.0223496
0.0231583
0.0239911
0.0248495
0.0257356
0.0266511
0.027598
0.028578
0.029593
0.030645
0.0317354
0.0328661
0.0340383
0.0352534
0.0365123
0.0378157
0.0391644
0.0405588
0.0419994
0.0434873
0.0450242
0.0466129
0.0482578
0.0499653
0.0517439
0.053604
0.0555573
0.0576149
0.0597855
0.0620719
0.0644663
0.066945
0.0694617
0.0719398
0.074262
0.0762586
0.0776893
0.078218
0.0773937
0.0746297
0.0691383
0.0599316
0.0458286
0.0255281
-0.00227302
-0.038601
-0.0840348
-0.13816
-0.199693
-0.266212
-0.33429
-0.400068
-0.459734
-0.510077
-0.54857
-0.573582
-0.584386
-0.57998
-0.561495
-0.532251
-0.496609
-0.462681
-0.433081
-0.415967
-0.402497
0.000296977
0.000874672
0.00145921
0.00203928
0.00262273
0.00320459
0.00378831
0.0043718
0.00495663
0.00554201
0.00612872
0.00671655
0.00730596
0.00789704
0.00849014
0.00908552
0.00968355
0.0102846
0.0108891
0.0114974
0.0121103
0.0127281
0.0133516
0.0139814
0.0146184
0.0152633
0.0159171
0.0165808
0.0172554
0.017942
0.018642
0.0193566
0.0200871
0.0208351
0.0216021
0.0223897
0.0231995
0.0240332
0.0248927
0.0257797
0.0266959
0.0276433
0.0286236
0.0296385
0.0306897
0.0317786
0.0329068
0.0340753
0.0352852
0.0365371
0.0378315
0.0391687
0.0405488
0.0419722
0.0434397
0.0449525
0.0465133
0.0481263
0.0497976
0.0515351
0.0533487
0.0552488
0.0572448
0.0593425
0.0615403
0.0638243
0.0661626
0.0684985
0.0707428
0.0727646
0.0743786
0.0753273
0.075262
0.0737408
0.0701261
0.0635859
0.0530812
0.037376
0.0151285
-0.0149855
-0.053794
-0.102484
-0.159185
-0.223178
-0.291605
-0.360627
-0.426238
-0.484685
-0.533052
-0.569179
-0.592166
-0.59929
-0.592804
-0.571967
-0.540286
-0.502747
-0.468729
-0.439225
-0.424902
-0.417391
0.00029661
0.000873644
0.00145752
0.0020369
0.00261971
0.00320091
0.00378398
0.00436682
0.00495102
0.00553576
0.00612184
0.00670904
0.00729784
0.0078883
0.00848081
0.00907559
0.00967304
0.0102735
0.0108774
0.0114852
0.0120975
0.0127148
0.0133377
0.013967
0.0146034
0.0152478
0.0159011
0.0165642
0.0172382
0.0179244
0.0186237
0.0193377
0.0200677
0.0208151
0.0215814
0.0223683
0.0231774
0.0240105
0.0248693
0.0257556
0.0266712
0.027618
0.0285978
0.0296125
0.0306636
0.0317529
0.0328818
0.0340517
0.0352636
0.0365185
0.0378169
0.0391593
0.040546
0.0419775
0.0434547
0.0449789
0.046553
0.0481812
0.0498697
0.0516266
0.053462
0.0553868
0.0574113
0.0595428
0.0617818
0.0641176
0.0665228
0.0689461
0.0713051
0.0734762
0.0752825
0.0764758
0.0767124
0.075521
0.0723071
0.066263
0.0563758
0.0414394
0.020138
-0.00883442
-0.0465437
-0.0934396
-0.148902
-0.211633
-0.279049
-0.347532
-0.413148
-0.472111
-0.521344
-0.558452
-0.581939
-0.592105
-0.586422
-0.566688
-0.536336
-0.499876
-0.466198
-0.436887
-0.421566
-0.412629
0.000297999
0.000877702
0.0014642
0.00204628
0.00263164
0.00321547
0.00380108
0.00438649
0.00497321
0.00556046
0.00614902
0.00673867
0.00732988
0.00792271
0.00851756
0.00911464
0.00971434
0.010317
0.0109231
0.0115331
0.0121474
0.0127668
0.0133917
0.0140231
0.0146615
0.0153078
0.0159631
0.0166282
0.0173042
0.0179923
0.0186938
0.0194099
0.0201419
0.0208915
0.0216601
0.0224493
0.0232607
0.0240961
0.0249571
0.0258456
0.0267631
0.0277115
0.0286923
0.0297072
0.0307576
0.0318447
0.0329698
0.0341337
0.0353369
0.0365799
0.0378627
0.0391852
0.0405473
0.0419487
0.04339
0.0448722
0.0463975
0.0479695
0.0495938
0.0512775
0.0530288
0.054856
0.0567652
0.0587575
0.0608244
0.0629433
0.0650709
0.067137
0.069037
0.0706233
0.0716912
0.071952
0.0710318
0.0684858
0.0636094
0.0555102
0.04308
0.0250221
-3.78026e-05
-0.0333759
-0.0759759
-0.127859
-0.188217
-0.254775
-0.324842
-0.393976
-0.458152
-0.513801
-0.558396
-0.590252
-0.608768
-0.612311
-0.601921
-0.577277
-0.542444
-0.503231
-0.470175
-0.441187
-0.433226
-0.429369
0.000297459
0.000875995
0.00146146
0.00204238
0.0026267
0.00320941
0.00379396
0.00437828
0.00496394
0.00555013
0.00613765
0.00672627
0.00731646
0.00790829
0.00850215
0.00909826
0.009697
0.0102987
0.0109039
0.0115129
0.0121264
0.0127448
0.0133689
0.0139993
0.0146369
0.0152824
0.0159367
0.0166009
0.017276
0.0179631
0.0186636
0.0193787
0.0201097
0.0208582
0.0216256
0.0224136
0.0232238
0.0240579
0.0249177
0.0258048
0.0267211
0.0276683
0.0286481
0.0296622
0.0307121
0.0317993
0.032925
0.0340904
0.0352962
0.0365429
0.037831
0.0391605
0.0405315
0.0419441
0.0433988
0.0448969
0.0464406
0.048034
0.0496824
0.0513935
0.0531761
0.0550394
0.0569912
0.0590349
0.0611661
0.0633669
0.0656009
0.0678059
0.0698866
0.0717057
0.0730726
0.073723
0.0732956
0.0712618
0.0670123
0.0597065
0.0482774
0.0314704
0.00794047
-0.0236039
-0.0640859
-0.114302
-0.172189
-0.237225
-0.306189
-0.375075
-0.439892
-0.496974
-0.543558
-0.57766
-0.598375
-0.605201
-0.59663
-0.574163
-0.541386
-0.503224
-0.470228
-0.441293
-0.430361
-0.427118
0.000299304
0.00088259
0.00147192
0.00205714
0.00264544
0.00323231
0.00382088
0.00440927
0.00499891
0.00558907
0.0061805
0.00677298
0.00736699
0.00796258
0.00856014
0.00915989
0.00976222
0.0103675
0.0109761
0.0115886
0.0122054
0.0128271
0.0134545
0.0140882
0.0147289
0.0153776
0.0160352
0.0167026
0.017381
0.0180714
0.0187752
0.0194937
0.0202283
0.0209803
0.0217514
0.0225431
0.0233571
0.0241949
0.0250582
0.0259487
0.026868
0.0278176
0.0287991
0.0298137
0.0308627
0.0319471
0.0330677
0.0342251
0.0354194
0.0366507
0.0379187
0.0392228
0.0405625
0.0419373
0.043347
0.0447921
0.0462741
0.0477957
0.0493606
0.0509736
0.0526398
0.0543628
0.0561424
0.0579713
0.059831
0.0616857
0.0634767
0.0651154
0.0664756
0.0673847
0.0676142
0.0668741
0.0647088
0.0605389
0.05365
0.0430732
0.0276279
0.00598186
-0.0231983
-0.0610482
-0.10821
-0.164448
-0.22854
-0.297148
-0.367399
-0.43455
-0.494751
-0.54485
-0.582832
-0.607513
-0.619059
-0.616754
-0.599392
-0.56972
-0.531845
-0.493108
-0.463419
-0.439263
-0.441696
-0.436849
0.000298657
0.000879705
0.00146744
0.0020507
0.00263723
0.00322221
0.00380898
0.00439553
0.00498339
0.00557178
0.00616147
0.00675225
0.00734457
0.00793852
0.00853447
0.00913265
0.00973343
0.0103372
0.0109443
0.0115553
0.0121708
0.0127911
0.0134171
0.0140495
0.0146889
0.0153363
0.0159925
0.0166587
0.0173357
0.0180249
0.0187274
0.0194445
0.0201777
0.0209284
0.0216982
0.0224885
0.0233011
0.0241377
0.0249998
0.0258892
0.0268077
0.0277567
0.0287379
0.0297528
0.0308027
0.0318888
0.033012
0.0341731
0.0353726
0.0366106
0.0378871
0.0392018
0.0405542
0.0419442
0.0433718
0.0448379
0.0463441
0.0478937
0.0494913
0.051143
0.0528555
0.0546349
0.0564848
0.0584025
0.0603751
0.0623741
0.0643491
0.0662208
0.0678734
0.0691439
0.0698083
0.0695613
0.0680786
0.0648345
0.0591059
0.0499876
0.0363532
0.0169015
-0.00972034
-0.0447311
-0.0889876
-0.142278
-0.204824
-0.27139
-0.341705
-0.41014
-0.472948
-0.526686
-0.56904
-0.598519
-0.614293
-0.616075
-0.603321
-0.57658
-0.540471
-0.500482
-0.468342
-0.440728
-0.438197
-0.435998
-0.288261
-0.286539
-0.287468
-0.289184
-0.292471
-0.29708
-0.303208
-0.310905
-0.320315
-0.331582
-0.344856
-0.360326
-0.378427
-0.398797
-0.420714
-0.447392
-0.478592
-0.492388
-0.51371
-0.492116
-0.291676
-0.290267
-0.291498
-0.293609
-0.297335
-0.302444
-0.309123
-0.317414
-0.327447
-0.339357
-0.353313
-0.369554
-0.388648
-0.410393
-0.43293
-0.458164
-0.486006
-0.495061
-0.498928
-0.459235
-0.27962
-0.277347
-0.277644
-0.278628
-0.28109
-0.284792
-0.289933
-0.296584
-0.304917
-0.315121
-0.327458
-0.342307
-0.360209
-0.381302
-0.406909
-0.438869
-0.475653
-0.507077
-0.533163
-0.548093
-0.284257
-0.282265
-0.282875
-0.284228
-0.287103
-0.291257
-0.296892
-0.304068
-0.312953
-0.323725
-0.336626
-0.352011
-0.370391
-0.391386
-0.414976
-0.443215
-0.473567
-0.489863
-0.51399
-0.512308
-0.268568
-0.265681
-0.265369
-0.265637
-0.267287
-0.270116
-0.274313
-0.279967
-0.287267
-0.296436
-0.307823
-0.321847
-0.339205
-0.360546
-0.387642
-0.421395
-0.465981
-0.51531
-0.552819
-0.597225
-0.274401
-0.271838
-0.271826
-0.272456
-0.274515
-0.277785
-0.282459
-0.288621
-0.296455
-0.306175
-0.318102
-0.332642
-0.350343
-0.371511
-0.397513
-0.428951
-0.467215
-0.506327
-0.530553
-0.5567
-0.255309
-0.251678
-0.25077
-0.250332
-0.251169
-0.253129
-0.256399
-0.261077
-0.267362
-0.275503
-0.285891
-0.298975
-0.315616
-0.33648
-0.363758
-0.398586
-0.447165
-0.50324
-0.568792
-0.623907
-0.262209
-0.258968
-0.258357
-0.258286
-0.259529
-0.26193
-0.265668
-0.270841
-0.277644
-0.286319
-0.297236
-0.310825
-0.327832
-0.348895
-0.375772
-0.409551
-0.455347
-0.506494
-0.55251
-0.593014
-0.240286
-0.235752
-0.234232
-0.232977
-0.232982
-0.234018
-0.236341
-0.240027
-0.245238
-0.252247
-0.26149
-0.273345
-0.288881
-0.308333
-0.335256
-0.368194
-0.418192
-0.474389
-0.561235
-0.618825
-0.247991
-0.243926
-0.242714
-0.241887
-0.242321
-0.243839
-0.246651
-0.250848
-0.256629
-0.264247
-0.274114
-0.286655
-0.302829
-0.323106
-0.350287
-0.384312
-0.433008
-0.488042
-0.559572
-0.599682
-0.224559
-0.218956
-0.216902
-0.214803
-0.214024
-0.214033
-0.215288
-0.217744
-0.221561
-0.226975
-0.234557
-0.244475
-0.258116
-0.274668
-0.299657
-0.32577
-0.37557
-0.418113
-0.519378
-0.560113
-0.232425
-0.227372
-0.22557
-0.223869
-0.223459
-0.223975
-0.225778
-0.228914
-0.233475
-0.239774
-0.248312
-0.259344
-0.274156
-0.292293
-0.318606
-0.347867
-0.397684
-0.444334
-0.534017
-0.563505
-0.209128
-0.20228
-0.200046
-0.197215
-0.19602
-0.195403
-0.196021
-0.1973
-0.200366
-0.204673
-0.210856
-0.21887
-0.229932
-0.242916
-0.263223
-0.281128
-0.324898
-0.339177
-0.443784
-0.404547
-0.216886
-0.210671
-0.208497
-0.206055
-0.205067
-0.204711
-0.205562
-0.207283
-0.21055
-0.215194
-0.22187
-0.23063
-0.242906
-0.257579
-0.280665
-0.302334
-0.350047
-0.373695
-0.474238
-0.448251
-0.192146
-0.184274
-0.181342
-0.177016
-0.174246
-0.172022
-0.170751
-0.170214
-0.171039
-0.172992
-0.176496
-0.181527
-0.18865
-0.197075
-0.208644
-0.21735
-0.232978
-0.221484
-0.24735
-0.114198
-0.200839
-0.19337
-0.191033
-0.187508
-0.185758
-0.18464
-0.184725
-0.185699
-0.188427
-0.192499
-0.198438
-0.206197
-0.21657
-0.22862
-0.24555
-0.25957
-0.288739
-0.285422
-0.347851
-0.231121
0.0636088
0.0626249
0.0640714
0.062978
0.0650421
0.0637868
0.0670572
0.0657158
0.0710638
0.0699086
0.0790674
0.0787907
0.0951644
0.0972604
0.128242
0.135651
0.19812
0.209582
0.336941
0.212732
0.0635963
0.0626084
0.0640475
0.0629754
0.0650013
0.0637908
0.0669954
0.0657424
0.0710025
0.0699986
0.0790458
0.0790588
0.0952579
0.0979166
0.128543
0.136834
0.197447
0.20791
0.320705
0.158854
0.06363
0.0626534
0.0641152
0.0629946
0.0651086
0.0638049
0.0671573
0.0657298
0.0712132
0.0698994
0.0792952
0.0787076
0.0955516
0.097084
0.129214
0.135939
0.202477
0.217557
0.364313
0.32258
0.063619
0.0626433
0.0640891
0.0629902
0.065072
0.0638
0.0671005
0.0657288
0.0711233
0.0699096
0.0791613
0.0787512
0.0953282
0.0971821
0.128674
0.135826
0.200106
0.213436
0.350275
0.271044
0.0636468
0.0626715
0.0641477
0.0630069
0.0651582
0.0638194
0.0672333
0.0657423
0.0713262
0.0698964
0.0794672
0.0786477
0.09584
0.0969307
0.129897
0.135984
0.205239
0.223055
0.37993
0.408868
0.0636388
0.0626655
0.0641308
0.0630034
0.0651335
0.0638152
0.0671947
0.0657395
0.0712621
0.0698972
0.0793631
0.0786598
0.0956497
0.096952
0.129422
0.135797
0.203447
0.21982
0.371524
0.371994
0.0636546
0.0626794
0.0641628
0.0630131
0.0651806
0.063827
0.0672679
0.0657496
0.0713779
0.0698973
0.0795464
0.0786227
0.0959728
0.0968587
0.1302
0.135979
0.206368
0.225574
0.385846
0.449623
0.0636517
0.0626775
0.0641569
0.0630118
0.0651718
0.0638255
0.0672542
0.0657484
0.0713547
0.069897
0.0795082
0.0786257
0.0959016
0.0968636
0.130022
0.135907
0.205728
0.224367
0.383078
0.436388
0.0636517
0.0626775
0.0641569
0.0630118
0.0651718
0.0638255
0.0672542
0.0657484
0.0713547
0.069897
0.0795082
0.0786257
0.0959016
0.0968636
0.130022
0.135907
0.205728
0.224367
0.383078
0.436388
0.0636546
0.0626794
0.0641628
0.0630131
0.0651806
0.063827
0.0672679
0.0657496
0.0713779
0.0698973
0.0795464
0.0786227
0.0959728
0.0968587
0.1302
0.135979
0.206368
0.225574
0.385846
0.449623
0.0636388
0.0626655
0.0641308
0.0630034
0.0651335
0.0638152
0.0671947
0.0657395
0.0712621
0.0698972
0.0793631
0.0786598
0.0956497
0.096952
0.129422
0.135797
0.203447
0.21982
0.371524
0.371994
0.0636468
0.0626715
0.0641477
0.0630069
0.0651582
0.0638194
0.0672333
0.0657423
0.0713262
0.0698964
0.0794672
0.0786478
0.09584
0.0969307
0.129897
0.135984
0.205239
0.223055
0.37993
0.408868
0.063619
0.0626433
0.0640891
0.0629902
0.065072
0.0638
0.0671005
0.0657288
0.0711233
0.0699096
0.0791613
0.0787512
0.0953282
0.0971821
0.128674
0.135826
0.200106
0.213436
0.350275
0.271044
0.0636301
0.0626534
0.0641152
0.0629946
0.0651086
0.0638049
0.0671573
0.0657298
0.0712132
0.0698994
0.0792952
0.0787076
0.0955516
0.097084
0.129214
0.135939
0.202477
0.217557
0.364313
0.32258
0.0635963
0.0626084
0.0640475
0.0629754
0.0650013
0.0637908
0.0669954
0.0657424
0.0710025
0.0699986
0.0790458
0.0790588
0.0952579
0.0979166
0.128543
0.136834
0.197447
0.20791
0.320705
0.158854
0.0636088
0.0626249
0.0640714
0.062978
0.0650421
0.0637868
0.0670572
0.0657158
0.0710638
0.0699086
0.0790674
0.0787907
0.0951644
0.0972604
0.128242
0.135651
0.19812
0.209582
0.336941
0.212732
-0.200839
-0.19337
-0.191033
-0.187508
-0.185758
-0.18464
-0.184725
-0.185699
-0.188427
-0.192499
-0.198438
-0.206197
-0.21657
-0.22862
-0.24555
-0.25957
-0.288739
-0.285422
-0.347851
-0.231121
-0.192146
-0.184274
-0.181342
-0.177016
-0.174246
-0.172022
-0.170751
-0.170214
-0.171039
-0.172992
-0.176496
-0.181527
-0.18865
-0.197075
-0.208644
-0.21735
-0.232978
-0.221484
-0.24735
-0.114198
-0.216886
-0.210671
-0.208496
-0.206055
-0.205067
-0.204711
-0.205562
-0.207283
-0.21055
-0.215194
-0.22187
-0.23063
-0.242906
-0.257579
-0.280665
-0.302334
-0.350047
-0.373695
-0.474238
-0.448251
-0.209128
-0.20228
-0.200046
-0.197215
-0.19602
-0.195403
-0.196021
-0.1973
-0.200366
-0.204673
-0.210856
-0.21887
-0.229932
-0.242916
-0.263223
-0.281128
-0.324898
-0.339177
-0.443784
-0.404547
-0.232425
-0.227372
-0.22557
-0.223869
-0.223459
-0.223975
-0.225778
-0.228914
-0.233475
-0.239774
-0.248312
-0.259344
-0.274156
-0.292293
-0.318606
-0.347867
-0.397684
-0.444334
-0.534017
-0.563505
-0.224559
-0.218956
-0.216902
-0.214803
-0.214024
-0.214033
-0.215288
-0.217744
-0.221561
-0.226975
-0.234557
-0.244475
-0.258116
-0.274668
-0.299657
-0.32577
-0.37557
-0.418113
-0.519378
-0.560114
-0.247991
-0.243926
-0.242714
-0.241887
-0.242321
-0.243839
-0.246651
-0.250848
-0.256629
-0.264247
-0.274114
-0.286655
-0.302829
-0.323106
-0.350287
-0.384312
-0.433008
-0.488042
-0.559572
-0.599682
-0.240286
-0.235752
-0.234232
-0.232977
-0.232982
-0.234018
-0.236341
-0.240027
-0.245238
-0.252247
-0.26149
-0.273345
-0.288881
-0.308333
-0.335256
-0.368194
-0.418192
-0.474389
-0.561235
-0.618825
-0.262209
-0.258968
-0.258357
-0.258286
-0.259529
-0.26193
-0.265668
-0.270841
-0.277644
-0.286319
-0.297236
-0.310825
-0.327832
-0.348895
-0.375772
-0.409551
-0.455347
-0.506494
-0.55251
-0.593014
-0.255309
-0.251678
-0.25077
-0.250332
-0.251169
-0.253129
-0.256399
-0.261077
-0.267362
-0.275503
-0.285891
-0.298975
-0.315616
-0.33648
-0.363758
-0.398586
-0.447165
-0.50324
-0.568792
-0.623907
-0.274401
-0.271838
-0.271826
-0.272456
-0.274515
-0.277785
-0.282459
-0.288621
-0.296455
-0.306175
-0.318102
-0.332642
-0.350343
-0.371511
-0.397513
-0.428951
-0.467215
-0.506327
-0.530553
-0.5567
-0.268568
-0.265681
-0.265369
-0.265637
-0.267287
-0.270116
-0.274313
-0.279967
-0.287267
-0.296436
-0.307823
-0.321847
-0.339205
-0.360546
-0.387642
-0.421395
-0.465981
-0.51531
-0.552819
-0.597225
-0.284257
-0.282265
-0.282875
-0.284228
-0.287103
-0.291257
-0.296892
-0.304068
-0.312953
-0.323725
-0.336626
-0.352011
-0.37039
-0.391386
-0.414976
-0.443215
-0.473567
-0.489863
-0.51399
-0.512308
-0.27962
-0.277347
-0.277644
-0.278628
-0.28109
-0.284792
-0.289933
-0.296584
-0.304917
-0.315121
-0.327458
-0.342307
-0.360209
-0.381302
-0.406909
-0.438869
-0.475653
-0.507077
-0.533163
-0.548093
-0.291676
-0.290267
-0.291498
-0.293609
-0.297335
-0.302444
-0.309123
-0.317414
-0.327447
-0.339357
-0.353313
-0.369554
-0.388648
-0.410393
-0.43293
-0.458164
-0.486006
-0.495061
-0.498928
-0.459235
-0.288261
-0.286539
-0.287468
-0.289184
-0.292471
-0.29708
-0.303208
-0.310905
-0.320315
-0.331582
-0.344856
-0.360326
-0.378427
-0.398797
-0.420714
-0.447392
-0.478592
-0.492388
-0.51371
-0.492116
0.000298657
0.000879705
0.00146744
0.0020507
0.00263723
0.00322221
0.00380898
0.00439553
0.00498339
0.00557178
0.00616147
0.00675225
0.00734457
0.00793852
0.00853447
0.00913265
0.00973343
0.0103372
0.0109443
0.0115553
0.0121708
0.0127911
0.0134171
0.0140495
0.0146889
0.0153363
0.0159925
0.0166587
0.0173357
0.0180249
0.0187274
0.0194445
0.0201777
0.0209284
0.0216982
0.0224885
0.0233011
0.0241377
0.0249998
0.0258892
0.0268077
0.0277567
0.0287379
0.0297528
0.0308027
0.0318888
0.033012
0.0341731
0.0353726
0.0366106
0.0378871
0.0392018
0.0405542
0.0419442
0.0433718
0.0448379
0.0463441
0.0478937
0.0494913
0.051143
0.0528555
0.0546349
0.0564848
0.0584025
0.0603751
0.0623741
0.0643491
0.0662208
0.0678734
0.0691439
0.0698083
0.0695613
0.0680786
0.0648345
0.0591059
0.0499876
0.0363532
0.0169015
-0.00972034
-0.0447311
-0.0889876
-0.142278
-0.204824
-0.27139
-0.341705
-0.41014
-0.472948
-0.526686
-0.56904
-0.598519
-0.614293
-0.616075
-0.603321
-0.57658
-0.540471
-0.500482
-0.468342
-0.440728
-0.438197
-0.435998
0.000299304
0.00088259
0.00147192
0.00205714
0.00264544
0.00323231
0.00382088
0.00440927
0.00499891
0.00558907
0.0061805
0.00677298
0.00736699
0.00796258
0.00856014
0.00915989
0.00976222
0.0103675
0.0109761
0.0115886
0.0122054
0.0128271
0.0134545
0.0140882
0.0147289
0.0153776
0.0160352
0.0167026
0.017381
0.0180714
0.0187752
0.0194937
0.0202283
0.0209803
0.0217514
0.0225431
0.0233571
0.0241949
0.0250582
0.0259487
0.026868
0.0278176
0.0287991
0.0298137
0.0308627
0.0319471
0.0330677
0.0342251
0.0354194
0.0366507
0.0379187
0.0392228
0.0405625
0.0419373
0.043347
0.0447921
0.0462741
0.0477957
0.0493606
0.0509736
0.0526398
0.0543628
0.0561424
0.0579713
0.059831
0.0616857
0.0634767
0.0651154
0.0664756
0.0673847
0.0676142
0.0668741
0.0647088
0.0605389
0.05365
0.0430732
0.0276279
0.00598186
-0.0231983
-0.0610482
-0.10821
-0.164448
-0.22854
-0.297148
-0.367399
-0.43455
-0.494751
-0.54485
-0.582832
-0.607513
-0.619059
-0.616754
-0.599392
-0.56972
-0.531845
-0.493108
-0.463419
-0.439263
-0.441696
-0.436849
0.000297459
0.000875995
0.00146146
0.00204238
0.0026267
0.00320941
0.00379396
0.00437828
0.00496394
0.00555013
0.00613765
0.00672627
0.00731646
0.0079083
0.00850215
0.00909826
0.009697
0.0102987
0.0109039
0.0115129
0.0121264
0.0127448
0.0133689
0.0139993
0.0146369
0.0152824
0.0159367
0.0166009
0.017276
0.0179631
0.0186636
0.0193787
0.0201097
0.0208582
0.0216256
0.0224136
0.0232238
0.0240579
0.0249177
0.0258048
0.0267211
0.0276683
0.0286481
0.0296622
0.0307121
0.0317993
0.032925
0.0340904
0.0352962
0.0365429
0.037831
0.0391605
0.0405315
0.0419441
0.0433988
0.0448969
0.0464406
0.048034
0.0496824
0.0513935
0.0531761
0.0550394
0.0569912
0.0590349
0.0611661
0.0633669
0.0656009
0.0678059
0.0698866
0.0717057
0.0730726
0.073723
0.0732956
0.0712618
0.0670123
0.0597065
0.0482774
0.0314704
0.00794047
-0.0236039
-0.0640859
-0.114302
-0.172189
-0.237225
-0.306189
-0.375075
-0.439892
-0.496974
-0.543558
-0.57766
-0.598375
-0.605201
-0.59663
-0.574163
-0.541386
-0.503224
-0.470228
-0.441293
-0.430361
-0.427118
0.000297999
0.000877702
0.0014642
0.00204628
0.00263164
0.00321547
0.00380108
0.00438649
0.00497321
0.00556046
0.00614902
0.00673867
0.00732988
0.00792271
0.00851756
0.00911464
0.00971434
0.010317
0.0109231
0.0115331
0.0121474
0.0127668
0.0133917
0.0140231
0.0146615
0.0153078
0.0159631
0.0166282
0.0173042
0.0179923
0.0186938
0.0194099
0.0201419
0.0208915
0.0216601
0.0224493
0.0232607
0.0240961
0.0249571
0.0258456
0.0267631
0.0277115
0.0286923
0.0297072
0.0307576
0.0318447
0.0329698
0.0341337
0.0353369
0.0365799
0.0378627
0.0391852
0.0405473
0.0419487
0.04339
0.0448722
0.0463975
0.0479695
0.0495938
0.0512775
0.0530288
0.054856
0.0567652
0.0587575
0.0608244
0.0629433
0.0650709
0.067137
0.069037
0.0706233
0.0716912
0.071952
0.0710318
0.0684858
0.0636094
0.0555102
0.04308
0.0250221
-3.78017e-05
-0.0333759
-0.0759759
-0.127859
-0.188217
-0.254775
-0.324842
-0.393976
-0.458152
-0.513801
-0.558396
-0.590252
-0.608768
-0.612311
-0.601921
-0.577277
-0.542444
-0.503231
-0.470175
-0.441187
-0.433226
-0.429369
0.00029661
0.000873644
0.00145752
0.0020369
0.00261971
0.00320091
0.00378398
0.00436682
0.00495102
0.00553576
0.00612184
0.00670904
0.00729784
0.0078883
0.00848081
0.00907559
0.00967304
0.0102735
0.0108774
0.0114852
0.0120975
0.0127148
0.0133377
0.013967
0.0146034
0.0152478
0.0159011
0.0165642
0.0172382
0.0179244
0.0186237
0.0193377
0.0200677
0.0208151
0.0215814
0.0223683
0.0231774
0.0240105
0.0248693
0.0257556
0.0266712
0.027618
0.0285978
0.0296125
0.0306636
0.0317529
0.0328818
0.0340517
0.0352636
0.0365185
0.0378169
0.0391593
0.040546
0.0419775
0.0434547
0.0449789
0.046553
0.0481812
0.0498697
0.0516266
0.053462
0.0553868
0.0574113
0.0595428
0.0617818
0.0641176
0.0665228
0.0689461
0.0713051
0.0734762
0.0752825
0.0764758
0.0767124
0.075521
0.0723071
0.066263
0.0563758
0.0414394
0.020138
-0.00883442
-0.0465437
-0.0934396
-0.148902
-0.211633
-0.279049
-0.347532
-0.413148
-0.472111
-0.521344
-0.558452
-0.581939
-0.592105
-0.586422
-0.566688
-0.536336
-0.499876
-0.466198
-0.436887
-0.421566
-0.412629
0.000296977
0.000874672
0.00145921
0.00203928
0.00262273
0.00320459
0.00378831
0.0043718
0.00495663
0.00554201
0.00612872
0.00671655
0.00730596
0.00789704
0.00849014
0.00908552
0.00968355
0.0102846
0.0108891
0.0114974
0.0121103
0.0127281
0.0133516
0.0139814
0.0146184
0.0152633
0.0159171
0.0165808
0.0172554
0.017942
0.018642
0.0193566
0.0200871
0.0208351
0.0216021
0.0223897
0.0231995
0.0240332
0.0248927
0.0257797
0.0266959
0.0276433
0.0286236
0.0296385
0.0306897
0.0317786
0.0329068
0.0340753
0.0352852
0.0365371
0.0378315
0.0391687
0.0405488
0.0419722
0.0434397
0.0449525
0.0465133
0.0481263
0.0497976
0.0515351
0.0533487
0.0552488
0.0572448
0.0593425
0.0615403
0.0638243
0.0661626
0.0684985
0.0707428
0.0727646
0.0743786
0.0753273
0.075262
0.0737408
0.0701261
0.0635859
0.0530812
0.037376
0.0151285
-0.0149855
-0.053794
-0.102484
-0.159185
-0.223178
-0.291605
-0.360627
-0.426238
-0.484685
-0.533052
-0.569179
-0.592166
-0.59929
-0.592804
-0.571967
-0.540286
-0.502747
-0.468729
-0.439225
-0.424902
-0.417391
0.000296224
0.000872647
0.0014558
0.00203453
0.00261668
0.00319723
0.00377965
0.00436185
0.00494541
0.00552952
0.00611499
0.00670158
0.00728978
0.00787966
0.00847159
0.00906581
0.0096627
0.0102626
0.010866
0.0114733
0.0120851
0.0127019
0.0133244
0.0139532
0.0145892
0.0152331
0.015886
0.0165487
0.0172223
0.017908
0.018607
0.0193206
0.0200501
0.0207971
0.0215631
0.0223496
0.0231583
0.0239911
0.0248495
0.0257356
0.0266511
0.027598
0.028578
0.029593
0.030645
0.0317354
0.0328661
0.0340383
0.0352534
0.0365123
0.0378157
0.0391644
0.0405588
0.0419994
0.0434873
0.0450242
0.0466129
0.0482578
0.0499653
0.0517439
0.053604
0.0555573
0.0576149
0.0597855
0.0620719
0.0644663
0.066945
0.0694617
0.0719398
0.074262
0.0762586
0.0776893
0.078218
0.0773937
0.0746297
0.0691383
0.0599316
0.0458286
0.0255281
-0.00227302
-0.038601
-0.0840348
-0.13816
-0.199693
-0.266212
-0.33429
-0.400068
-0.459734
-0.510077
-0.54857
-0.573582
-0.584386
-0.57998
-0.561495
-0.532251
-0.496609
-0.462681
-0.433081
-0.415967
-0.402497
0.000296351
0.000872988
0.00145637
0.00203533
0.0026177
0.00319847
0.00378111
0.00436352
0.0049473
0.00553162
0.0061173
0.0067041
0.00729251
0.00788259
0.00847473
0.00906914
0.00966623
0.0102663
0.0108699
0.0114774
0.0120894
0.0127063
0.013329
0.013958
0.0145942
0.0152383
0.0158913
0.0165542
0.017228
0.0179139
0.018613
0.0193268
0.0200566
0.0208037
0.0215699
0.0223566
0.0231656
0.0239985
0.0248572
0.0257435
0.0266592
0.0276062
0.0285863
0.0296014
0.0306533
0.0317436
0.0328739
0.0340456
0.0352599
0.0365177
0.0378196
0.0391664
0.0405583
0.041996
0.0434803
0.045013
0.0465968
0.0482362
0.0499374
0.051709
0.0535612
0.0555056
0.0575532
0.0597122
0.0619847
0.0643617
0.0668183
0.0693064
0.0717469
0.0740203
0.0759538
0.0773038
0.0777299
0.0767933
0.0738932
0.0682327
0.0588139
0.044444
0.0238129
-0.00437514
-0.0411715
-0.0871206
-0.141761
-0.203786
-0.270716
-0.339055
-0.404907
-0.464467
-0.514579
-0.552794
-0.577596
-0.587446
-0.582705
-0.563926
-0.53426
-0.498222
-0.464135
-0.434491
-0.417608
-0.405089
0.0620446
0.0618251
0.0617867
0.0613381
0.0609804
0.0601039
0.0591179
0.0576873
0.0556558
0.0532678
0.0495081
0.0446665
0.037025
0.0275324
0.0122563
-0.00541149
-0.0343839
-0.0640177
-0.113128
-0.155938
0.0621193
0.061825
0.0618821
0.0613844
0.0611658
0.0602646
0.0595572
0.0581205
0.0565654
0.0541206
0.0509698
0.04635
0.0394703
0.0307983
0.0163839
0.000459062
-0.02831
-0.0550699
-0.106167
-0.146516
0.062177
0.061835
0.0619697
0.0614439
0.0613289
0.0604192
0.059865
0.0584616
0.0571121
0.0548189
0.0520038
0.0477338
0.0414089
0.0334078
0.0197468
0.00498463
-0.0233084
-0.0484682
-0.100929
-0.140033
0.0622501
0.0618518
0.06207
0.0615129
0.0615145
0.0605894
0.0602581
0.0588487
0.0578869
0.0556102
0.0533486
0.0493009
0.0437705
0.0363823
0.0237878
0.0101658
-0.0173704
-0.040889
-0.0949412
-0.132699
0.062328
0.061875
0.0621804
0.0615917
0.0617169
0.0607768
0.0606614
0.0592666
0.0586646
0.0564586
0.0547741
0.0509798
0.0463642
0.0395698
0.0282691
0.0156887
-0.0107282
-0.0328787
-0.0884648
-0.125137
0.0624133
0.0619045
0.0622989
0.061679
0.0619328
0.0609769
0.0610917
0.0597045
0.059493
0.0573514
0.056307
0.0527458
0.0491857
0.0429389
0.0331779
0.0215339
-0.00336846
-0.0244092
-0.0813938
-0.117285
0.0625038
0.0619396
0.0624243
0.0617734
0.0621597
0.0611877
0.0615399
0.0601604
0.06036
0.0582819
0.0579346
0.0545857
0.0522213
0.0464758
0.0385194
0.027699
0.00477439
-0.0154361
-0.0735563
-0.109029
0.0625987
0.0619798
0.062555
0.0618733
0.0623948
0.0614067
0.0620016
0.0606308
0.0612551
0.0592428
0.0596371
0.0564894
0.0554473
0.0501493
0.0443003
0.0341776
0.0137594
-0.00593067
-0.0647371
-0.100325
0.0626969
0.0620242
0.0626893
0.0619774
0.0626353
0.0616317
0.0624717
0.0611111
0.0621692
0.0602261
0.0613955
0.0584461
0.0588296
0.0539348
0.0505111
0.0409777
0.0236437
0.00414137
-0.0546795
-0.0911763
0.0627972
0.0620722
0.0628255
0.0620841
0.0628783
0.0618601
0.0629452
0.0615967
0.0630921
0.0612234
0.0631892
0.0604429
0.0623297
0.0578211
0.0571096
0.0481167
0.0344953
0.0148174
-0.043072
-0.0815852
0.0628984
0.0621229
0.062962
0.0621922
0.063121
0.0620896
0.0634169
0.062083
0.0640133
0.0622257
0.064996
0.0624656
0.065905
0.0618006
0.0640466
0.0555534
0.0464367
0.0261508
-0.0295379
-0.0716039
0.0629989
0.0621756
0.0630974
0.0622999
0.0633606
0.0623174
0.0638817
0.0625654
0.0649225
0.0632237
0.0667931
0.064498
0.0695102
0.0658578
0.071233
0.06327
0.0595314
0.0382604
-0.0136147
-0.061357
0.0630971
0.0622295
0.0632302
0.0624061
0.0635946
0.0625412
0.0643345
0.0630388
0.0658093
0.0642077
0.0685579
0.0665224
0.0730974
0.0699673
0.0785747
0.0712731
0.0737371
0.0514123
0.00524482
-0.0510377
0.0631913
0.0622842
0.0633588
0.0625091
0.0638201
0.0627582
0.0647707
0.0634983
0.0666642
0.0651674
0.0702689
0.0685189
0.076618
0.0740982
0.0859666
0.0795769
0.0889547
0.0658957
0.0276819
-0.0408383
0.0632796
0.0623384
0.0634815
0.0626075
0.0640349
0.0629657
0.0651858
0.0639386
0.0674778
0.0660919
0.0719058
0.070465
0.0800242
0.0782123
0.0932958
0.0881745
0.104976
0.0817969
0.054675
-0.0307322
0.0633601
0.0623926
0.0635975
0.0627
0.064237
0.0631611
0.0655754
0.0643541
0.0682416
0.0669699
0.07345
0.0723357
0.0832713
0.0822609
0.10045
0.0970145
0.121527
0.0993344
0.0869643
-0.0202335
0.0634312
0.0624443
0.0637065
0.0627851
0.0644248
0.063342
0.0659356
0.0647395
0.068948
0.0677891
0.0748848
0.0741019
0.0863176
0.0861802
0.107319
0.105996
0.138336
0.118718
0.125211
-0.00795419
0.063491
0.0624985
0.0637953
0.0628606
0.0645935
0.0635039
0.0662632
0.0650873
0.0695914
0.0685343
0.076197
0.0757291
0.0891271
0.0898852
0.113801
0.114958
0.155099
0.14009
0.170027
0.00897217
0.0635387
0.0625436
0.063905
0.0629263
0.0647551
0.0636443
0.066555
0.0653911
0.0701652
0.0691992
0.0773703
0.0772002
0.0916634
0.0933162
0.119777
0.123725