/*--------------------------------*- C++ -*----------------------------------*\
  =========                 |
  \\      /  F ield         | OpenFOAM: The Open Source CFD Toolbox
   \\    /   O peration     | Website:  https://openfoam.org
    \\  /    A nd           | Version:  7
     \\/     M anipulation  |
\*---------------------------------------------------------------------------*/
FoamFile
{
    version     2.0;
    format      ascii;
    class       surfaceScalarField;
    location    "102";
    object      phi;
}
// * * * * * * * * * * * * * * * * * * * * * * * * * * * * * * * * * * * * * //

dimensions      [0 3 -1 0 0 0 0];

internalField   nonuniform List<scalar> 
15760
(
0.00086368
3.47495e-06
-4.96728e-06
0.000866593
8.93784e-06
-1.18514e-05
0.000870904
1.59721e-05
-2.0283e-05
0.000875937
2.08371e-05
-2.58699e-05
0.00088114
2.30075e-05
-2.82105e-05
0.000886147
2.27109e-05
-2.77179e-05
0.000890712
2.02885e-05
-2.48534e-05
0.000894671
1.61685e-05
-2.01275e-05
0.000897917
1.07727e-05
-1.40187e-05
0.00090038
4.47075e-06
-6.93403e-06
0.00090204
-2.4589e-06
7.98764e-07
0.00090287
-9.78965e-06
8.95951e-06
0.000902876
-1.72573e-05
1.72518e-05
0.000902068
-2.47185e-05
2.55259e-05
0.00090047
-3.20463e-05
3.36443e-05
0.000898112
-3.91396e-05
4.14983e-05
0.000895028
-4.59192e-05
4.9003e-05
0.000891259
-5.2323e-05
5.6092e-05
0.000886848
-5.83018e-05
6.27122e-05
0.000881843
-6.38163e-05
6.88217e-05
0.000876292
-6.88352e-05
7.43862e-05
0.000870247
-7.33325e-05
7.93778e-05
0.000863761
-7.72874e-05
8.37733e-05
0.00085689
-8.06829e-05
8.75539e-05
0.00084969
-8.35065e-05
9.07058e-05
0.000842221
-8.57506e-05
9.32201e-05
0.00083454
-8.74128e-05
9.50941e-05
0.000826705
-8.84969e-05
9.6332e-05
0.000818773
-8.90131e-05
9.69451e-05
0.000810798
-8.89783e-05
9.69525e-05
0.000802834
-8.84157e-05
9.63802e-05
0.000794927
-8.73545e-05
9.52609e-05
0.000787123
-8.58289e-05
9.36333e-05
0.00077946
-8.38776e-05
9.15406e-05
0.000771973
-8.15424e-05
8.90297e-05
0.00076469
-7.88676e-05
8.61502e-05
0.000757636
-7.58987e-05
8.29529e-05
0.000750828
-7.26816e-05
7.94891e-05
0.000744281
-6.92622e-05
7.58096e-05
0.000738002
-6.5685e-05
7.19642e-05
0.000731995
-6.19931e-05
6.80005e-05
0.000726258
-5.82277e-05
6.3964e-05
0.000720788
-5.44273e-05
5.98975e-05
0.000715575
-5.06281e-05
5.58407e-05
0.000710608
-4.68632e-05
5.18301e-05
0.000705872
-4.31631e-05
4.78991e-05
0.00070135
-3.95552e-05
4.40776e-05
0.000697022
-3.6064e-05
4.03923e-05
0.000692866
-3.27113e-05
3.6867e-05
0.00068886
-2.95163e-05
3.35221e-05
0.00068498
-2.64956e-05
3.03757e-05
0.000681201
-2.36635e-05
2.74428e-05
0.000677496
-2.10321e-05
2.47364e-05
0.000673841
-1.86116e-05
2.22672e-05
0.000670208
-1.64105e-05
2.00438e-05
0.00066657
-1.44358e-05
1.80737e-05
0.0006629
-1.26936e-05
1.63629e-05
0.000659173
-1.11896e-05
1.49171e-05
0.00065536
-9.92792e-06
1.37404e-05
0.000651437
-8.91475e-06
1.28384e-05
0.000647375
-8.15137e-06
1.22129e-05
0.00064315
-7.64147e-06
1.18667e-05
0.000638734
-7.38545e-06
1.18009e-05
0.000634102
-7.38895e-06
1.20216e-05
0.000629225
-7.65117e-06
1.25282e-05
0.000624076
-8.17577e-06
1.33248e-05
0.000618626
-8.96688e-06
1.44165e-05
0.000612847
-1.00318e-05
1.58107e-05
0.000606709
-1.13846e-05
1.75229e-05
0.000600179
-1.30268e-05
1.95569e-05
0.000593225
-1.49786e-05
2.19328e-05
0.000585811
-1.72544e-05
2.46681e-05
0.000577901
-1.98792e-05
2.77894e-05
0.000569455
-2.28808e-05
3.13266e-05
0.000560431
-2.62894e-05
3.53137e-05
0.000550781
-3.01457e-05
3.97955e-05
0.000540454
-3.4501e-05
4.48277e-05
0.000529394
-3.94212e-05
5.04813e-05
0.000517539
-4.49853e-05
5.68407e-05
0.000504819
-5.12919e-05
6.40111e-05
0.000491161
-5.84615e-05
7.21201e-05
0.000476479
-6.66421e-05
8.13243e-05
0.00046068
-7.60164e-05
9.1815e-05
0.000443662
-8.6811e-05
0.000103829
0.000425312
-9.9308e-05
0.000117658
0.000405509
-0.000113865
0.000133669
0.000384122
-0.000130926
0.000152313
0.000361012
-0.000151106
0.000174216
0.000336054
-0.000175113
0.00020007
0.000309142
-0.000203993
0.000230906
0.000280224
-0.000238962
0.000267881
0.000249333
-0.00028199
0.000312881
0.00021683
-0.000334951
0.000367454
0.00018295
-0.000401626
0.000435505
0.000150082
-0.000485105
0.000517973
0.000117952
-0.000585502
0.000617632
9.51019e-05
-0.000717963
0.000740813
7.36182e-05
-0.000812215
0.000833699
5.05191e-05
-0.000956831
0.00097993
-0.000558923
0.000609442
0.000913169
2.42258e-06
0.000915416
6.69144e-06
0.000918904
1.24834e-05
0.000923121
1.66201e-05
0.000927567
1.8562e-05
0.000931886
1.83919e-05
0.000935822
1.63527e-05
0.000939195
1.27957e-05
0.000941882
8.08557e-06
0.000943805
2.54756e-06
0.000944932
-3.58564e-06
0.000945225
-1.00827e-05
0.000944686
-1.67185e-05
0.000943325
-2.33579e-05
0.000941164
-2.98849e-05
0.000938232
-3.62071e-05
0.000934564
-4.22517e-05
0.000930203
-4.79616e-05
0.000925193
-5.32918e-05
0.000919583
-5.82064e-05
0.000913424
-6.26767e-05
0.000906771
-6.66795e-05
0.00089968
-7.01957e-05
0.000892207
-7.32105e-05
0.000884414
-7.57129e-05
0.000876359
-7.76961e-05
0.000868104
-7.91582e-05
0.00085971
-8.01024e-05
0.000851235
-8.0538e-05
0.000842736
-8.04795e-05
0.000834268
-7.99475e-05
0.000825881
-7.89674e-05
0.000817621
-7.75693e-05
0.000809531
-7.57872e-05
0.000801646
-7.36579e-05
0.000793999
-7.12203e-05
0.000786615
-6.85146e-05
0.000779515
-6.55814e-05
0.000772714
-6.24611e-05
0.000766222
-5.91935e-05
0.000760046
-5.58167e-05
0.000754185
-5.23673e-05
0.000748638
-4.88799e-05
0.000743396
-4.53867e-05
0.000738451
-4.19174e-05
0.000733787
-3.84994e-05
0.000729389
-3.51575e-05
0.000725239
-3.19138e-05
0.000721316
-2.87882e-05
0.000717598
-2.57983e-05
0.000714062
-2.29592e-05
0.000710682
-2.02843e-05
0.000707435
-1.7785e-05
0.000704295
-1.54708e-05
0.000701234
-1.33499e-05
0.000698227
-1.14289e-05
0.000695247
-9.71386e-06
0.000692268
-8.21065e-06
0.000689264
-6.92301e-06
0.000686207
-5.85833e-06
0.000683074
-5.01854e-06
0.000679837
-4.40454e-06
0.00067647
-4.01781e-06
0.000672947
-3.86648e-06
0.000669243
-3.94705e-06
0.00066533
-4.26269e-06
0.000661179
-4.81571e-06
0.000656759
-5.61166e-06
0.000652044
-6.66999e-06
0.000647003
-7.9858e-06
0.000641602
-9.57779e-06
0.000635806
-1.14582e-05
0.000629578
-1.36511e-05
0.000622879
-1.61813e-05
0.000615664
-1.90751e-05
0.000607886
-2.23679e-05
0.000599492
-2.61064e-05
0.000590421
-3.03504e-05
0.000580608
-3.51724e-05
0.000569979
-4.06628e-05
0.000558451
-4.6933e-05
0.000545929
-5.412e-05
0.000532306
-6.23939e-05
0.000517462
-7.1967e-05
0.000501259
-8.31048e-05
0.000483541
-9.61471e-05
0.000464131
-0.000111517
0.000442828
-0.000129803
0.000419415
-0.000151701
0.000393656
-0.000178234
0.000365323
-0.00021063
0.000334172
-0.000250838
0.000300183
-0.000300962
0.000263057
-0.0003645
0.00022405
-0.000446098
0.000182373
-0.000543825
0.00014246
-0.000678051
9.98035e-05
-0.000769558
4.10429e-05
-0.000898071
-0.00051788
0.000957556
1.67892e-06
0.000959265
4.9824e-06
0.000962077
9.6706e-06
0.000965584
1.31134e-05
0.000969353
1.47934e-05
0.000973047
1.46979e-05
0.000976406
1.29929e-05
0.000979243
9.95955e-06
0.00098142
5.90791e-06
0.000982852
1.11577e-06
0.000983492
-4.22615e-06
0.000983302
-9.89207e-06
0.000982274
-1.5691e-05
0.000980418
-2.15014e-05
0.000977752
-2.72191e-05
0.000974306
-3.27609e-05
0.000970116
-3.80615e-05
0.000965224
-4.30695e-05
0.000959676
-4.77443e-05
0.000953523
-5.20537e-05
0.000946819
-5.59722e-05
0.000939618
-5.94791e-05
0.00093198
-6.25576e-05
0.000923965
-6.51948e-05
0.000915633
-6.7381e-05
0.000907047
-6.91106e-05
0.000898271
-7.03817e-05
0.000889366
-7.11975e-05
0.000880394
-7.15656e-05
0.000871413
-7.14989e-05
0.00086248
-7.10148e-05
0.000853648
-7.01353e-05
0.000844965
-6.88864e-05
0.000836475
-6.72972e-05
0.000828217
-6.53995e-05
0.000820224
-6.3227e-05
0.000812524
-6.08144e-05
0.000805139
-5.81971e-05
0.000798088
-5.54101e-05
0.000791383
-5.24879e-05
0.00078503
-4.94638e-05
0.000779032
-4.63699e-05
0.000773389
-4.32364e-05
0.000768094
-4.00915e-05
0.000763138
-3.69616e-05
0.000758509
-3.38708e-05
0.000754192
-3.08409e-05
0.00075017
-2.78918e-05
0.000746423
-2.50412e-05
0.00074293
-2.2305e-05
0.000739668
-1.96969e-05
0.000736613
-1.72292e-05
0.00073374
-1.49124e-05
0.000731025
-1.27553e-05
0.00072844
-1.07658e-05
0.000725962
-8.95004e-06
0.000723562
-7.31392e-06
0.000721215
-5.86358e-06
0.000718894
-4.60204e-06
0.000716574
-3.53885e-06
0.000714227
-2.67115e-06
0.000711832
-2.00937e-06
0.000709364
-1.54975e-06
0.000706791
-1.29373e-06
0.000704089
-1.24542e-06
0.000701232
-1.40586e-06
0.000698193
-1.77678e-06
0.00069495
-2.36811e-06
0.000691463
-3.18295e-06
0.000687702
-4.22447e-06
0.000683638
-5.51385e-06
0.000679236
-7.05684e-06
0.000674458
-8.8732e-06
0.000669265
-1.09882e-05
0.000663613
-1.34226e-05
0.000657451
-1.62062e-05
0.000650725
-1.93805e-05
0.000643373
-2.29983e-05
0.000635325
-2.71246e-05
0.000626503
-3.18406e-05
0.000616816
-3.72463e-05
0.000606162
-4.34659e-05
0.000594422
-5.06536e-05
0.000581458
-5.90032e-05
0.000567111
-6.87576e-05
0.000551194
-8.02305e-05
0.000533491
-9.38132e-05
0.00051374
-0.000110052
0.000491645
-0.000129606
0.000466851
-0.000153439
0.000438961
-0.00018274
0.000407476
-0.000219353
0.000371998
-0.000265484
0.000331718
-0.00032422
0.000286874
-0.000401254
0.000236083
-0.000493033
0.000180695
-0.000622664
0.000120124
-0.000708987
4.05723e-05
-0.000818519
-0.000477308
0.000996674
1.15611e-06
0.000997973
3.68385e-06
0.00100024
7.40798e-06
0.00100314
1.02078e-05
0.00100632
1.16137e-05
0.00100946
1.15577e-05
0.00101231
1.01481e-05
0.00101466
7.6052e-06
0.00101638
4.1842e-06
0.00101737
1.26101e-07
0.00101758
-4.43722e-06
0.00101696
-9.27203e-06
0.00101551
-1.42321e-05
0.00101321
-1.92083e-05
0.0010101
-2.41097e-05
0.00100621
-2.88635e-05
0.00100156
-3.34122e-05
0.000996198
-3.77108e-05
0.000990177
-4.17238e-05
0.000983546
-4.5423e-05
0.000976361
-4.87862e-05
0.000968677
-5.17954e-05
0.000960555
-5.44362e-05
0.000952058
-5.66976e-05
0.000943249
-5.85713e-05
0.000934191
-6.00527e-05
0.000924949
-6.11402e-05
0.000915588
-6.18364e-05
0.00090617
-6.21479e-05
0.000896757
-6.20854e-05
0.000887406
-6.16636e-05
0.000878171
-6.09008e-05
0.000869104
-5.98189e-05
0.000860249
-5.84424e-05
0.000851648
-5.67981e-05
0.000843335
-5.49143e-05
0.000835341
-5.28204e-05
0.00082769
-5.05461e-05
0.000820401
-4.81212e-05
0.000813488
-4.55751e-05
0.00080696
-4.29361e-05
0.000800822
-4.02315e-05
0.000795073
-3.74871e-05
0.000789708
-3.47272e-05
0.000784721
-3.19744e-05
0.0007801
-2.92495e-05
0.000775831
-2.65716e-05
0.000771897
-2.39579e-05
0.00076828
-2.14239e-05
0.000764958
-1.89837e-05
0.000761911
-1.66496e-05
0.000759114
-1.44324e-05
0.000756544
-1.23419e-05
0.000754175
-1.03862e-05
0.000751981
-8.57253e-06
0.000749938
-6.90683e-06
0.000748019
-5.39453e-06
0.000746197
-4.04218e-06
0.000744448
-2.85225e-06
0.000742743
-1.83396e-06
0.000741068
-9.9617e-07
0.00073938
-3.2209e-07
0.00073766
1.70638e-07
0.000735894
4.71788e-07
0.000734048
6.01334e-07
0.000732093
5.48492e-07
0.000730001
3.15324e-07
0.000727731
-9.81324e-08
0.000725285
-7.36943e-07
0.000722621
-1.56057e-06
0.000719699
-2.59178e-06
0.000716483
-3.84009e-06
0.000712941
-5.33185e-06
0.000709033
-7.07962e-06
0.000704713
-9.10262e-06
0.00069993
-1.1424e-05
0.000694629
-1.40794e-05
0.000688746
-1.71145e-05
0.000682206
-2.05855e-05
0.000674929
-2.45633e-05
0.000666818
-2.91355e-05
0.000657764
-3.44109e-05
0.000647636
-4.05256e-05
0.000636283
-4.7651e-05
0.000623528
-5.60027e-05
0.000609159
-6.58609e-05
0.000592922
-7.75761e-05
0.000574508
-9.16384e-05
0.000553548
-0.000108647
0.000529586
-0.000129477
0.000502078
-0.000155231
0.000470303
-0.000187578
0.000433516
-0.000228698
0.000390466
-0.00028117
0.00034048
-0.000351268
0.000281699
-0.000434252
0.000213139
-0.000554104
0.000137549
-0.000633397
4.40993e-05
-0.000725069
-0.000433208
0.0010304
7.88998e-07
0.00103139
2.69232e-06
0.00103322
5.58232e-06
0.00103563
7.79718e-06
0.00103831
8.93177e-06
0.00104098
8.89411e-06
0.00104337
7.75106e-06
0.00104531
5.67157e-06
0.00104663
2.86261e-06
0.00104725
-4.91782e-07
0.00104708
-4.26888e-06
0.00104609
-8.28093e-06
0.00104426
-1.24015e-05
0.00104159
-1.65401e-05
0.0010381
-2.06198e-05
0.00103381
-2.45791e-05
0.00102877
-2.83692e-05
0.00102301
-3.19521e-05
0.00101659
-3.52975e-05
0.00100954
-3.83818e-05
0.00100194
-4.11861e-05
0.000993845
-4.36955e-05
0.000985306
-4.5898e-05
0.000976393
-4.77844e-05
0.00096717
-4.93481e-05
0.000957702
-5.05851e-05
0.000948057
-5.14944e-05
0.000938298
-5.2078e-05
0.000928491
-5.23412e-05
0.000918699
-5.22928e-05
0.00090898
-5.19446e-05
0.000899391
-5.13116e-05
0.000889983
-5.04113e-05
0.000880804
-4.92637e-05
0.000871897
-4.78906e-05
0.000863297
-4.63149e-05
0.000855037
-4.45606e-05
0.000847143
-4.2652e-05
0.000839636
-4.06135e-05
0.00083253
-3.84691e-05
0.000825836
-3.62422e-05
0.000819559
-3.39553e-05
0.000813702
-3.16297e-05
0.00080826
-2.92856e-05
0.000803228
-2.69419e-05
0.000798594
-2.4616e-05
0.000794347
-2.23238e-05
0.000790469
-2.00801e-05
0.000786943
-1.78981e-05
0.000783749
-1.57898e-05
0.000780865
-1.37661e-05
0.00077827
-1.18365e-05
0.000775937
-1.00097e-05
0.000773844
-8.29314e-06
0.000771965
-6.69349e-06
0.000770275
-5.21624e-06
0.000768746
-3.86623e-06
0.000767355
-2.65113e-06
0.000766071
-1.56816e-06
0.000764879
-6.41795e-07
0.000763731
1.52214e-07
0.00076264
7.68648e-07
0.000761562
1.2489e-06
0.000760457
1.57623e-06
0.000759311
1.74756e-06
0.000758097
1.76295e-06
0.000756791
1.62111e-06
0.000755379
1.31331e-06
0.000753802
8.40531e-07
0.000752027
2.14587e-07
0.000750051
-6.15733e-07
0.000747838
-1.6274e-06
0.000745329
-2.82335e-06
0.000742497
-4.24736e-06
0.000739295
-5.90092e-06
0.000735672
-7.80043e-06
0.000731569
-9.97629e-06
0.000726921
-1.24663e-05
0.000721653
-1.53176e-05
0.000715679
-1.85895e-05
0.000708899
-2.2356e-05
0.000701198
-2.67092e-05
0.000692437
-3.17647e-05
0.000682454
-3.76686e-05
0.000671057
-4.46055e-05
0.000658012
-5.28158e-05
0.000643038
-6.26017e-05
0.000625785
-7.43852e-05
0.000605826
-8.86884e-05
0.000582621
-0.000106271
0.000555502
-0.000128112
0.000523568
-0.000155645
0.000485779
-0.000190909
0.000440538
-0.000235929
0.000386332
-0.000297061
0.000321035
-0.000368955
0.000241757
-0.000474826
0.000153709
-0.000545349
4.99864e-05
-0.000621347
-0.000383222
0.00105865
5.29858e-07
0.00105941
1.92526e-06
0.0010609
4.09442e-06
0.00106292
5.78164e-06
0.00106519
6.65707e-06
0.00106746
6.62689e-06
0.00106948
5.73021e-06
0.00107106
4.09275e-06
0.00107205
1.87422e-06
0.00107234
-7.85207e-07
0.00107186
-3.78782e-06
0.00107056
-6.97927e-06
0.00106842
-1.02609e-05
0.00106544
-1.35598e-05
0.00106163
-1.6814e-05
0.00105702
-1.99737e-05
0.00105166
-2.29999e-05
0.00104557
-2.58616e-05
0.0010388
-2.85345e-05
0.00103142
-3.09996e-05
0.00102348
-3.32417e-05
0.00101503
-3.5249e-05
0.00100614
-3.7012e-05
0.000996882
-3.85236e-05
0.000987313
-3.97785e-05
0.000977501
-4.07738e-05
0.000967516
-4.15086e-05
0.000957422
-4.19846e-05
0.000947287
-4.22058e-05
0.000937173
-4.2179e-05
0.000927142
-4.19132e-05
0.00091725
-4.142e-05
0.000907551
-4.07126e-05
0.000898094
-3.98067e-05
0.000888922
-3.87188e-05
0.000880074
-3.74667e-05
0.000871582
-3.60688e-05
0.000863475
-3.45441e-05
0.000855773
-3.29115e-05
0.000848493
-3.11897e-05
0.000841648
-2.93969e-05
0.000835243
-2.75508e-05
0.000829282
-2.56683e-05
0.000823762
-2.37654e-05
0.000818677
-2.1857e-05
0.000814018
-1.99571e-05
0.000809773
-1.80786e-05
0.000805926
-1.62334e-05
0.000802461
-1.44326e-05
0.000799357
-1.26861e-05
0.000796594
-1.1003e-05
0.000794149
-9.39169e-06
0.000791999
-7.85959e-06
0.000790119
-6.41346e-06
0.000788485
-5.05926e-06
0.000787071
-3.80197e-06
0.000785851
-2.64623e-06
0.000784798
-1.59804e-06
0.000783893
-6.63773e-07
0.000783095
1.56538e-07
0.000782418
8.292e-07
0.000781791
1.39551e-06
0.000781207
1.83271e-06
0.000780644
2.13944e-06
0.000780072
2.31988e-06
0.000779465
2.37003e-06
0.000778796
2.28958e-06
0.000778035
2.07493e-06
0.000777161
1.7138e-06
0.00077616
1.21589e-06
0.000774966
5.78723e-07
0.000773537
-1.9908e-07
0.000771886
-1.17239e-06
0.000769936
-2.29739e-06
0.000767651
-3.6158e-06
0.000764979
-5.12783e-06
0.00076186
-6.85774e-06
0.000758229
-8.8353e-06
0.000754009
-1.10978e-05
0.000749112
-1.36925e-05
0.000743435
-1.66788e-05
0.000736857
-2.01311e-05
0.000729235
-2.41427e-05
0.000720399
-2.88324e-05
0.000710144
-3.43505e-05
0.000698222
-4.08937e-05
0.000684329
-4.87092e-05
0.000668086
-5.81425e-05
0.000649023
-6.96254e-05
0.000626533
-8.3781e-05
0.000599853
-0.000101432
0.000567945
-0.000123737
0.000529529
-0.000152492
0.000482759
-0.000189159
0.000425388
-0.000239691
0.00035516
-0.000298728
0.000267602
-0.000387268
0.000169429
-0.000447175
5.73378e-05
-0.000509255
-0.000325884
0.00108133
3.43864e-07
0.00108193
1.31787e-06
0.00108317
2.8586e-06
0.00108488
4.06944e-06
0.00108684
4.70165e-06
0.00108879
4.67496e-06
0.00109051
4.01099e-06
0.0010918
2.79892e-06
0.00109252
1.15589e-06
0.00109256
-8.20872e-07
0.00109182
-3.05491e-06
0.00109027
-5.43011e-06
0.00108789
-7.87404e-06
0.00108466
-1.03322e-05
0.0010806
-1.27582e-05
0.00107575
-1.51149e-05
0.00107012
-1.73729e-05
0.00106377
-1.95091e-05
0.00105674
-2.15054e-05
0.00104908
-2.33476e-05
0.00104087
-2.50246e-05
0.00103215
-2.65276e-05
0.00102298
-2.78498e-05
0.00101345
-2.89861e-05
0.0010036
-2.99327e-05
0.000993515
-3.06877e-05
0.000983256
-3.12504e-05
0.000972894
-3.1622e-05
0.000962493
-3.18055e-05
0.00095212
-3.18054e-05
0.000941835
-3.16283e-05
0.000931697
-3.12821e-05
0.000921761
-3.07761e-05
0.000912075
-3.01212e-05
0.000902685
-2.93291e-05
0.000893631
-2.84122e-05
0.000884946
-2.73836e-05
0.000876658
-2.62568e-05
0.000868792
-2.5045e-05
0.000861364
-2.37618e-05
0.000854388
-2.24203e-05
0.00084787
-2.10332e-05
0.000841814
-1.96128e-05
0.00083622
-1.81709e-05
0.000831081
-1.67185e-05
0.00082639
-1.5266e-05
0.000822135
-1.38233e-05
0.000818301
-1.23995e-05
0.000814872
-1.10031e-05
0.000811828
-9.64207e-06
0.000809148
-8.32383e-06
0.000806812
-7.05527e-06
0.000804795
-5.8428e-06
0.000803074
-4.69231e-06
0.000801624
-3.60932e-06
0.00080042
-2.59803e-06
0.000799434
-1.66033e-06
0.000798648
-8.12106e-07
0.000798012
-2.69859e-08
0.000797554
6.14564e-07
0.000797197
1.18621e-06
0.000796942
1.65044e-06
0.000796755
2.01976e-06
0.000796608
2.28563e-06
0.00079648
2.448e-06
0.000796345
2.5051e-06
0.000796178
2.45641e-06
0.000795953
2.3001e-06
0.000795636
2.03139e-06
0.000795194
1.65716e-06
0.000794612
1.16096e-06
0.00079386
5.5274e-07
0.000792848
-1.60068e-07
0.000791597
-1.0463e-06
0.000790038
-2.05666e-06
0.00078812
-3.20966e-06
0.000785784
-4.52176e-06
0.000782963
-6.0143e-06
0.000779579
-7.71457e-06
0.000775544
-9.65748e-06
0.000770753
-1.18871e-05
0.000765081
-1.44591e-05
0.000758382
-1.74438e-05
0.00075048
-2.0931e-05
0.000741165
-2.50347e-05
0.000730176
-2.99047e-05
0.000717196
-3.57295e-05
0.000701825
-4.27718e-05
0.000683563
-5.13632e-05
0.000661758
-6.19763e-05
0.000635579
-7.52534e-05
0.000603896
-9.20533e-05
0.000565241
-0.000113838
0.000517626
-0.000141543
0.000458185
-0.00018025
0.000384631
-0.000225174
0.000291141
-0.000293778
0.000185105
-0.00034114
6.58013e-05
-0.000389952
-0.000260083
0.00109839
2.05562e-07
0.00109889
8.19084e-07
0.00109994
1.80119e-06
0.00110144
2.5769e-06
0.00110316
2.98135e-06
0.00110487
2.95782e-06
0.00110637
2.51794e-06
0.00110745
1.71964e-06
0.00110796
6.38122e-07
0.00110781
-6.64419e-07
0.00110689
-2.1347e-06
0.00110516
-3.69787e-06
0.00110259
-5.30594e-06
0.00109918
-6.92333e-06
0.00109494
-8.51978e-06
0.0010899
-1.0071e-05
0.00108408
-1.15579e-05
0.00107754
-1.29655e-05
0.00107031
-1.4282e-05
0.00106246
-1.54985e-05
0.00105405
-1.66078e-05
0.00104513
-1.76046e-05
0.00103576
-1.84845e-05
0.00102602
-1.92447e-05
0.00101597
-1.98829e-05
0.00100568
-2.03979e-05
0.000995218
-2.07896e-05
0.000984655
-2.10587e-05
0.000974056
-2.12068e-05
0.000963487
-2.12367e-05
0.000953011
-2.1152e-05
0.000942686
-2.09576e-05
0.000932569
-2.06583e-05
0.000922708
-2.02607e-05
0.000913151
-1.97715e-05
0.000903936
-1.91979e-05
0.0008951
-1.85475e-05
0.000886672
-1.78282e-05
0.000878675
-1.7048e-05
0.000871128
-1.62149e-05
0.000864045
-1.5337e-05
0.000857433
-1.4422e-05
0.000851298
-1.34776e-05
0.000845638
-1.25112e-05
0.00084045
-1.153e-05
0.000835725
-1.05408e-05
0.000831451
-9.55016e-06
0.000827616
-8.56447e-06
0.000824203
-7.58977e-06
0.000821193
-6.6319e-06
0.000818566
-5.69649e-06
0.000816299
-4.78899e-06
0.000814371
-3.91463e-06
0.000812757
-3.07834e-06
0.000811433
-2.285e-06
0.000810373
-1.53779e-06
0.000809555
-8.4241e-07
0.000808943
-2.00527e-07
0.000808547
3.68982e-07
0.000808295
8.66771e-07
0.000808191
1.29047e-06
0.000808197
1.64455e-06
0.000808291
1.92527e-06
0.00080845
2.12659e-06
0.000808648
2.25e-06
0.000808859
2.29374e-06
0.000809058
2.25746e-06
0.000809217
2.14099e-06
0.00080931
1.93894e-06
0.000809308
1.65857e-06
0.000809174
1.29537e-06
0.000808874
8.52758e-07
0.000808396
3.18463e-07
0.000807657
-3.07919e-07
0.000806641
-1.04077e-06
0.000805288
-1.85636e-06
0.00080354
-2.77391e-06
0.000801331
-3.80471e-06
0.000798582
-4.9656e-06
0.000795203
-6.27893e-06
0.000791089
-7.77331e-06
0.000786115
-9.48532e-06
0.000780133
-1.14616e-05
0.000772965
-1.37622e-05
0.000764394
-1.64639e-05
0.000754157
-1.96676e-05
0.000741928
-2.35009e-05
0.000727297
-2.81403e-05
0.000709744
-3.38109e-05
0.000688596
-4.08282e-05
0.000662976
-4.96337e-05
0.000631708
-6.07848e-05
0.00059319
-7.53201e-05
0.000545385
-9.37375e-05
0.00048494
-0.000119805
0.000409626
-0.00014986
0.000312451
-0.000196603
0.000200872
-0.000229561
7.51646e-05
-0.000264244
-0.000184918
0.00110979
9.59066e-08
0.00111022
3.87853e-07
0.00111116
8.57939e-07
0.00111251
1.22725e-06
0.00111408
1.41566e-06
0.00111564
1.39592e-06
0.00111698
1.17439e-06
0.00111792
7.80696e-07
0.00111831
2.54247e-07
0.00111802
-3.81345e-07
0.00111698
-1.09439e-06
0.00111513
-1.84857e-06
0.00111245
-2.62269e-06
0.00110893
-3.39999e-06
0.00110457
-4.16649e-06
0.00109941
-4.91113e-06
0.00109348
-5.62529e-06
0.00108682
-6.3023e-06
0.00107947
-6.93708e-06
0.0010715
-7.52578e-06
0.00106296
-8.06556e-06
0.00105391
-8.55434e-06
0.00104441
-8.9907e-06
0.00103454
-9.37366e-06
0.00102436
-9.70268e-06
0.00101394
-9.9775e-06
0.00100335
-1.01982e-05
0.000992656
-1.0365e-05
0.000981928
-1.04786e-05
0.000971231
-1.05396e-05
0.000960628
-1.05492e-05
0.000950179
-1.05087e-05
0.00093994
-1.04187e-05
0.000929961
-1.02818e-05
0.000920289
-1.00994e-05
0.000910964
-9.87349e-06
0.000902023
-9.60639e-06
0.000893495
-9.30043e-06
0.000885405
-8.95814e-06
0.000877773
-8.5822e-06
0.000870611
-8.17543e-06
0.00086393
-7.74072e-06
0.000857733
-7.28107e-06
0.000852022
-6.79958e-06
0.000846791
-6.29939e-06
0.000842034
-5.78376e-06
0.00083774
-5.25601e-06
0.000833895
-4.71961e-06
0.000830484
-4.17812e-06
0.000827487
-3.63524e-06
0.000824885
-3.09482e-06
0.000822657
-2.56081e-06
0.00082078
-2.03726e-06
0.00081923
-1.52836e-06
0.000817983
-1.03843e-06
0.000817016
-5.70398e-07
0.00081629
-1.16826e-07
0.000815808
2.81937e-07
0.000815525
6.51246e-07
0.000815426
9.66626e-07
0.000815475
1.24156e-06
0.000815651
1.46768e-06
0.000815931
1.6453e-06
0.000816289
1.76924e-06
0.000816699
1.83966e-06
0.000817137
1.85533e-06
0.000817579
1.81611e-06
0.000817996
1.72335e-06
0.000818361
1.57456e-06
0.000818643
1.37599e-06
0.000818816
1.12317e-06
0.000818844
8.24233e-07
0.000818687
4.75475e-07
0.000818296
8.32481e-08
0.000817646
-3.90475e-07
0.00081668
-8.90901e-07
0.000815337
-1.43062e-06
0.000813549
-2.01707e-06
0.00081124
-2.65669e-06
0.00080832
-3.359e-06
0.000804684
-4.13704e-06
0.000800207
-5.00818e-06
0.000794741
-5.99527e-06
0.000788107
-7.12846e-06
0.00078009
-8.44686e-06
0.000770424
-1.00022e-05
0.000758784
-1.18602e-05
0.000744754
-1.41106e-05
0.000727813
-1.68695e-05
0.000707278
-2.02932e-05
0.000682256
-2.46117e-05
0.000651558
-3.00868e-05
0.00061352
-3.72822e-05
0.000566139
-4.63571e-05
0.000505687
-5.93528e-05
0.000430099
-7.42718e-05
0.000331393
-9.78967e-05
0.000216715
-0.000114883
8.60494e-05
-0.000133579
-9.88687e-05
0.00111549
-2.10065e-10
0.00111589
-1.07059e-08
0.00111678
-2.85854e-08
0.00111806
-5.08005e-08
0.00111954
-7.22782e-08
0.00112103
-8.80784e-08
0.0011223
-9.45184e-08
0.00112317
-8.8553e-08
0.00112349
-7.04863e-08
0.00112315
-4.13163e-08
0.00112206
9.22363e-10
0.00112016
5.22551e-08
0.00111742
1.09802e-07
0.00111385
1.7113e-07
0.00110945
2.33816e-07
0.00110424
2.95592e-07
0.00109827
3.54452e-07
0.00109155
4.0861e-07
0.00108416
4.56466e-07
0.00107614
4.96531e-07
0.00106755
5.27388e-07
0.00105844
5.4767e-07
0.0010489
5.5607e-07
0.00103897
5.51397e-07
0.00102874
5.32647e-07
0.00101826
4.99094e-07
0.00100761
4.50386e-07
0.000996859
3.86617e-07
0.000986073
3.0839e-07
0.000975316
2.16841e-07
0.000964653
1.13636e-07
0.000954144
4.28245e-10
0.000943844
-1.18874e-07
0.000933805
-2.42771e-07
0.000924074
-3.67696e-07
0.000914691
-4.90483e-07
0.000905692
-6.07955e-07
0.000897109
-7.17035e-07
0.000888965
-8.14781e-07
0.000881282
-8.98508e-07
0.000874072
-9.65848e-07
0.000867346
-1.01476e-06
0.000861109
-1.04359e-06
0.00085536
-1.05106e-06
0.000850097
-1.03634e-06
0.000845312
-9.99041e-07
0.000840996
-9.3923e-07
0.000837133
-8.57467e-07
0.00083371
-7.54796e-07
0.000830708
-6.32746e-07
0.000828106
-4.93326e-07
0.000825884
-3.38995e-07
0.00082402
-1.72648e-07
0.000822488
3.12351e-09
0.000821266
1.83376e-07
0.000820329
3.6713e-07
0.000819663
5.49402e-07
0.000819225
7.19444e-07
0.000818999
8.77184e-07
0.000818957
1.00916e-06
0.000819075
1.12346e-06
0.000819328
1.21482e-06
0.000819691
1.28181e-06
0.000820141
1.31977e-06
0.000820651
1.32883e-06
0.000821199
1.30822e-06
0.000821756
1.25816e-06
0.000822299
1.18102e-06
0.000822798
1.07565e-06
0.000823225
9.48625e-07
0.000823549
7.99428e-07
0.000823737
6.36229e-07
0.00082375
4.62122e-07
0.000823567
2.66541e-07
0.000823113
6.34866e-08
0.000822349
-1.26911e-07
0.000821221
-3.03024e-07
0.000819664
-4.59374e-07
0.000817599
-5.92412e-07
0.00081494
-6.99305e-07
0.00081158
-7.77816e-07
0.000807399
-8.26415e-07
0.000802248
-8.44512e-07
0.000795952
-8.32744e-07
0.000788298
-7.93097e-07
0.000779025
-7.28956e-07
0.00076781
-6.44718e-07
0.000754245
-5.45792e-07
0.000737813
-4.37766e-07
0.000717847
-3.26852e-07
0.000693453
-2.17871e-07
0.000663484
-1.17553e-07
0.000626228
-2.68575e-08
0.000579826
4.56127e-08
0.000520366
1.06426e-07
0.000445949
1.45815e-07
0.000347878
1.74224e-07
0.000232803
1.92085e-07
9.90313e-05
1.93279e-07
1.62544e-07
-0.00067241
0.00956644
-0.00944106
-0.000798032
0.00955167
-0.00942605
-0.000924375
0.00952813
-0.00940178
-0.001052
0.00950645
-0.00937883
-0.00118127
0.00948827
-0.009359
-0.00131248
0.00947453
-0.00934331
-0.00144608
0.00946588
-0.00933228
-0.00158253
0.00946285
-0.0093264
-0.00172252
0.00946624
-0.00932625
-0.00186708
0.00947786
-0.00933329
-0.00201812
0.00950111
-0.00935007
-0.0021781
0.00954344
-0.00938345
-0.00235109
0.00961307
-0.00944008
-0.00253895
0.00972091
-0.00953305
-0.00273639
0.00985598
-0.00965854
-0.00290418
0.00996996
-0.00980217
-0.00293607
0.00985584
-0.00982395
-0.00257652
0.00906745
-0.009427
-0.0015084
0.00661512
-0.00768324
0.00216142
-0.00366981
-0.000679921
0.00969132
-0.000805306
0.00967706
-0.000931485
0.00965431
-0.00105901
0.00963397
-0.00118811
0.00961737
-0.00131915
0.00960557
-0.00145249
0.00959922
-0.00158858
0.00959894
-0.00172808
0.00960573
-0.00187204
0.00962182
-0.00202232
0.00965139
-0.00218153
0.00970264
-0.00235255
0.00978409
-0.0025341
0.00990246
-0.00271067
0.0100326
-0.00282273
0.010082
-0.00273259
0.00976571
-0.0022015
0.00853636
-0.00107159
0.00548521
0.00108982
-0.00068715
0.00981574
-0.000812188
0.00980209
-0.000938158
0.00978028
-0.00106549
0.0097613
-0.00119439
0.00974627
-0.00132521
0.00973639
-0.00145828
0.00973229
-0.00159403
0.00973469
-0.00173311
0.00974482
-0.00187663
0.00976534
-0.00202643
0.00980119
-0.00218489
0.0098611
-0.00235338
0.00995259
-0.00252571
0.0100748
-0.00267442
0.0101813
-0.00272037
0.010128
-0.00250815
0.00955349
-0.00183664
0.00786484
-0.000694986
0.00434356
0.000394839
-0.00069406
0.0099397
-0.000818709
0.00992674
-0.000944393
0.00990596
-0.00107145
0.00988836
-0.00120008
0.00987491
-0.00133061
0.00986692
-0.00146335
0.00986502
-0.00159869
0.00987004
-0.00173731
0.00988343
-0.00188031
0.00990834
-0.0020295
0.00995038
-0.00218667
0.0100183
-0.00235105
0.010117
-0.00251028
0.010234
-0.00262405
0.010295
-0.00259702
0.0101009
-0.00226775
0.00922423
-0.00147986
0.00707695
-0.000428954
0.00329265
-3.41156e-05
-0.000700629
0.0100632
-0.000824866
0.010051
-0.000950204
0.0100313
-0.00107692
0.0100151
-0.00120522
0.0100032
-0.00133537
0.00999707
-0.00146766
0.00999731
-0.00160249
0.0100049
-0.00174051
0.0100214
-0.00188284
0.0100507
-0.0020311
0.0100986
-0.00218619
0.0101734
-0.00234431
0.0102751
-0.00248579
0.0103755
-0.00255737
0.0103666
-0.00245254
0.00999611
-0.00201861
0.0087903
-0.00115559
0.00621394
-0.000243671
0.00238073
-0.000277787
-0.000706861
0.0101861
-0.000830668
0.0101748
-0.000955625
0.0101563
-0.00108196
0.0101414
-0.00120987
0.0101311
-0.00133957
0.0101268
-0.00147134
0.0101291
-0.00160553
0.0101391
-0.00174278
0.0101587
-0.00188416
0.010192
-0.00203089
0.0102454
-0.00218249
0.010325
-0.00233145
0.0104241
-0.00245051
0.0104946
-0.00247481
0.0103909
-0.00229133
0.00981262
-0.00176989
0.00826885
-0.000879849
0.0053239
-0.000126003
0.00162688
-0.00040379
-0.000712729
0.0103085
-0.000836083
0.0102981
-0.000960614
0.0102808
-0.00108653
0.0102673
-0.00121397
0.0102586
-0.00134315
0.010256
-0.00147429
0.0102602
-0.00160775
0.0102725
-0.00174414
0.0102951
-0.00188445
0.0103324
-0.00202946
0.0103904
-0.00217702
0.0104725
-0.00231513
0.0105622
-0.0024082
0.0105876
-0.00238125
0.010364
-0.00212019
0.00955156
-0.00152533
0.00767399
-0.000659671
0.00445824
-6.24482e-05
0.00102966
-0.000466238
-0.000718284
0.0104302
-0.000841193
0.010421
-0.000965291
0.0104049
-0.00109078
0.0103928
-0.00121775
0.0103855
-0.00134639
0.0103846
-0.00147689
0.0103907
-0.00160957
0.0104052
-0.001745
0.0104305
-0.00188392
0.0104713
-0.00202621
0.0105327
-0.00216729
0.0106136
-0.00229016
0.010685
-0.00235205
0.0106495
-0.00227248
0.0102844
-0.00194237
0.00922145
-0.0012961
0.00702772
-0.000494714
0.00365685
-3.80644e-05
0.000573008
-0.000504303
-0.000723369
0.0105513
-0.000845825
0.0105435