/*--------------------------------*- C++ -*----------------------------------*\
  =========                 |
  \\      /  F ield         | OpenFOAM: The Open Source CFD Toolbox
   \\    /   O peration     | Website:  https://openfoam.org
    \\  /    A nd           | Version:  7
     \\/     M anipulation  |
\*---------------------------------------------------------------------------*/
FoamFile
{
    version     2.0;
    format      ascii;
    class       volScalarField;
    location    "15";
    object      p;
}
// * * * * * * * * * * * * * * * * * * * * * * * * * * * * * * * * * * * * * //

dimensions      [0 2 -2 0 0 0 0];

internalField   nonuniform List<scalar> 
225
(
-0.0106553
0.0293488
-0.0130758
0.0533258
-0.0291769
0.0757486
-0.0619314
0.094758
-0.12332
-0.0106436
0.0293245
-0.0130516
0.0532817
-0.0291277
0.075657
-0.061856
0.0945781
-0.123456
-0.0106312
0.0292985
-0.0130274
0.0532325
-0.0290824
0.0755562
-0.061793
0.0943836
-0.123644
-0.0106189
0.0292724
-0.013004
0.0531832
-0.0290384
0.0754551
-0.0617324
0.0941877
-0.123844
-0.0106066
0.029246
-0.0129809
0.053134
-0.0289945
0.0753547
-0.061671
0.0939904
-0.124047
-0.0105943
0.0292195
-0.0129581
0.053085
-0.0289509
0.0752545
-0.0616099
0.0937914
-0.12426
-0.0105821
0.0291929
-0.0129355
0.0530362
-0.0289076
0.075155
-0.0615489
0.0935916
-0.12447
-0.0105694
0.029166
-0.0129117
0.0529861
-0.0288612
0.0750517
-0.061482
0.0933775
-0.124627
-0.0105551
0.0291368
-0.0128841
0.052929
-0.0288092
0.0749325
-0.061409
0.0931255
-0.124814
-0.0105414
0.0291035
-0.0128638
0.0528705
-0.028778
0.0748211
-0.0613793
0.0929284
-0.125535
-0.122342
0.0294644
-0.0131602
0.0535259
-0.0293506
0.076148
-0.0621874
0.0954717
-0.122504
-0.0106942
0.029442
-0.0131447
0.0534862
-0.02932
0.0760694
-0.0621455
0.0953364
-0.122672
-0.010685
0.0294192
-0.0131297
0.0534462
-0.0292907
0.0759904
-0.0621057
0.0952
-0.122851
-0.0106759
0.0293962
-0.0131152
0.0534063
-0.0292619
0.075912
-0.0620667
0.0950641
-0.123032
-0.0106661
0.0293726
-0.0130978
0.0533663
-0.0292252
0.0758327
-0.062011
0.0949211
-0.12318
-0.0104085
0.0287032
-0.0127506
0.0523804
-0.0286709
0.0741558
-0.0614072
0.0925448
-0.136984
-0.0104434
0.0284316
-0.0130828
0.0521837
-0.0289171
0.073796
-0.0613342
0.0889598
-0.125148
-0.0104464
0.0278895
-0.0131793
0.0515427
-0.0288412
0.0726961
-0.0608031
0.0847646
-0.131438
-0.0104762
0.0274174
-0.0133088
0.0510642
-0.0287141
0.0718613
-0.0598956
0.0811762
-0.120224
-0.010537
0.0269578
-0.0134022
0.0505788
-0.0284974
0.0709542
-0.0587543
0.0767558
-0.116979
-0.0106247
0.026526
-0.013467
0.050155
-0.0282106
0.0702008
-0.0573652
0.0746482
-0.106897
-0.0107451
0.0261223
-0.0135102
0.0497896
-0.0278864
0.0695233
-0.0559692
0.0712017
-0.10115
-0.0109004
0.0257511
-0.0135301
0.049495
-0.0275055
0.0690273
-0.0542205
0.0703428
-0.0909393
-0.0110618
0.0254219
-0.0135447
0.0492534
-0.0271869
0.0686122
-0.0530889
0.0683274
-0.0866734
-0.0113974
0.0249867
-0.0135228
0.0490764
-0.026589
0.0683706
-0.0506191
0.0681336
-0.0745171
)
;

boundaryField
{
    inlet
    {
        type            zeroGradient;
    }
    outlet
    {
        type            fixedValue;
        value           uniform 0;
    }
    polygon
    {
        type            zeroGradient;
    }
    top
    {
        type            symmetryPlane;
    }
    bottom
    {
        type            symmetryPlane;
    }
    outside
    {
        type            slip;
    }
    procBoundary3to2
    {
        type            processor;
        value           nonuniform List<scalar> 5(-0.046714 -0.0463852 -0.0467437 -0.0458573 -0.0451725);
    }
    procBoundary3to6
    {
        type            processor;
        value           nonuniform List<scalar> 
21
(
0.0632587
0.0636402
0.0639364
0.0642252
0.064525
0.0648432
0.0651427
0.0652663
0.0653378
0.0667121
0.0618717
0.0620575
0.0622372
0.0623965
0.062538
0.0627873
0.10124
0.0165937
0.00251641
-0.0349437
-0.0373662
)
;
    }
    procBoundary3to7
    {
        type            processor;
        value           nonuniform List<scalar> 
11
(
-0.122186
0.0294863
-0.013176
0.0535652
-0.0293814
0.0762259
-0.0622298
0.095605
0.095605
-0.0107033
-0.0107033
)
;
    }
}


// ************************************************************************* //
