/*--------------------------------*- C++ -*----------------------------------*\
  =========                 |
  \\      /  F ield         | OpenFOAM: The Open Source CFD Toolbox
   \\    /   O peration     | Website:  https://openfoam.org
    \\  /    A nd           | Version:  7
     \\/     M anipulation  |
\*---------------------------------------------------------------------------*/
FoamFile
{
    version     2.0;
    format      ascii;
    class       volVectorField;
    location    "15";
    object      U;
}
// * * * * * * * * * * * * * * * * * * * * * * * * * * * * * * * * * * * * * //

dimensions      [0 1 -1 0 0 0 0];

internalField   nonuniform List<vector> 
225
(
(0.945256 0.0143531 2.32687e-19)
(0.838216 0.0133278 -1.37411e-18)
(0.849473 0.0162475 6.74845e-19)
(0.718266 0.0139041 -8.01478e-18)
(0.753631 0.0187182 3.44665e-18)
(0.581124 0.0122168 -3.47907e-18)
(0.675616 0.0247805 -7.41608e-18)
(0.399989 0.00960215 -9.21717e-18)
(0.631863 0.0340151 7.11826e-18)
(0.946584 0.0147007 2.68953e-19)
(0.840359 0.0136421 -1.24849e-18)
(0.851765 0.0166362 7.0906e-19)
(0.721534 0.0142219 -7.61563e-18)
(0.757263 0.0191591 3.54537e-18)
(0.585955 0.0124866 -3.82813e-18)
(0.680896 0.0253592 -8.73144e-18)
(0.407185 0.00977402 -8.52993e-18)
(0.640087 0.0355872 6.48436e-18)
(0.947931 0.0150456 3.19293e-19)
(0.842532 0.0139528 -1.17262e-18)
(0.854089 0.0170206 7.76899e-19)
(0.724848 0.0145337 -6.83874e-18)
(0.760943 0.0195923 3.7007e-18)
(0.590855 0.0127486 -4.31348e-18)
(0.686239 0.0259236 -9.40742e-18)
(0.414492 0.00993571 -8.13974e-18)
(0.648385 0.0371777 4.36828e-18)
(0.949296 0.0153875 2.71367e-19)
(0.844733 0.0142603 -1.11981e-18)
(0.856443 0.0174007 8.73344e-19)
(0.728205 0.0148415 -6.23474e-18)
(0.764669 0.0200196 3.94796e-18)
(0.59582 0.0130063 -3.89779e-18)
(0.691643 0.0264797 -1.02501e-17)
(0.421902 0.0100921 -6.79464e-18)
(0.656748 0.0388101 2.35237e-18)
(0.950678 0.0157263 2.20455e-19)
(0.846962 0.0145644 -1.0811e-18)
(0.858825 0.0177767 1.14629e-18)
(0.731604 0.0151449 -5.77638e-18)
(0.768437 0.0204416 4.2782e-18)
(0.600847 0.013259 -3.50608e-18)
(0.697101 0.0270279 -1.05649e-17)
(0.429411 0.0102419 -5.74147e-18)
(0.665165 0.0404858 5.75235e-19)
(0.952076 0.0160623 1.78682e-19)
(0.849216 0.0148652 -1.08643e-18)
(0.861233 0.0181489 1.4411e-18)
(0.73504 0.0154436 -5.47903e-18)
(0.772245 0.0208581 4.28331e-18)
(0.605931 0.0135062 -3.29533e-18)
(0.70261 0.0275678 -1.03604e-17)
(0.437011 0.010384 -4.84703e-18)
(0.673626 0.0422051 -1.24563e-18)
(0.953489 0.0163953 1.58936e-19)
(0.851493 0.0151624 -1.13754e-18)
(0.863665 0.0185171 1.61722e-18)
(0.738512 0.0157372 -5.37684e-18)
(0.776088 0.0212692 4.05697e-18)
(0.611068 0.013747 -3.04663e-18)
(0.708165 0.0280993 -9.65996e-18)
(0.444698 0.0105167 -4.11468e-18)
(0.68212 0.0439648 -3.00077e-18)
(0.954915 0.0167253 1.33619e-19)
(0.853793 0.0154559 -1.21125e-18)
(0.86612 0.0188808 1.68502e-18)
(0.742017 0.016026 -4.74996e-18)
(0.779965 0.0216736 3.61448e-18)
(0.616254 0.0139823 -1.96618e-18)
(0.713761 0.0286198 -9.11973e-18)
(0.452464 0.0106439 -3.47432e-18)
(0.690638 0.0457326 -4.60421e-18)
(0.956354 0.0170514 1.14238e-19)
(0.856112 0.0157466 -1.34619e-18)
(0.868596 0.0192381 1.79749e-18)
(0.745552 0.016313 -4.23717e-18)
(0.783871 0.0220677 3.26432e-18)
(0.621486 0.0142199 -9.60052e-19)
(0.719394 0.0291241 -8.04707e-18)
(0.460305 0.0107861 -4.21e-18)
(0.69917 0.0474925 -6.5847e-18)
(0.957805 0.0173735 1.06903e-19)
(0.85845 0.0160365 -1.49673e-18)
(0.87109 0.0195902 1.95579e-18)
(0.749114 0.0166013 -3.85574e-18)
(0.787804 0.0224576 2.92419e-18)
(0.626759 0.0144629 -9.58181e-19)
(0.72506 0.0296279 -7.22469e-18)
(0.468214 0.0109324 -5.10387e-18)
(0.707707 0.0494942 -8.39423e-18)
(0.584466 0.0247604 9.1258e-18)
(0.826845 0.0114993 -1.93592e-18)
(0.837388 0.0139991 -5.37741e-21)
(0.701215 0.0120423 -8.17347e-18)
(0.734879 0.0161597 3.80025e-18)
(0.556609 0.010628 -2.40915e-18)
(0.649101 0.021414 -3.53182e-18)
(0.364746 0.00853351 -8.51139e-18)
(0.591918 0.0262016 8.67831e-18)
(0.939557 0.0127587 1.28373e-19)
(0.829049 0.0118771 -1.57801e-18)
(0.839729 0.0144636 1.02954e-19)
(0.704513 0.0124289 -7.95211e-18)
(0.738506 0.0166903 3.43038e-18)
(0.561334 0.0109597 -2.52773e-18)
(0.654219 0.0221138 -4.23624e-18)
(0.371496 0.00876389 -8.73305e-18)
(0.599573 0.0276894 8.56806e-18)
(0.94096 0.0131688 1.46793e-19)
(0.831305 0.012251 -1.26324e-18)
(0.842126 0.0149239 2.14799e-19)
(0.70789 0.0128106 -7.94527e-18)
(0.742217 0.0172156 3.2373e-18)
(0.566173 0.0112859 -2.63662e-18)
(0.659454 0.0228065 -5.09925e-18)
(0.378421 0.00898575 -9.26631e-18)
(0.60742 0.0292264 8.58191e-18)
(0.942393 0.0135757 1.69854e-19)
(0.83361 0.012621 -1.36657e-18)
(0.844574 0.0153802 3.43569e-19)
(0.711341 0.0131869 -8.21478e-18)
(0.746009 0.0177361 3.49721e-18)
(0.571123 0.0116057 -2.84383e-18)
(0.664801 0.0234927 -6.00733e-18)
(0.385514 0.00919732 -1.02104e-17)
(0.61545 0.0308117 8.88578e-18)
(0.943856 0.013979 1.98761e-19)
(0.835963 0.012987 -1.52464e-18)
(0.847073 0.0158312 5.03228e-19)
(0.714864 0.0135576 -7.99538e-18)
(0.749877 0.0182482 3.39861e-18)
(0.576179 0.0119188 -3.0972e-18)
(0.670253 0.0241649 -6.24925e-18)
(0.392771 0.0093995 -1.01892e-17)
(0.623652 0.0324247 7.80349e-18)
(0.974403 0.0209952 4.233e-20)
(0.885013 0.019322 2.79304e-19)
(0.89905 0.0235263 4.12292e-18)
(0.788316 0.0197027 -8.96975e-19)
(0.83002 0.0267504 3.77619e-19)
(0.681811 0.0167704 -3.33758e-19)
(0.782265 0.035002 -1.02625e-18)
(0.545472 0.0114113 -3.02973e-18)
(0.787595 0.0738315 -4.3391e-17)
(1.00774 0.0259381 8.63917e-20)
(0.93779 0.0254248 1.613e-19)
(0.955359 0.027651 5.92681e-19)
(0.867268 0.0258302 -3.3979e-19)
(0.915532 0.0309685 3.80033e-20)
(0.794802 0.0219711 2.31318e-19)
(0.8999 0.0406829 -2.88106e-19)
(0.717875 0.0138272 -8.42977e-19)
(0.950924 0.108454 -6.50826e-18)
(1.03591 0.0297797 1.41004e-19)
(0.982048 0.0291061 5.14869e-19)
(1.00291 0.0307709 4.34946e-18)
(0.933659 0.0285336 -2.32574e-19)
(0.986977 0.0335329 -1.36802e-19)
(0.888761 0.0229774 -7.44244e-20)
(0.994031 0.0418205 -6.61466e-19)
(0.853715 0.00826649 -4.03081e-18)
(1.07225 0.0893661 -4.01212e-17)
(1.05627 0.0326453 -9.60695e-20)
(1.01382 0.0319589 1.19275e-18)
(1.03713 0.0322483 8.10888e-19)
(0.980884 0.0306002 8.23957e-19)
(1.03691 0.0342779 -1.14325e-18)
(0.953254 0.0242012 4.70334e-19)
(1.05471 0.0415778 1.71702e-19)
(0.940072 0.00681248 -3.39364e-19)
(1.12341 0.091197 -7.55488e-19)
(1.06946 0.0348391 -2.16825e-18)
(1.03449 0.0339491 8.74004e-18)
(1.05914 0.032909 5.46034e-18)
(1.01086 0.0315742 1.34002e-17)
(1.0678 0.0341133 -1.07067e-17)
(0.99261 0.0243776 9.13821e-19)
(1.08922 0.039704 -5.02677e-20)
(0.989095 0.00330347 5.79054e-20)
(1.14734 0.0746194 5.03096e-19)
(1.07752 0.0366244 -9.27158e-20)
(1.04741 0.0354808 1.12646e-18)
(1.07242 0.0331181 4.69959e-18)
(1.02877 0.0321999 4.16305e-19)
(1.08579 0.0335479 -6.75846e-19)
(1.0159 0.0247159 -1.07934e-19)
(1.10952 0.0378179 -2.47501e-18)
(1.01981 0.00255334 -1.16048e-18)
(1.15974 0.0682124 7.84762e-19)
(1.08233 0.038144 -1.72058e-19)
(1.05557 0.0367588 1.02933e-18)
(1.08018 0.0330831 3.97257e-19)
(1.03916 0.0325916 8.88172e-19)
(1.09578 0.0326785 -1.26434e-18)
(1.02912 0.0248509 -1.71123e-18)
(1.12017 0.0353561 -1.98631e-17)
(1.03685 0.000778086 -1.86974e-17)
(1.16268 0.05657 -4.13384e-19)
(1.08513 0.039489 -2.35921e-18)
(1.06084 0.0378781 7.88955e-18)
(1.08467 0.0329385 5.63253e-19)
(1.04518 0.0328494 1.35212e-17)
(1.10128 0.0315627 -1.02116e-17)
(1.03691 0.0248286 9.1123e-19)
(1.12653 0.0322331 -1.58451e-18)
(1.04806 0.000497211 -4.41071e-18)
(1.1629 0.0458986 -2.97689e-17)
(1.08658 0.0404887 -1.14707e-19)
(1.06412 0.0387766 3.1263e-19)
(1.08714 0.0328795 9.36484e-20)
(1.04855 0.0331573 8.25324e-19)
(1.10416 0.0307813 -7.04908e-19)
(1.04112 0.0250835 1.87647e-19)
(1.12929 0.0304575 -6.47603e-19)
(1.05321 -0.000163659 -3.42832e-18)
(1.15933 0.0395669 -2.83572e-17)
(1.08702 0.0420298 -1.61621e-20)
(1.06582 0.0402051 -2.11627e-19)
(1.08828 0.0326098 2.30054e-20)
(1.05019 0.0333945 -3.95861e-20)
(1.10558 0.0289199 -5.08736e-20)
(1.04372 0.024922 5.8697e-20)
(1.13124 0.0256128 -2.52477e-19)
(1.05801 0.000209011 -4.21681e-19)
(1.15642 0.0246581 -3.26106e-18)
)
;

boundaryField
{
    inlet
    {
        type            uniformFixedValue;
        uniformValue    constant (1 0 0);
        value           nonuniform 0();
    }
    outlet
    {
        type            pressureInletOutletVelocity;
        value           nonuniform List<vector> 
24
(
(0.945256 0.0143531 2.32687e-19)
(0.946584 0.0147007 2.68953e-19)
(0.947931 0.0150456 3.19293e-19)
(0.949296 0.0153875 2.71367e-19)
(0.950678 0.0157263 2.20455e-19)
(0.952076 0.0160623 1.78682e-19)
(0.953489 0.0163953 1.58936e-19)
(0.954915 0.0167253 1.33619e-19)
(0.956354 0.0170514 1.14238e-19)
(0.957805 0.0173735 1.06903e-19)
(0.939557 0.0127587 1.28373e-19)
(0.94096 0.0131688 1.46793e-19)
(0.942393 0.0135757 1.69854e-19)
(0.943856 0.013979 1.98761e-19)
(0.974403 0.0209952 4.233e-20)
(1.00774 0.0259381 8.63917e-20)
(1.03591 0.0297797 1.41004e-19)
(1.05627 0.0326453 -9.60695e-20)
(1.06946 0.0348391 -2.16825e-18)
(1.07752 0.0366244 -9.27158e-20)
(1.08233 0.038144 -1.72058e-19)
(1.08513 0.039489 -2.35921e-18)
(1.08658 0.0404887 -1.14707e-19)
(1.08702 0.0420298 -1.61621e-20)
)
;
    }
    polygon
    {
        type            fixedValue;
        value           nonuniform 0();
    }
    top
    {
        type            symmetryPlane;
    }
    bottom
    {
        type            symmetryPlane;
    }
    outside
    {
        type            zeroGradient;
    }
    procBoundary3to2
    {
        type            processor;
        value           nonuniform List<vector> 5((1.13859 -0.0769916 -5.06366e-19) (1.15003 -0.0842874 1.48685e-17) (1.16123 -0.0816337 1.86588e-17) (1.16025 -0.085707 4.46574e-18) (1.1603 -0.0801288 -1.30249e-17));
    }
    procBoundary3to6
    {
        type            processor;
        value           nonuniform List<vector> 
21
(
(-0.0311578 0.0680435 1.9203e-18)
(-0.0355656 0.0697486 1.48635e-18)
(-0.039824 0.0714242 1.1279e-18)
(-0.043926 0.0731135 6.05094e-21)
(-0.0478653 0.0748122 -1.09932e-18)
(-0.0516366 0.0765044 -2.13049e-18)
(-0.0552352 0.078189 -3.02293e-18)
(-0.0586572 0.079955 -4.07413e-18)
(-0.0618985 0.0818993 -5.95545e-18)
(-0.0649558 0.0834282 -7.8491e-18)
(-0.00172229 0.0561281 5.69916e-18)
(-0.0069098 0.0581423 5.15754e-18)
(-0.0120097 0.0601561 4.88295e-18)
(-0.0170051 0.0621782 3.9077e-18)
(-0.0218797 0.0642224 2.96952e-18)
(-0.0266186 0.0662413 2.37176e-18)
(-0.0909478 0.0814232 -2.59523e-17)
(0.619953 0.0116312 8.51803e-19)
(0.898027 -0.0260384 7.88612e-18)
(1.04332 -0.0562592 1.71916e-18)
(1.09654 -0.0696763 1.3525e-18)
)
;
    }
    procBoundary3to7
    {
        type            processor;
        value           nonuniform List<vector> 
11
(
(0.577225 0.0233653 1.14148e-17)
(0.824696 0.0111178 -1.96038e-18)
(0.835105 0.0135303 -9.3484e-20)
(0.697998 0.0116509 -8.74174e-18)
(0.731342 0.0156236 3.83989e-18)
(0.552005 0.0102909 -2.48672e-18)
(0.644106 0.0207061 -2.95836e-18)
(0.358179 0.00829509 -8.6e-18)
(0.358179 0.00829509 -8.6e-18)
(0.938187 0.0123453 1.2714e-19)
(0.938187 0.0123453 1.2714e-19)
)
;
    }
}


// ************************************************************************* //
