/*--------------------------------*- C++ -*----------------------------------*\
  =========                 |
  \\      /  F ield         | OpenFOAM: The Open Source CFD Toolbox
   \\    /   O peration     | Website:  https://openfoam.org
    \\  /    A nd           | Version:  7
     \\/     M anipulation  |
\*---------------------------------------------------------------------------*/
FoamFile
{
    version     2.0;
    format      ascii;
    class       volScalarField;
    location    "60";
    object      p;
}
// * * * * * * * * * * * * * * * * * * * * * * * * * * * * * * * * * * * * * //

dimensions      [0 2 -2 0 0 0 0];

internalField   nonuniform List<scalar> 
175
(
-0.00620739
-0.00288164
0.000282192
0.00325474
0.00601103
0.00853065
0.0107978
0.0128011
0.0145338
0.0159931
0.0171804
0.0181006
0.0187616
0.0191744
0.0193522
0.0193099
0.019064
-0.0100386
-0.00680515
-0.00373404
-0.000849817
0.00182711
0.00428055
0.00649842
0.00847263
0.0101988
0.0116761
0.0129069
0.0138961
0.0146515
0.0151825
0.0155007
0.0156185
0.0155498
-0.0120971
-0.00889906
-0.00586848
-0.00302797
-0.000395829
0.00201382
0.00419097
0.00612948
0.00782684
0.00928384
0.0105042
0.0114942
0.0122622
0.0128185
0.0131746
0.0133431
0.0133371
-0.0139893
-0.0108115
-0.00780762
-0.00499824
-0.0023996
-2.37898e-05
0.00212116
0.00403101
0.005705
0.00714547
0.00835748
0.0093484
0.0101275
0.0107053
0.0110939
0.0113055
0.0113531
-0.0154227
-0.0122472
-0.00925371
-0.00646156
-0.00388556
-0.00153621
0.000580089
0.00246078
0.00410676
0.00552199
0.00671303
0.0076886
0.0084591
0.00903616
0.00943226
0.00966033
0.00973344
-0.0164582
-0.0132692
-0.0102714
-0.007483
-0.004918
-0.00258574
-0.000491342
0.00136401
0.00298268
0.0043701
0.00553431
0.00648542
0.00723511
0.00779617
0.00818202
0.00840635
0.00848276
-0.0171832
-0.0139684
-0.0109537
-0.00815725
-0.00559231
-0.0032675
-0.00118701
0.000649102
0.00224442
0.00360571
0.00474235
0.00566579
0.00638899
0.00692592
0.00729105
0.00749896
0.00756396
-0.0176758
-0.0144257
-0.0113845
-0.00857014
-0.00599576
-0.00366953
-0.00159497
0.000228711
0.00180612
0.00314515
0.00425639
0.00515255
0.0058478
0.00635727
0.00669649
0.00688098
0.00692584
-0.0180095
-0.0147186
-0.0116442
-0.00880474
-0.00621341
-0.00387822
-0.00180227
1.58286e-05
0.00158147
0.00290351
0.00399357
0.00486548
0.00553451
0.0060169
0.00632919
0.00648781
0.00650866
-0.0182457
-0.0149121
-0.0118016
-0.00893299
-0.0063198
-0.0039701
-0.00188682
-6.82086e-05
0.00149172
0.00280253
0.00387673
0.00472905
0.00537578
0.00583409
0.00612145
0.00625515
0.00625185
-0.0184286
-0.0150547
-0.0119089
-0.00901061
-0.00637371
)
;

boundaryField
{
    inlet
    {
        type            zeroGradient;
    }
    outlet
    {
        type            fixedValue;
        value           nonuniform 0();
    }
    polygon
    {
        type            zeroGradient;
    }
    top
    {
        type            symmetryPlane;
    }
    bottom
    {
        type            symmetryPlane;
    }
    outside
    {
        type            slip;
    }
    procBoundary61to53
    {
        type            processor;
        value           nonuniform List<scalar> 
18
(
-0.00400651
-0.00191198
-8.81963e-05
0.00147119
0.00277626
0.00384017
0.00467838
0.00530795
0.00574685
0.00601334
0.00612545
0.00610049
-0.018585
-0.0151772
-0.0120008
-0.00907578
-0.00400651
-0.00641658
)
;
    }
    procBoundary61to54
    {
        type            processor;
        value           nonuniform List<scalar> 2(-0.0217782 -0.0220056);
    }
    procBoundary61to60
    {
        type            processor;
        value           nonuniform List<scalar> 10(0.018632 0.0153088 0.0131704 0.0112498 0.0096645 0.00842447 0.00749982 0.00684546 0.00640679 0.00612723);
    }
    procBoundary61to62
    {
        type            processor;
        value           nonuniform List<scalar> 9(-0.00966145 -0.0134056 -0.015436 -0.0173161 -0.0187568 -0.0198152 -0.0205754 -0.0211115 -0.0214935);
    }
}


// ************************************************************************* //
