/*--------------------------------*- C++ -*----------------------------------*\
  =========                 |
  \\      /  F ield         | OpenFOAM: The Open Source CFD Toolbox
   \\    /   O peration     | Website:  https://openfoam.org
    \\  /    A nd           | Version:  7
     \\/     M anipulation  |
\*---------------------------------------------------------------------------*/
FoamFile
{
    version     2.0;
    format      ascii;
    class       volScalarField;
    location    "76";
    object      p;
}
// * * * * * * * * * * * * * * * * * * * * * * * * * * * * * * * * * * * * * //

dimensions      [0 2 -2 0 0 0 0];

internalField   nonuniform List<scalar> 
115
(
-0.0231665
-0.0237697
-0.0242778
-0.0246957
-0.0250293
-0.0252851
-0.02547
-0.0255915
-0.0256574
-0.0256755
-0.0256541
-0.0256011
-0.0255243
-0.0254314
-0.0253297
-0.0252263
-0.0231432
-0.0237473
-0.0242564
-0.0246756
-0.0250106
-0.0252678
-0.0254543
-0.0255774
-0.0256449
-0.0256646
-0.0256448
-0.0255933
-0.025518
-0.0254265
-0.0253261
-0.0252239
-0.0232757
-0.0238745
-0.0243774
-0.0247894
-0.0251165
-0.0253654
-0.025543
-0.025657
-0.0257153
-0.0257259
-0.0256971
-0.0256368
-0.0255531
-0.0254537
-0.0253461
-0.0252373
-0.0232107
-0.0238121
-0.0243181
-0.0247337
-0.0250648
-0.0253178
-0.0254998
-0.0256183
-0.0256811
-0.0256963
-0.0256718
-0.0256158
-0.0255362
-0.0254407
-0.0253367
-0.0252311
-0.0234479
-0.0240393
-0.0245335
-0.0249358
-0.0252522
-0.0254898
-0.0256556
-0.0257575
-0.0258035
-0.0258021
-0.0257615
-0.0256899
-0.0255954
-0.025486
-0.0253693
-0.0252523
-0.0233543
-0.0239499
-0.0244489
-0.0248565
-0.0251789
-0.0254227
-0.0255951
-0.0257037
-0.0257565
-0.0257616
-0.0257273
-0.0256618
-0.0255731
-0.0254691
-0.0253573
-0.0252448
-0.0255119
-0.0253844
-0.0252582
-0.0235463
-0.0241332
-0.0246221
-0.0250184
-0.0253284
-0.025559
-0.0257176
-0.0258122
-0.0258509
-0.0258423
-0.0257946
-0.0257164
-0.0256159
-0.025501
-0.0253795
-0.0252584
)
;

boundaryField
{
    inlet
    {
        type            zeroGradient;
    }
    outlet
    {
        type            fixedValue;
        value           nonuniform 0();
    }
    polygon
    {
        type            zeroGradient;
    }
    top
    {
        type            symmetryPlane;
    }
    bottom
    {
        type            symmetryPlane;
    }
    outside
    {
        type            slip;
    }
    procBoundary38to30
    {
        type            processor;
        value           nonuniform List<scalar> 
16
(
-0.0231431
-0.0237472
-0.0242564
-0.0246756
-0.0250106
-0.0252678
-0.0254543
-0.0255774
-0.0256449
-0.0256647
-0.0256448
-0.0255933
-0.025518
-0.0254265
-0.0253262
-0.0252239
)
;
    }
    procBoundary38to37
    {
        type            processor;
        value           nonuniform List<scalar> 7(-0.0251276 -0.0251262 -0.0251338 -0.0251305 -0.0251418 -0.025138 -0.0251444);
    }
    procBoundary38to39
    {
        type            processor;
        value           nonuniform List<scalar> 7(-0.0224641 -0.0224401 -0.0225767 -0.0225096 -0.0227547 -0.0226579 -0.0228565);
    }
    procBoundary38to45
    {
        type            processor;
        value           uniform -0.0251399;
    }
    procBoundary38to46
    {
        type            processor;
        value           nonuniform List<scalar> 
17
(
-0.0236521
-0.0242331
-0.0247154
-0.0251046
-0.0254071
-0.0256301
-0.025781
-0.0258679
-0.0258989
-0.0258823
-0.0258267
-0.0257409
-0.0256333
-0.0256333
-0.025541
-0.0254027
-0.0252662
)
;
    }
}


// ************************************************************************* //
