/*--------------------------------*- C++ -*----------------------------------*\
  =========                 |
  \\      /  F ield         | OpenFOAM: The Open Source CFD Toolbox
   \\    /   O peration     | Website:  https://openfoam.org
    \\  /    A nd           | Version:  7
     \\/     M anipulation  |
\*---------------------------------------------------------------------------*/
FoamFile
{
    version     2.0;
    format      ascii;
    class       volVectorField;
    location    "10";
    object      U;
}
// * * * * * * * * * * * * * * * * * * * * * * * * * * * * * * * * * * * * * //

dimensions      [0 1 -1 0 0 0 0];

internalField   nonuniform List<vector> 
50
(
(0.995863 0.151739 -4.32575e-18)
(0.585657 0.111478 1.07109e-18)
(-0.0359012 0.0412388 -1.85633e-18)
(-0.642894 0.0211361 6.40162e-18)
(-0.769413 0.00856033 -6.68237e-18)
(0.990781 -0.150617 -1.0731e-17)
(0.773647 -0.158479 -1.48963e-18)
(0.469593 -0.150832 -2.13121e-18)
(0.248368 -0.0972569 8.82088e-17)
(0.110216 -0.0255921 7.41841e-18)
(0.800108 -0.0682757 -2.60992e-18)
(0.599693 -0.0697198 1.06068e-18)
(0.32716 -0.0594699 -8.68802e-19)
(0.0769118 -0.0369179 9.41366e-18)
(-0.074361 -0.0135595 2.467e-19)
(0.895934 -0.111672 2.62675e-17)
(0.793096 -0.108448 -2.4077e-17)
(0.644672 -0.0922559 2.46351e-17)
(0.493018 -0.0614506 4.235e-18)
(0.394601 -0.0217798 2.55897e-17)
(0.810923 -0.0648207 2.79777e-18)
(0.73479 -0.0610673 -9.55605e-19)
(0.621168 -0.0513826 6.4725e-19)
(0.498742 -0.0344574 -1.53105e-17)
(0.417712 -0.0122459 -1.28599e-18)
(0.892728 -0.0619214 9.13553e-18)
(0.84713 -0.0576321 -7.20525e-18)
(0.776111 -0.0485614 7.11631e-18)
(0.697566 -0.0330174 -6.84129e-18)
(0.645347 -0.0118024 6.53279e-18)
(0.864462 -0.0458714 -9.76306e-18)
(0.831925 -0.041739 9.81925e-18)
(0.782381 -0.0347264 -1.04329e-17)
(0.728348 -0.023475 -1.90098e-18)
(0.692745 -0.00835687 -1.19369e-17)
(0.914293 -0.0359608 -9.69092e-19)
(0.894017 -0.0325543 6.06411e-19)
(0.864258 -0.0269558 -1.04008e-18)
(0.832647 -0.0181608 1.10446e-18)
(0.812127 -0.0064485 -1.10562e-18)
(0.91136 -0.0275762 4.89917e-18)
(0.89771 -0.0246751 4.8218e-19)
(0.878972 -0.0201574 4.87467e-18)
(0.859812 -0.0134253 6.88909e-19)
(0.847588 -0.00473515 4.99505e-18)
(0.931849 -0.0145602 4.32549e-19)
(0.925928 -0.0129299 7.55299e-20)
(0.918226 -0.0104577 4.13659e-19)
(0.910617 -0.006905 7.93715e-19)
(0.905848 -0.00242353 3.8053e-19)
)
;

boundaryField
{
    inlet
    {
        type            uniformFixedValue;
        uniformValue    constant (1 0 0);
        value           nonuniform 0();
    }
    outlet
    {
        type            pressureInletOutletVelocity;
        value           nonuniform List<vector> 5((0.931849 -0.0145602 4.32549e-19) (0.925928 -0.0129299 7.55299e-20) (0.918226 -0.0104577 4.13659e-19) (0.910617 -0.006905 7.93715e-19) (0.905848 -0.00242353 3.8053e-19));
    }
    polygon
    {
        type            fixedValue;
        value           nonuniform 0();
    }
    top
    {
        type            symmetryPlane;
    }
    bottom
    {
        type            symmetryPlane;
    }
    outside
    {
        type            zeroGradient;
    }
    procBoundary11to7
    {
        type            processor;
        value           nonuniform List<vector> 10((0.905848 0.00242353 6.70292e-22) (0.847588 0.00473515 2.03385e-19) (0.812127 0.0064485 -3.76996e-19) (0.692745 0.00835688 -1.97019e-18) (0.645347 0.0118024 -7.14834e-18) (0.417712 0.0122459 -1.71679e-17) (0.394601 0.0217798 -2.40866e-17) (-0.074361 0.0135595 9.65388e-20) (0.110216 0.0255921 1.86258e-17) (-0.769413 -0.00856033 -1.45679e-16));
    }
    procBoundary11to10
    {
        type            processor;
        value           nonuniform List<vector> 5((1.19991 0.239454 -2.57113e-17) (1.00037 0.223754 1.55549e-18) (0.508097 0.169507 -2.60589e-17) (-0.0834733 0.229554 -2.09094e-16) (-0.22374 0.202496 -1.06297e-17));
    }
    procBoundary11to15
    {
        type            processor;
        value           nonuniform List<vector> 10((1.20967 0.181072 3.59307e-18) (1.10654 -0.123097 -7.79925e-17) (0.917737 -0.0563641 3.79799e-18) (0.954341 -0.104941 -3.09551e-18) (0.854165 -0.0641601 1.18023e-17) (0.917089 -0.063207 8.14294e-18) (0.88219 -0.0484492 1.03166e-18) (0.925655 -0.0382378 1.60035e-18) (0.91972 -0.0295897 4.95712e-18) (0.935719 -0.0156821 1.17754e-18));
    }
}


// ************************************************************************* //
