/*--------------------------------*- C++ -*----------------------------------*\
  =========                 |
  \\      /  F ield         | OpenFOAM: The Open Source CFD Toolbox
   \\    /   O peration     | Website:  https://openfoam.org
    \\  /    A nd           | Version:  7
     \\/     M anipulation  |
\*---------------------------------------------------------------------------*/
FoamFile
{
    version     2.0;
    format      ascii;
    class       surfaceScalarField;
    location    "38";
    object      phi;
}
// * * * * * * * * * * * * * * * * * * * * * * * * * * * * * * * * * * * * * //

dimensions      [0 3 -1 0 0 0 0];

internalField   nonuniform List<scalar> 
321
(
-0.000415045
-0.00171662
-0.000294923
-0.0016291
-0.000194773
-0.00130984
-8.7834e-05
-0.00141046
7.88326e-06
-0.00124594
0.00010699
-0.00127846
0.000200694
-0.00121234
0.000294066
-0.00120141
0.000383656
-0.00115648
0.000470604
-0.00112028
0.000553235
-0.00106766
0.000631343
-0.00101068
0.000704081
-0.000944212
0.000771085
-0.000872392
0.000831978
-0.000795629
0.000734736
0.000886586
-0.000716049
0.00066144
0.000934818
-0.000634804
0.000586572
-0.000553052
0.000511199
-0.000418766
-0.00183459
-0.000300565
-0.0017473
-0.000201166
-0.00140924
-9.52261e-05
-0.0015164
-3.9361e-07
-0.00134077
9.86064e-05
-0.00137746
0.00019194
-0.00130567
0.000284984
-0.00129446
0.000374254
-0.00124575
0.000460906
-0.00120693
0.000543228
-0.00114998
0.000621016
-0.00108847
0.000693419
-0.00101661
0.000760076
-0.000939049
0.000820619
-0.000856171
0.000874885
-0.000770315
0.00092279
-0.00068271
-0.000594604
-0.000422417
-0.00194955
-0.000306406
-0.00186331
-0.0002077
-0.00150795
-0.000102909
-0.00162119
-8.15062e-06
-0.00143553
8.98452e-05
-0.00147545
0.000182803
-0.00139863
0.000275453
-0.00138711
0.000364381
-0.00133468
0.000450691
-0.00129324
0.000532671
-0.00123196
0.000610097
-0.0011659
0.000682124
-0.00108864
0.000748394
-0.00100532
0.000808547
-0.000916325
0.000862433
-0.000824201
0.000909978
-0.000730255
-0.000635824
-0.000426097
-0.00206143
-0.000312329
-0.00197708
-0.000214405
-0.00160587
-0.000110823
-0.00172477
-1.64542e-05
-0.0015299
8.07523e-05
-0.00157266
0.000173295
-0.00149117
0.000265508
-0.00147932
0.000354056
-0.00142323
0.000439986
-0.00137917
0.000521584
-0.00131356
0.000598609
-0.00124292
0.000670222
-0.00116026
0.000736065
-0.00107116
0.000795793
-0.000976052
0.000849264
-0.000877672
0.000896417
-0.000777407
-0.000676683
-0.000429792
-0.00217021
-0.000318307
-0.00208857
-0.000221254
-0.00170292
-0.000118937
-0.00182709
-2.50744e-05
-0.00162376
7.13544e-05
-0.00166909
0.000163439
-0.00158326
0.000255171
-0.00157105
0.0003433
-0.00151136
0.00042881
-0.00146468
0.00050999
-0.00139474
0.000586573
-0.0013195
0.000657734
-0.00123142
0.000723114
-0.00113654
0.000782379
-0.00103532
0.000835402
-0.000930695
0.000882133
-0.000824138
-0.000717155
-0.000433492
-0.00227588
-0.000324318
-0.00219774
-0.000228228
-0.00179901
-0.000127227
-0.00192809
-3.39557e-05
-0.00171703
6.16764e-05
-0.00176472
0.000153257
-0.00167484
0.000244466
-0.00166226
0.000332134
-0.00159903
0.000417183
-0.00154973
0.000497905
-0.00147546
0.000574008
-0.00139561
0.000644679
-0.00130209
0.000709557
-0.00120142
0.000768326
-0.00109409
0.000820869
-0.000983237
0.000867149
-0.000870418
-0.000757215
-0.000437189
-0.00237842
-0.000330343
-0.00230459
-0.000235305
-0.00189405
-0.00013567
-0.00202772
-4.30636e-05
-0.00180964
5.17411e-05
-0.00185952
0.000142772
-0.00176587
0.000233411
-0.0017529
0.000320575
-0.00168619
0.000405124
-0.00163428
0.000485348
-0.00155568
0.000560932
-0.00147119
0.000631074
-0.00137223
0.000695415
-0.00126576
0.000753654
-0.00115233
0.000805686
-0.00103527
0.000851487
-0.000916219
-0.000796839
-0.00044088
-0.00247788
-0.000336371
-0.00240909
-0.00024247
-0.00198795
-0.000144248
-0.00212595
-5.23716e-05
-0.00190151
4.15688e-05
-0.00195346
0.000132001
-0.0018563
0.000222026
-0.00184292
0.000308645
-0.00177281
0.000392651
-0.00171829
0.000472339
-0.00163537
0.000547363
-0.00154622
0.00061694
-0.0014418
0.000680709
-0.00132953
0.000738386
-0.00121
0.000789877
-0.00108676
0.000835175
-0.000961517
-0.000836004
-0.000444574
-0.00257427
-0.000342381
-0.00251129
-0.000249715
-0.00208062
-0.000152939
-0.00222272
-6.18613e-05
-0.00199259
3.118e-05
-0.0020465
0.000120962
-0.00194608
0.000210329
-0.00193229
0.000296357
-0.00185884
0.00037978
0.000458891
0.000533317
0.000602292
0.000665455
0.000722538
0.000773462
0.000818231
-0.000446808
-0.00034943
-0.000256283
-0.000162204
-7.12683e-05
2.05107e-05
0.000109856
0.000198262
0.00098713
0.00105228
0.00111002
)
;

boundaryField
{
    inlet
    {
        type            calculated;
        value           nonuniform 0();
    }
    outlet
    {
        type            calculated;
        value           nonuniform List<scalar> 10(0.000536081 0.000536738 0.000537371 0.000537981 0.000538573 0.000539154 0.000539737 0.000540335 0.000540965 0.000541648);
    }
    polygon
    {
        type            calculated;
        value           nonuniform 0();
    }
    top
    {
        type            symmetryPlane;
        value           uniform 0;
    }
    bottom
    {
        type            symmetryPlane;
        value           uniform 0;
    }
    outside
    {
        type            calculated;
        value           nonuniform 0();
    }
    procBoundary23to15
    {
        type            processor;
        value           nonuniform List<scalar> 
18
(
-0.00180171
-0.00171448
-0.00162064
-0.00151078
-0.00139269
-0.00126709
-0.00113768
-0.00100629
-0.00266911
-0.00260867
-0.00217377
-0.0023168
-0.00208353
-0.00213828
-0.00203543
-0.0020207
0.000283846
-0.00194442
)
;
    }
    procBoundary23to22
    {
        type            processor;
        value           nonuniform List<scalar> 9(0.000964342 0.000951198 0.000937276 0.000922605 0.000907208 0.000891111 0.00087434 0.000856917 -0.00087469);
    }
    procBoundary23to30
    {
        type            processor;
        value           nonuniform List<scalar> 2(0.000976672 0.00116032);
    }
    procBoundary23to31
    {
        type            processor;
        value           nonuniform List<scalar> 
19
(
0.00159559
0.00150898
0.00120969
0.00130352
0.00115022
0.00117935
0.00111863
0.00110804
0.0010669
0.00103333
0.000985027
0.000932576
0.000871473
0.000805388
0.000662296
0.000596289
0.000528834
0.000460897
-0.00091469
)
;
    }
}


// ************************************************************************* //
