/*--------------------------------*- C++ -*----------------------------------*\
  =========                 |
  \\      /  F ield         | OpenFOAM: The Open Source CFD Toolbox
   \\    /   O peration     | Website:  https://openfoam.org
    \\  /    A nd           | Version:  7
     \\/     M anipulation  |
\*---------------------------------------------------------------------------*/
FoamFile
{
    version     2.0;
    format      ascii;
    class       volScalarField;
    location    "5";
    object      p;
}
// * * * * * * * * * * * * * * * * * * * * * * * * * * * * * * * * * * * * * //

dimensions      [0 2 -2 0 0 0 0];

internalField   nonuniform List<scalar> 
125
(
-0.146179
-0.154592
-0.167099
-0.186498
-0.211233
-0.252037
-0.145556
-0.153649
-0.166274
-0.185443
-0.210284
-0.250523
-0.144886
-0.152646
-0.165376
-0.184292
-0.209179
-0.248805
-0.144159
-0.151569
-0.164387
-0.183025
-0.207899
-0.246869
-0.143376
-0.150417
-0.1633
-0.181622
-0.206404
-0.24464
-0.142586
-0.149248
-0.162187
-0.180161
-0.204772
-0.141888
-0.148189
-0.161229
-0.178894
-0.203363
-0.141214
-0.147186
-0.160419
-0.177906
-0.202448
-0.139926
-0.145492
-0.158818
-0.176111
-0.200801
-0.137126
-0.141926
-0.154687
-0.171096
-0.194929
-0.150174
-0.162265
-0.173737
-0.196052
-0.220245
-0.267982
-0.150038
-0.161829
-0.173451
-0.195631
-0.220002
-0.26741
-0.149845
-0.161313
-0.173071
-0.19506
-0.219575
-0.266522
-0.149593
-0.160719
-0.172598
-0.194345
-0.21897
-0.26534
-0.149281
-0.160047
-0.172033
-0.193496
-0.218188
-0.263894
-0.148909
-0.159295
-0.171373
-0.192509
-0.217217
-0.262175
-0.148474
-0.158458
-0.170603
-0.191364
-0.216025
-0.260106
-0.147975
-0.157532
-0.16972
-0.190052
-0.214584
-0.257644
-0.147414
-0.156538
-0.168768
-0.188667
-0.213064
-0.25506
-0.146799
-0.155531
-0.167871
-0.187451
-0.211919
-0.253147
-0.0657252
-0.0764829
-0.0581628
-0.064435
-0.051956
-0.0608755
-0.0415386
-0.0548906
-0.0286477
-0.0525757
)
;

boundaryField
{
    inlet
    {
        type            zeroGradient;
    }
    outlet
    {
        type            fixedValue;
        value           nonuniform 0();
    }
    polygon
    {
        type            zeroGradient;
    }
    top
    {
        type            symmetryPlane;
    }
    bottom
    {
        type            symmetryPlane;
    }
    outside
    {
        type            slip;
    }
    procBoundary1to0
    {
        type            processor;
        value           nonuniform List<scalar> 5(-0.0262062 -0.0194117 -0.0160628 -0.0108477 -0.00613235);
    }
    procBoundary1to2
    {
        type            processor;
        value           nonuniform List<scalar> 6(-0.150238 -0.162588 -0.173852 -0.196205 -0.220008 -0.267785);
    }
    procBoundary1to5
    {
        type            processor;
        value           nonuniform List<scalar> 
23
(
-0.299868
-0.298099
-0.295746
-0.292851
-0.289339
-0.242174
-0.242174
-0.239932
-0.238435
-0.236388
-0.229149
-0.314501
-0.314669
-0.314356
-0.313592
-0.312405
-0.310742
-0.308464
-0.305542
-0.302529
-0.300639
-0.00921758
-0.0530145
)
;
    }
}


// ************************************************************************* //
