/*--------------------------------*- C++ -*----------------------------------*\
  =========                 |
  \\      /  F ield         | OpenFOAM: The Open Source CFD Toolbox
   \\    /   O peration     | Website:  https://openfoam.org
    \\  /    A nd           | Version:  7
     \\/     M anipulation  |
\*---------------------------------------------------------------------------*/
FoamFile
{
    version     2.0;
    format      ascii;
    class       surfaceScalarField;
    location    "5";
    object      phi;
}
// * * * * * * * * * * * * * * * * * * * * * * * * * * * * * * * * * * * * * //

dimensions      [0 3 -1 0 0 0 0];

internalField   nonuniform List<scalar> 
416
(
0.000856145
0.000179816
-0.000171527
0.000865419
-0.000184294
0.000175019
0.000859868
8.0433e-05
-7.48812e-05
0.000856005
0.000138837
-0.000134974
0.000860126
-0.000142272
0.00013815
0.000840745
0.000471372
-0.000451991
0.000828173
0.000181348
-0.000168776
0.000753094
0.00183126
-0.00175618
0.00181524
-0.00170933
0.000856082
0.000188169
0.000865519
-0.000193731
0.000859713
8.62389e-05
0.000856125
0.000142425
0.000859993
-0.00014614
0.000840812
0.000490554
0.000827807
0.000194352
0.000753631
0.00190543
0.0019219
0.000856018
0.000196584
0.00086562
-0.000203332
0.000859556
9.23029e-05
0.000856249
0.000145731
0.00085986
-0.000149751
0.000840882
0.000509532
0.000827448
0.000207786
0.000754212
0.00197867
0.00202919
0.000855954
0.000205064
0.000865723
-0.000213101
0.000859395
9.86313e-05
0.000856378
0.000148749
0.000859722
-0.000153095
0.000840958
0.000528296
0.000827088
0.000221657
0.000754845
0.00205091
0.00213704
0.00085589
0.00086583
0.000859231
0.000856512
0.00085958
0.000841042
0.000826725
0.000755527
0.000929589
9.35798e-05
-8.52027e-05
0.000938095
-9.22621e-05
8.37556e-05
0.00093452
3.34305e-05
-2.9855e-05
0.000927789
8.40874e-05
-7.73573e-05
0.000934624
-8.4746e-05
7.79116e-05
0.000912288
0.000257584
-0.000235248
0.000903804
7.9236e-05
-7.0752e-05
0.000816688
0.00100535
-0.000918234
0.000897137
-0.000808641
0.00092954
0.000102006
0.000938163
-0.000100886
0.000934413
3.71802e-05
0.000927864
9.06371e-05
0.000934546
-9.14285e-05
0.000912327
0.000279803
0.000903573
8.79904e-05
0.000817034
0.00109189
0.00098621
0.000929488
0.000110483
0.000938236
-0.000109633
0.000934301
4.11155e-05
0.000927943
9.69946e-05
0.000934466
-9.79508e-05
0.000912372
0.000301897
0.000903344
9.70187e-05
0.000817442
0.00117779
0.00107576
0.000929433
0.000119015
0.000938314
-0.000118514
0.00093418
4.5249e-05
0.000928029
0.000103146
0.00093438
-0.000104302
0.000912424
0.000323852
0.000903113
0.00010633
0.00081791
0.00126299
0.00116569
0.000929375
0.000127606
0.000938397
-0.000127536
0.000934053
4.95931e-05
0.000928121
0.000109077
0.000934289
-0.000110469
0.000912483
0.000345657
0.000902878
0.000115936
0.000818435
0.00134744
0.00125594
0.000929314
0.000136258
0.000938484
-0.000136706
0.000933918
5.41599e-05
0.000928219
0.000114775
0.000934192
-0.000116442
0.000912549
0.0003673
0.000902639
0.000125846
0.000819015
0.00143106
0.00134641
0.00092925
0.000144973
0.000938577
-0.000146033
0.000933776
5.89608e-05
0.000928324
0.000120227
0.000934091
-0.000122209
0.000912623
0.000388768
0.000902397
0.000136072
0.000819651
0.00151381
0.00143705
0.000929184
0.000153755
0.000938673
-0.000155523
0.000933627
6.4007e-05
0.000928434
0.00012542
0.000933983
-0.000127758
0.000912703
0.000410048
0.00090215
0.000146625
0.000820343
0.00159561
0.0015278
0.000929115
0.000162605
0.000938775
-0.000165182
0.000933472
6.93092e-05
0.000928551
0.000130341
0.000933871
-0.000133077
0.00091279
0.000431129
0.000901898
0.000157518
0.000821088
0.00167642
0.00161858
0.000929044
0.000938881
0.000933309
0.000928676
0.000933749
0.000912887
0.000901629
0.000821874
0.000967014
8.43741e-06
0.000975194
-8.18019e-06
0.000972495
2.69983e-06
0.000964468
8.02679e-06
0.000972493
-8.02468e-06
0.000948787
2.37057e-05
0.000942125
6.66196e-06
0.000849346
9.2779e-05
7.99981e-05
0.000967009
1.68798e-05
0.000975202
-1.63728e-05
0.000972482
5.41953e-06
0.000964475
1.60341e-05
0.000972481
-1.60304e-05
0.000948779
4.74074e-05
0.000942058
1.33823e-05
0.000849292
0.000185545
0.000160435
0.000966999
2.53324e-05
0.000975216
-2.45899e-05
0.00097246
8.17592e-06
0.000964489
2.40046e-05
0.000972463
-2.40046e-05
0.000948779
7.10913e-05
0.000941988
2.01742e-05
0.000849313
0.00027822
0.000241219
0.000966984
3.38003e-05
0.000975237
-3.2843e-05
0.000972427
1.09853e-05
0.000964511
3.19215e-05
0.000972441
-3.19352e-05
0.000948788
9.47442e-05
0.000941913
2.70497e-05
0.000849404
0.000370729
0.000322255
0.000966964
4.22885e-05
0.000975264
-4.11437e-05
0.000972386
1.38639e-05
0.000964539
3.97678e-05
0.000972414
-3.98099e-05
0.000948806
0.000118353
0.000941834
3.40208e-05
0.000849564
0.000463
0.00040345
0.000966938
5.08019e-05
0.000975298
-4.95035e-05
0.000972334
1.68278e-05
0.000964575
4.75269e-05
0.000972381
-4.76164e-05
0.000948831
0.000141903
0.000941752
4.10998e-05
0.000849793
0.000554959
0.000484711
0.000966908
5.93453e-05
0.000975338
-5.79334e-05
0.000972273
1.98929e-05
0.000964618
5.51822e-05
0.000972344
-5.53426e-05
0.000948865
0.000165381
0.000941666
4.82989e-05
0.000850091
0.000646535
0.000565949
0.000966873
6.79234e-05
0.000975385
-6.64447e-05
0.000972202
2.30751e-05
0.000964668
6.27169e-05
0.000972301
-6.29761e-05
0.000948908
0.000188775
0.000941576
5.56303e-05
0.000850457
0.000737654
0.000647075
0.000966834
7.65409e-05
0.000975438
-7.50481e-05
0.000972123
2.639e-05
0.000964725
7.01149e-05
0.000972253
-7.05045e-05
0.000948958
0.00021207
0.000941481
6.31075e-05
0.000850889
0.000828246
0.000728001
0.00096679
0.000975497
0.000972032
0.00096479
0.000972197
0.000949018
0.000941374
0.000851386
)
;

boundaryField
{
    inlet
    {
        type            calculated;
        value           nonuniform List<scalar> 
25
(
-0.000864434
-0.000864434
-0.000864434
-0.000864434
-0.000864434
-0.000937966
-0.000937966
-0.000937966
-0.000937966
-0.000937966
-0.000937966
-0.000937966
-0.000937966
-0.000937966
-0.000937966
-0.000975452
-0.000975452
-0.000975452
-0.000975452
-0.000975452
-0.000975452
-0.000975452
-0.000975452
-0.000975452
-0.000975452
)
;
    }
    outlet
    {
        type            calculated;
        value           nonuniform 0();
    }
    polygon
    {
        type            calculated;
        value           nonuniform 0();
    }
    top
    {
        type            symmetryPlane;
        value           uniform 0;
    }
    bottom
    {
        type            symmetryPlane;
        value           uniform 0;
    }
    outside
    {
        type            calculated;
        value           nonuniform 0();
    }
    procBoundary8to4
    {
        type            processor;
        value           nonuniform List<scalar> 9(-1.92728e-10 3.21002e-10 -3.91904e-10 2.9077e-10 -2.12508e-10 -9.70972e-11 8.32264e-11 1.80209e-10 -5.62414e-10);
    }
    procBoundary8to9
    {
        type            processor;
        value           nonuniform List<scalar> 
25
(
0.000647192
0.00064697
0.00064692
0.000647
0.000647182
0.000728191
0.000727961
0.000727894
0.000727975
0.000728191
0.000728538
0.00072901
0.000729599
0.000730302
0.000731124
0.000769348
0.000768855
0.000768529
0.000768368
0.000768369
0.000768532
0.000768853
0.000769331
0.000769962
0.000770747
)
;
    }
    procBoundary8to12
    {
        type            processor;
        value           nonuniform List<scalar> 9(0.000213608 -0.000223041 0.00010523 0.000151468 -0.000156163 0.000546834 0.000235974 0.00212211 0.00224538);
    }
}


// ************************************************************************* //
