/*--------------------------------*- C++ -*----------------------------------*\
  =========                 |
  \\      /  F ield         | OpenFOAM: The Open Source CFD Toolbox
   \\    /   O peration     | Website:  https://openfoam.org
    \\  /    A nd           | Version:  7
     \\/     M anipulation  |
\*---------------------------------------------------------------------------*/
FoamFile
{
    version     2.0;
    format      ascii;
    class       surfaceScalarField;
    location    "76";
    object      phi;
}
// * * * * * * * * * * * * * * * * * * * * * * * * * * * * * * * * * * * * * //

dimensions      [0 3 -1 0 0 0 0];

internalField   nonuniform List<scalar> 
15760
(
0.000882442
3.30082e-06
-4.70493e-06
0.000885271
9.0694e-06
-1.18991e-05
0.000889528
1.66053e-05
-2.08615e-05
0.000894611
2.23944e-05
-2.74782e-05
0.000900004
2.57527e-05
-3.11455e-05
0.000905347
2.6771e-05
-3.21134e-05
0.000910383
2.56711e-05
-3.07076e-05
0.00091493
2.27769e-05
-2.73235e-05
0.000918855
1.843e-05
-2.23553e-05
0.000922065
1.29424e-05
-1.61524e-05
0.000924494
6.59677e-06
-9.02597e-06
0.00092609
-3.78383e-07
-1.21793e-06
0.000926855
-7.8423e-06
7.07794e-06
0.000926755
-1.55357e-05
1.56354e-05
0.000925798
-2.33425e-05
2.43002e-05
0.000923993
-3.11372e-05
3.29417e-05
0.000921362
-3.88151e-05
4.14466e-05
0.000917931
-4.62864e-05
4.97174e-05
0.000913734
-5.34733e-05
5.76699e-05
0.000908811
-6.03074e-05
6.52301e-05
0.000903207
-6.6728e-05
7.23319e-05
0.000896972
-7.26808e-05
7.89161e-05
0.00089016
-7.81169e-05
8.49292e-05
0.000882829
-8.2993e-05
9.03239e-05
0.000875041
-8.72717e-05
9.50592e-05
0.000866862
-9.09225e-05
9.91018e-05
0.000858358
-9.39222e-05
0.000102426
0.000849597
-9.62565e-05
0.000105017
0.000840648
-9.79192e-05
0.000106868
0.000831578
-9.89126e-05
0.000107983
0.000822451
-9.92477e-05
0.000108374
0.000813332
-9.89441e-05
0.000108064
0.000804277
-9.80291e-05
0.000107084
0.000795341
-9.65373e-05
0.000105473
0.000786574
-9.45096e-05
0.000103277
0.000778018
-9.1992e-05
0.000100547
0.000769713
-8.90345e-05
9.73404e-05
0.000761687
-8.56898e-05
9.37151e-05
0.000753967
-8.20136e-05
8.97335e-05
0.000746571
-7.80626e-05
8.54588e-05
0.000739511
-7.38944e-05
8.09549e-05
0.000732792
-6.95665e-05
7.62855e-05
0.000726414
-6.51352e-05
7.15127e-05
0.000720373
-6.06549e-05
6.66965e-05
0.000714656
-5.61772e-05
6.18937e-05
0.000709249
-5.17507e-05
5.71573e-05
0.000704133
-4.74196e-05
5.25359e-05
0.000699285
-4.3224e-05
4.80727e-05
0.000694678
-3.91986e-05
4.38055e-05
0.000690285
-3.53733e-05
3.97664e-05
0.000686076
-3.17725e-05
3.59814e-05
0.00068202
-2.84157e-05
3.24713e-05
0.000678086
-2.53174e-05
2.92512e-05
0.000674242
-2.24877e-05
2.63316e-05
0.000670456
-1.99327e-05
2.37185e-05
0.000666697
-1.76551e-05
2.14146e-05
0.000662933
-1.5655e-05
1.94194e-05
0.000659132
-1.39307e-05
1.77307e-05
0.000655266
-1.24787e-05
1.63448e-05
0.000651304
-1.12951e-05
1.5257e-05
0.000647217
-1.03761e-05
1.44634e-05
0.000642975
-9.71805e-06
1.396e-05
0.000638551
-9.32256e-06
1.3747e-05
0.000633915
-9.18411e-06
1.38197e-05
0.00062904
-9.30402e-06
1.41788e-05
0.000623898
-9.68122e-06
1.48234e-05
0.000618459
-1.03173e-05
1.57562e-05
0.000612694
-1.1217e-05
1.69827e-05
0.000606571
-1.2391e-05
1.85135e-05
0.00060006
-1.3849e-05
2.03599e-05
0.000593127
-1.56053e-05
2.25383e-05
0.000585737
-1.76814e-05
2.50717e-05
0.000577852
-2.01045e-05
2.79892e-05
0.000569433
-2.29032e-05
3.13226e-05
0.000560435
-2.61158e-05
3.51138e-05
0.000550811
-2.97898e-05
3.9414e-05
0.000540508
-3.39826e-05
4.4285e-05
0.00052947
-3.87641e-05
4.98021e-05
0.000517634
-4.42176e-05
5.6054e-05
0.00050493
-5.04444e-05
6.31484e-05
0.000491282
-5.75668e-05
7.1215e-05
0.000476605
-6.57337e-05
8.04105e-05
0.000460806
-7.51267e-05
9.09254e-05
0.000443783
-8.59704e-05
0.000102994
0.000425423
-9.85429e-05
0.000116903
0.000405604
-0.000113197
0.000133015
0.000384199
-0.00013037
0.000151775
0.000361069
-0.000150671
0.000173801
0.00033609
-0.0001748
0.000199778
0.000309157
-0.000203797
0.000230731
0.00028022
-0.000238874
0.000267811
0.000249313
-0.000281994
0.000312901
0.000216798
-0.000335028
0.000367543
0.00018291
-0.000401757
0.000435644
0.00015004
-0.00048527
0.00051814
0.000117911
-0.000585681
0.000617811
9.50676e-05
-0.000718138
0.000740981
7.35948e-05
-0.00081237
0.000833843
5.05097e-05
-0.000956945
0.00098003
-0.000558966
0.000609476
0.000932457
2.30925e-06
0.000934653
6.87436e-06
0.000938125
1.3133e-05
0.000942425
1.80942e-05
0.000947088
2.10895e-05
0.00095177
2.20895e-05
0.000956208
2.12329e-05
0.000960206
1.87787e-05
0.00096362
1.50159e-05
0.000966344
1.02189e-05
0.000968297
4.64364e-06
0.000969451
-1.53183e-06
0.000969748
-8.13976e-06
0.000969187
-1.49749e-05
0.000967762
-2.19178e-05
0.000965483
-2.88581e-05
0.000962368
-3.57003e-05
0.000958445
-4.23627e-05
0.000953746
-4.87743e-05
0.000948312
-5.48733e-05
0.000942188
-6.06045e-05
0.000935426
-6.59186e-05
0.000928081
-7.07716e-05
0.000920212
-7.51245e-05
0.000911884
-7.89436e-05
0.000903163
-8.22012e-05
0.000894117
-8.48764e-05
0.000884817
-8.69562e-05
0.000875332
-8.84347e-05
0.000865733
-8.93132e-05
0.000856086
-8.9601e-05
0.000846457
-8.9315e-05
0.000836907
-8.8479e-05
0.000827493
-8.71232e-05
0.000818267
-8.52834e-05
0.000809275
-8.30006e-05
0.000800559
-8.03186e-05
0.000792153
-7.72837e-05
0.000784085
-7.39453e-05
0.000776377
-7.03539e-05
0.000769043
-6.65607e-05
0.000762093
-6.26168e-05
0.000755531
-5.85726e-05
0.000749352
-5.44765e-05
0.00074355
-5.03752e-05
0.000738112
-4.63122e-05
0.00073302
-4.23275e-05
0.000728253
-3.84572e-05
0.000723787
-3.47333e-05
0.000719597
-3.11827e-05
0.000715653
-2.78283e-05
0.000711925
-2.46878e-05
0.000708382
-2.17749e-05
0.000704994
-1.90992e-05
0.000701728
-1.66665e-05
0.000698552
-1.44798e-05
0.000695437
-1.25395e-05
0.00069235
-1.08441e-05
0.000689262
-9.39081e-06
0.000686143
-8.17593e-06
0.000682963
-7.19595e-06
0.000679693
-6.4476e-06
0.000676304
-5.93381e-06
0.000672769
-5.64926e-06
0.00066906
-5.5947e-06
0.000665147
-5.76874e-06
0.000661002
-6.17261e-06
0.000656596
-6.81076e-06
0.000651898
-7.69301e-06
0.000646876
-8.82715e-06
0.000641497
-1.02258e-05
0.000635725
-1.19093e-05
0.000629523
-1.39026e-05
0.000622851
-1.62307e-05
0.000615663
-1.8928e-05
0.000607911
-2.20377e-05
0.00059954
-2.56122e-05
0.000590492
-2.97154e-05
0.000580698
-3.44239e-05
0.000570084
-3.98308e-05
0.000558567
-4.60494e-05
0.000546051
-5.32177e-05
0.000532429
-6.15052e-05
0.000517581
-7.11222e-05
0.000501369
-8.23307e-05
0.000483637
-9.54657e-05
0.000464211
-0.000110944
0.000442889
-0.000129349
0.000419457
-0.000151368
0.000393678
-0.000178019
0.000365327
-0.000210523
0.000334159
-0.000250826
0.000300158
-0.000301026
0.000263023
-0.000364622
0.000224012
-0.000446258
0.000182334
-0.000544004
0.000142427
-0.000678231
9.97801e-05
-0.000769723
4.10327e-05
-0.000898197
-0.000517933
0.000977311
1.60735e-06
0.000978996
5.1887e-06
0.000981825
1.03041e-05
0.000985445
1.44741e-05
0.000989459
1.70764e-05
0.000993541
1.80068e-05
0.000997432
1.7342e-05
0.00100093
1.52831e-05
0.00100387
1.20696e-05
0.00100615
7.93799e-06
0.00100769
3.11177e-06
0.00100842
-2.26241e-06
0.00100831
-8.02884e-06
0.00100733
-1.40011e-05
0.00100549
-2.00766e-05
0.00100279
-2.61566e-05
0.000999245
-3.21557e-05
0.000994884
-3.80009e-05
0.000989738
-4.3629e-05
0.000983849
-4.89844e-05
0.000977263
-5.40182e-05
0.000970031
-5.86865e-05
0.000962209
-6.29502e-05
0.00095386
-6.67748e-05
0.000945046
-7.01304e-05
0.000935838
-7.29923e-05
0.000926303
-7.5342e-05
0.000916515
-7.71679e-05
0.000906544
-7.84643e-05
0.000896463
-7.92321e-05
0.000886341
-7.94788e-05
0.000876245
-7.92188e-05
0.000866238
-7.84724e-05
0.000856381
-7.72659e-05
0.000846728
-7.56301e-05
0.000837328
-7.36007e-05
0.000828225
-7.12156e-05
0.000819456
-6.85151e-05
0.000811053
-6.55421e-05
0.00080304
-6.23408e-05
0.000795435
-5.89561e-05
0.000788251
-5.54326e-05
0.000781493
-5.18146e-05
0.000775161
-4.81449e-05
0.000769251
-4.44644e-05
0.00076375
-4.08117e-05
0.000758645
-3.72223e-05
0.000753916
-3.37283e-05
0.000749541
-3.03582e-05
0.000745495
-2.71363e-05
0.000741749
-2.4083e-05
0.000738276
-2.12146e-05
0.000735045
-1.85435e-05
0.000732024
-1.60785e-05
0.000729183
-1.38254e-05
0.00072649
-1.17869e-05
0.000723914
-9.96362e-06
0.000721424
-8.35453e-06
0.000718991
-6.95723e-06
0.000716583
-5.76842e-06
0.000714172
-4.78468e-06
0.000711727
-4.00297e-06
0.000709222
-3.42883e-06
0.000706626
-3.05298e-06
0.000703913
-2.88116e-06
0.000701054
-2.91041e-06
0.000698021
-3.13952e-06
0.000694781
-3.57098e-06
0.000691306
-4.21789e-06
0.000687566
-5.08647e-06
0.000683525
-6.1851e-06
0.000679147
-7.53155e-06
0.000674396
-9.15158e-06
0.000669231
-1.10652e-05
0.000663605
-1.33024e-05
0.000657469
-1.59019e-05
0.000650767
-1.89105e-05
0.000643437
-2.23854e-05
0.000635409
-2.63953e-05
0.000626602
-3.10242e-05
0.000616927
-3.63741e-05
0.00060628
-4.25704e-05
0.000594541
-4.97668e-05
0.000581574
-5.81554e-05
0.00056722
-6.7976e-05
0.000551291
-7.95374e-05
0.000533573
-9.32256e-05
0.000513805
-0.000109581
0.000491691
-0.000129254
0.000466878
-0.000153205
0.00043897
-0.000182615
0.00040747
-0.000219325
0.000371979
-0.000265535
0.000331689
-0.000324332
0.00028684
-0.00040141
0.000236047
-0.000493211
0.000180664
-0.000622847
0.000120101
-0.00070916
4.05613e-05
-0.000818658
-0.000477372
0.00101684
1.11251e-06
0.00101814
3.89193e-06
0.00102044
7.99828e-06
0.00102349
1.14283e-05
0.00102694
1.36273e-05
0.00103049
1.44536e-05
0.00103389
1.39399e-05
0.00103694
1.22386e-05
0.00103946
9.54307e-06
0.00104135
6.05289e-06
0.0010425
1.95891e-06
0.00104287
-2.62675e-06
0.00104239
-7.55286e-06
0.00104105
-1.26643e-05
0.00103885
-1.78704e-05
0.00103578
-2.30857e-05
0.00103186
-2.82359e-05
0.00102711
-3.32571e-05
0.00102158
-3.8094e-05
0.00101529
-4.26984e-05
0.0010083
-4.70276e-05
0.00100066
-5.10433e-05
0.000992419
-5.47117e-05
0.000983647
-5.80028e-05
0.000974407
-6.08906e-05
0.000964768
-6.33537e-05
0.000954802
-6.5376e-05
0.000944582
-6.69471e-05
0.00093418
-6.80623e-05
0.000923669
-6.87217e-05
0.000913122
-6.89315e-05
0.000902607
-6.87035e-05
0.000892189
-6.8055e-05
0.000881931
-6.70079e-05
0.00087189
-6.55887e-05
0.000862117
-6.38277e-05
0.000852658
-6.17571e-05
0.000843554
-5.9411e-05
0.000834838
-5.68263e-05
0.000826538
-5.40406e-05
0.000818675
-5.10924e-05
0.000811262
-4.80202e-05
0.000804309
-4.48618e-05
0.000797819
-4.16542e-05
0.000791787
-3.84326e-05
0.000786206
-3.52304e-05
0.000781062
-3.20785e-05
0.000776338
-2.90047e-05
0.000772014
-2.60338e-05
0.000768065
-2.31872e-05
0.000764464
-2.04827e-05
0.000761185
-1.79349e-05
0.000758196
-1.55547e-05
0.000755467
-1.33502e-05
0.000752968
-1.13264e-05
0.000750668
-9.48609e-06
0.000748534
-7.83003e-06
0.000746537
-6.35739e-06
0.000744646
-5.06611e-06
0.000742831
-3.95327e-06
0.000741062
-3.01562e-06
0.000739309
-2.25041e-06
0.000737543
-1.66269e-06
0.000735742
-1.25177e-06
0.000733871
-1.01095e-06
0.000731903
-9.42027e-07
0.000729809
-1.0451e-06
0.000727563
-1.32483e-06
0.000725131
-1.78672e-06
0.00072248
-2.4353e-06
0.000719576
-3.28079e-06
0.000716387
-4.3427e-06
0.000712873
-5.63749e-06
0.000708992
-7.18474e-06
0.0007047
-9.00954e-06
0.000699943
-1.11456e-05
0.000694667
-1.36337e-05
0.000688805
-1.65235e-05
0.000682285
-1.98754e-05
0.000675023
-2.37626e-05
0.000666924
-2.8275e-05
0.000657876
-3.35226e-05
0.000647751
-3.96413e-05
0.000636397
-4.68011e-05
0.000623635
-5.52145e-05
0.000609255
-6.51573e-05
0.000593004
-7.69747e-05
0.000574574
-9.11507e-05
0.000553598
-0.000108277
0.000529617
-0.000129225
0.000502092
-0.00015509
0.000470301
-0.000187535
0.000433502
-0.000228736
0.000390442
-0.000281273
0.00034045
-0.000351417
0.000281667
-0.000434428
0.000213109
-0.000554289
0.000137526
-0.000633577
4.40879e-05
-0.00072522
-0.000433284
0.00105092
7.63563e-07
0.00105193
2.88613e-06
0.00105382
6.10766e-06
0.00105639
8.85473e-06
0.00105936
1.06545e-05
0.00106246
1.13555e-05
0.00106544
1.09627e-05
0.00106809
9.588e-06
0.00107025
7.38342e-06
0.00107179
4.51263e-06
0.00107261
1.13422e-06
0.00107266
-2.67186e-06
0.00107187
-6.76379e-06
0.00107022
-1.10161e-05
0.0010677
-1.53521e-05
0.00106432
-1.96998e-05
0.00106008
-2.39964e-05
0.00105501
-2.8188e-05
0.00104914
-3.22276e-05
0.00104252
-3.60745e-05
0.00103518
-3.96926e-05
0.00102719
-4.30496e-05
0.0010186
-4.61169e-05
0.00100946
-4.88694e-05
0.000999857
-5.1285e-05
0.000989849
-5.33459e-05
0.000979511
-5.50381e-05
0.000968917
-5.63531e-05
0.000958141
-5.72867e-05
0.000947258
-5.78387e-05
0.000936341
-5.80139e-05
0.000925459
-5.7822e-05
0.000914681
-5.7277e-05
0.000904071
-5.63971e-05
0.000893686
-5.5204e-05
0.000883581
-5.37231e-05
0.000873805
-5.19808e-05
0.000864399
-5.00053e-05
0.0008554
-4.78272e-05
0.000846838
-4.54779e-05
0.000838735
-4.29894e-05
0.000831108
-4.03937e-05
0.000823969
-3.77226e-05
0.000817322
-3.50069e-05
0.000811165
-3.22761e-05
0.000805493
-2.95583e-05
0.000800294
-2.68793e-05
0.000795552
-2.42628e-05
0.000791248
-2.17296e-05
0.000787358
-1.92979e-05
0.000783859
-1.6983e-05
0.000780721
-1.47972e-05
0.000777916
-1.275e-05
0.000775414
-1.08483e-05
0.000773185
-9.09661e-06
0.000771196
-7.49749e-06
0.000769418
-6.05167e-06
0.000767819
-4.75862e-06
0.000766369
-3.61665e-06
0.000765039
-2.62332e-06
0.000763799
-1.77473e-06
0.000762615
-1.06679e-06
0.000761469
-5.16541e-07
0.000760314
-9.70775e-08
0.000759141
1.61951e-07
0.000757919
2.80331e-07
0.000756613
2.60587e-07
0.000755184
1.0402e-07
0.000753614
-2.16246e-07
0.000751876
-6.97462e-07
0.000749932
-1.33697e-06
0.000747734
-2.14419e-06
0.000745255
-3.15897e-06
0.000742452
-4.38204e-06
0.000739278
-5.83537e-06
0.000735681
-7.54818e-06
0.000731602
-9.55479e-06
0.000726976
-1.18973e-05
0.000721727
-1.46264e-05
0.000715769
-1.78044e-05
0.000709001
-2.15072e-05
0.000701306
-2.58283e-05
0.000692548
-3.08833e-05
0.000682564
-3.68172e-05
0.000671162
-4.38116e-05
0.000658107
-5.21028e-05
0.00064312
-6.19878e-05
0.000625852
-7.38826e-05
0.000605877
-8.8303e-05
0.000582655
-0.000106003
0.00055552
-0.000127954
0.000523571
-0.000155586
0.00048577
-0.000190935
0.000440518
-0.000236021
0.000386305
-0.000297204
0.000321005
-0.000369127
0.000241729
-0.000475013
0.000153686
-0.000545535
4.99744e-05
-0.000621508
-0.000383309
0.00107946
5.15797e-07
0.00108025
2.09331e-06
0.00108182
4.53802e-06
0.00108402
6.65814e-06
0.0010866
8.07086e-06
0.00108932
8.63572e-06
0.00109194
8.34222e-06
0.00109426
7.26995e-06
0.00109611
5.53392e-06
0.00109736
3.26366e-06
0.00109791
5.84216e-07
0.00109769
-2.44991e-06
0.00109664
-5.71343e-06
0.00109473
-9.1094e-06
0.00109195
-1.25756e-05
0.00108831
-1.6054e-05
0.00108381
-1.94939e-05
0.00107847
-2.28514e-05
0.00107233
-2.60888e-05
0.00106543
-2.91728e-05
0.00105781
-3.20742e-05
0.00104953
-3.4767e-05
0.00104064
-3.72282e-05
0.00103121
-3.94372e-05
0.0010213
-4.13765e-05
0.00101098
-4.30314e-05
0.00100034
-4.43906e-05
0.00098943
-4.54474e-05
0.000978341
-4.61982e-05
0.000967145
-4.66427e-05
0.000955916
-4.67844e-05
0.000944725
-4.66309e-05
0.000933641
-4.61932e-05
0.000922729
-4.54857e-05
0.000912051
-4.45257e-05
0.000901662
-4.33335e-05
0.000891611
-4.193e-05
0.000881943
-4.03375e-05
0.000872696
-3.85803e-05
0.000863902
-3.66837e-05
0.000855585
-3.46731e-05
0.000847766
-3.25744e-05
0.000840456
-3.04128e-05
0.000833662
-2.8213e-05
0.000827385
-2.5999e-05
0.00082162
-2.3793e-05
0.000816357
-2.16162e-05
0.000811581
-1.94874e-05
0.000807276
-1.74237e-05
0.000803418
-1.54398e-05
0.000799983
-1.35481e-05
0.000796944
-1.17587e-05
0.000794274
-1.00794e-05
0.000791941
-8.51589e-06
0.000789917
-7.072e-06
0.000788169
-5.74984e-06
0.000786667
-4.55012e-06
0.000785381
-3.47246e-06
0.00078428
-2.51544e-06
0.000783334
-1.67675e-06
0.000782511
-9.52459e-07
0.000781788
-3.43323e-07
0.000781122
1.49526e-07
0.000780514
5.10595e-07
0.000779908
7.67569e-07
0.000779279
9.09459e-07
0.000778602
9.37622e-07
0.000777858
8.4827e-07
0.000777004
6.37382e-07
0.000776
3.068e-07
0.000774813
-1.49647e-07
0.000773439
-7.70894e-07
0.000771809
-1.528e-06
0.000769888
-2.46124e-06
0.00076763
-3.57802e-06
0.000764984
-4.90175e-06
0.00076189
-6.46042e-06
0.00075828
-8.28794e-06
0.000754079
-1.04253e-05
0.000749197
-1.29227e-05
0.000743532
-1.58415e-05
0.000736961
-1.92576e-05
0.000729342
-2.32645e-05
0.000720505
-2.79799e-05
0.000710245
-3.35516e-05
0.000698314
-4.01721e-05
0.00068441
-4.80837e-05
0.000668154
-5.7626e-05
0.000649075
-6.92246e-05
0.000626569
-8.34964e-05
0.000599874
-0.000101259
0.000567951
-0.000123664
0.000529522
-0.000152506
0.000482742
-0.000189241
0.000425365
-0.000239827
0.000355133
-0.000298896
0.000267575
-0.000387455
0.000169406
-0.000447366
5.73251e-05
-0.000509427
-0.000325984
0.00110238
3.36623e-07
0.00110302
1.45231e-06
0.00110435
3.20822e-06
0.00110626
4.75114e-06
0.00110853
5.79253e-06
0.00111095
6.21686e-06
0.00111329
6.00813e-06
0.00111534
5.22001e-06
0.00111694
3.93453e-06
0.00111795
2.24771e-06
0.00111828
2.56205e-07
0.00111785
-2.0155e-06
0.00111659
-4.4559e-06
0.00111448
-6.9985e-06
0.0011115
-9.59587e-06
0.00110765
-1.22043e-05
0.00110294
-1.47853e-05
0.00109739
-1.73058e-05
0.00109104
-1.97369e-05
0.00108392
-2.20538e-05
0.00107608
-2.42341e-05
0.00106757
-2.62582e-05
0.00105846
-2.81087e-05
0.00104879
-2.97701e-05
0.00103864
-3.12291e-05
0.00102808
-3.24746e-05
0.00101719
-3.3498e-05
0.00100604
-3.42939e-05
0.0009947
-3.48602e-05
0.000983254
-3.51961e-05
0.000971773
-3.53042e-05
0.000960333
-3.519e-05
0.000949001
-3.48616e-05
0.000937845
-3.43297e-05
0.000926927
-3.36074e-05
0.000916303
-3.27097e-05
0.000906025
-3.16524e-05
0.00089614
-3.04517e-05
0.000886685
-2.91261e-05
0.000877696
-2.76943e-05
0.000869198
-2.61755e-05
0.000861213
-2.45891e-05
0.000853754
-2.29541e-05
0.00084683
-2.1289e-05
0.000840443
-1.96118e-05
0.00083459
-1.79394e-05
0.000829261
-1.62876e-05
0.000824445
-1.46708e-05
0.000820123
-1.31018e-05
0.000816275
-1.15918e-05
0.000812877
-1.01502e-05
0.000809903
-8.78474e-06
0.000807325
-7.5014e-06
0.000805113
-6.30456e-06
0.000803238
-5.19718e-06
0.00080167
-4.1809e-06
0.000800376
-3.25634e-06
0.000799327
-2.42329e-06
0.000798492
-1.68071e-06
0.000797842
-1.02698e-06
0.000797348
-4.57875e-07
0.000796964
4.01281e-08
0.0007967
4.1316e-07
0.000796491
7.19702e-07
0.000796323
9.35476e-07
0.000796166
1.06679e-06
0.000795989
1.11502e-06
0.000795759
1.07798e-06
0.000795451
9.45837e-07
0.000795039
7.18378e-07
0.000794493
3.96083e-07
0.000793726
-3.62828e-09
0.000792768
-5.70163e-07
0.000791546
-1.23917e-06
0.000790015
-2.04711e-06
0.000788123
-3.00975e-06
0.000785811
-4.14829e-06
0.000783011
-5.48825e-06
0.000779646
-7.06042e-06
0.000775626
-8.90257e-06
0.000770846
-1.1061e-05
0.000765181
-1.35929e-05
0.000758485
-1.65688e-05
0.000750583
-2.00777e-05
0.000741263
-2.42312e-05
0.000730266
-2.91751e-05
0.000717275
-3.50932e-05
0.000701892
-4.22423e-05
0.000683615
-5.09481e-05
0.000661795
-6.16767e-05
0.000635602
-7.50653e-05
0.000603904
-9.19664e-05
0.000565238
-0.000113839
0.000517612
-0.000141615
0.000458164
-0.000180379
0.000384606
-0.000225337
0.000291114
-0.000293963
0.000185082
-0.000341334
6.57877e-05
-0.000390132
-0.000260197
0.00111962
2.02222e-07
0.00112016
9.14898e-07
0.00112132
2.04854e-06
0.00112301
3.05424e-06
0.00112507
3.7394e-06
0.00112726
4.0225e-06
0.00112938
3.88905e-06
0.00113123
3.37189e-06
0.00113264
2.52366e-06
0.00113348
1.40855e-06
0.00113365
8.71295e-08
0.00113305
-1.4221e-06
0.00113164
-3.04563e-06
0.00112938
-4.73838e-06
0.00112626
-6.46861e-06
0.00112226
-8.2072e-06
0.0011174
-9.92834e-06
0.00111171
-1.16098e-05
0.0011052
-1.32322e-05
0.00109793
-1.47788e-05
0.00108993
-1.62346e-05
0.00108126
-1.75865e-05
0.00107197
-1.88228e-05
0.00106213
-1.99331e-05
0.00105181
-2.09084e-05
0.00104108
-2.17413e-05
0.00103001
-2.24259e-05
0.00101867
-2.29586e-05
0.00100715
-2.33381e-05
0.000995517
-2.35638e-05
0.00098385
-2.36372e-05
0.000972222
-2.3562e-05
0.000960703
-2.33434e-05
0.000949362
-2.29886e-05
0.000938261
-2.25062e-05
0.000927458
-2.19066e-05
0.000917005
-2.11998e-05
0.00090695
-2.03966e-05
0.000897333
-1.95093e-05
0.00088819
-1.85505e-05
0.000879547
-1.75331e-05
0.000871428
-1.64698e-05
0.000863847
-1.53735e-05
0.000856815
-1.42565e-05
0.000850334
-1.31307e-05
0.000844402
-1.20076e-05
0.000839012
-1.08976e-05
0.000834152
-9.81054e-06
0.000829805
-8.7549e-06
0.000825951
-7.73822e-06
0.000822568
-6.76686e-06
0.000819629
-5.84602e-06
0.000817107
-4.97973e-06
0.000814974
-4.17096e-06
0.000813198
-3.42172e-06
0.000811751
-2.73312e-06
0.0008106
-2.10559e-06
0.000809716
-1.53896e-06
0.000809067
-1.03236e-06
0.000808624
-5.84057e-07
0.000808358
-1.91115e-07
0.000808255
1.42217e-07
0.000808254
4.14084e-07
0.000808349
6.24879e-07
0.000808502
7.82792e-07
0.000808685
8.84251e-07
0.00080887
9.29412e-07
0.000809031
9.17287e-07
0.000809133
8.43995e-07
0.000809141
7.10314e-07
0.000809023
5.13382e-07
0.000808779
2.40672e-07
0.000808308
-9.87515e-08
0.000807604
-5.35835e-07
0.000806615
-1.05799e-06
0.000805288
-1.68287e-06
0.000803564
-2.42438e-06
0.000801376
-3.2997e-06
0.000798645
-4.32937e-06
0.000795281
-5.53854e-06
0.000791178
-6.95811e-06
0.000786211
-8.62615e-06
0.000780232
-1.05898e-05
0.000773063
-1.29083e-05
0.000764488
-1.56562e-05
0.000754243
-1.89307e-05
0.000742005
-2.28546e-05
0.000727361
-2.75987e-05
0.000709796
-3.33824e-05
0.000688633
-4.05146e-05
0.000663
-4.94317e-05
0.000631718
-6.06848e-05
0.000593189
-7.53102e-05
0.000545374
-9.38002e-05
0.000484921
-0.000119926
0.000409602
-0.000150018
0.000312426
-0.000196787
0.000200849
-0.000229757
7.51496e-05
-0.000264433
-0.000185047
0.00113114
9.47822e-08
0.00113161
4.42187e-07
0.00113266
9.98154e-07
0.00113422
1.49457e-06
0.00113613
1.83502e-06
0.00113817
1.9774e-06
0.00114015
1.91321e-06
0.00114186
1.65789e-06
0.00114315
1.23688e-06
0.00114388
6.81848e-07
0.00114393
2.90329e-08
0.00114324
-7.29322e-07
0.00114173
-1.53922e-06
0.00113938
-2.38492e-06
0.00113616
-3.24989e-06
0.00113207
-4.11946e-06
0.00112713
-4.98065e-06
0.00112134
-5.82225e-06
0.00111474
-6.63456e-06
0.00110737
-7.40907e-06
0.00109928
-8.13833e-06
0.0010905
-8.81567e-06
0.00108112
-9.4352e-06
0.00107118
-9.99169e-06
0.00106075
-1.04806e-05
0.0010499
-1.08983e-05
0.00103872
-1.12416e-05
0.00102727
-1.15086e-05
0.00101563
-1.1699e-05
0.00100388
-1.18124e-05
0.000992092
-1.18494e-05
0.000980342
-1.18118e-05
0.000968701
-1.17022e-05
0.000957237
-1.15242e-05
0.000946013
-1.12822e-05
0.000935088
-1.09816e-05
0.000924515
-1.06269e-05
0.000914342
-1.02238e-05
0.000904611
-9.77849e-06
0.000895358
-9.29724e-06
0.000886611
-8.78652e-06
0.000878394
-8.25279e-06
0.000870723
-7.70244e-06
0.000863608
-7.14171e-06
0.000857054
-6.5766e-06
0.00085106
-6.0128e-06
0.000845618
-5.45563e-06
0.000840717
-4.90992e-06
0.000836342
-4.38e-06
0.000832473
-3.86965e-06
0.000829089
-3.38206e-06
0.000826162
-2.91981e-06
0.000823668
-2.48493e-06
0.000821576
-2.0789e-06
0.000819857
-1.70269e-06
0.00081848
-1.35683e-06
0.000817416
-1.04151e-06
0.000816634
-7.56614e-07
0.000816103
-5.01568e-07
0.000815795
-2.76055e-07
0.00081568
-7.63782e-08
0.000815726
9.68738e-08
0.000815911
2.2898e-07
0.000816197
3.38762e-07
0.000816558
4.2174e-07
0.000816966
4.76288e-07
0.000817392
5.03601e-07
0.000817806
5.03105e-07
0.000818179
4.71221e-07
0.00081848
4.09148e-07
0.000818677
3.16664e-07
0.000818724
1.93587e-07
0.000818593
3.17225e-08
0.000818243
-1.85265e-07
0.000817623
-4.3852e-07
0.000816682
-7.41856e-07
0.000815361
-1.1036e-06
0.000813594
-1.53209e-06
0.000811302
-2.0375e-06
0.000808396
-2.63237e-06
0.00080477
-3.33208e-06
0.000800299
-4.1556e-06
0.000794836
-5.12639e-06
0.000788201
-6.27391e-06
0.00078018
-7.63515e-06
0.000770508
-9.25826e-06
0.000758858
-1.12044e-05
0.000744817
-1.35577e-05
0.000727863
-1.64284e-05
0.000707314
-1.99664e-05
0.000682279
-2.43967e-05
0.000651569
-2.99744e-05
0.00061352
-3.72618e-05
0.000566131
-4.64104e-05
0.000505671
-5.94668e-05
0.000430078
-7.4425e-05
0.000331369
-9.80776e-05
0.000216692
-0.00011508
8.60319e-05
-0.000133773
-9.90152e-05
0.00113691
9.33795e-11
0.00113735
1.05135e-09
0.00113834
2.56077e-09
0.00113984
4.41223e-09
0.00114166
6.37079e-09
0.00114363
8.2162e-09
0.00114554
9.76392e-09
0.00114718
1.08544e-08
0.00114841
1.14276e-08
0.00114908
1.121e-08
0.0011491
1.03894e-08
0.00114836
9.95853e-09
0.00114681
8.61075e-09
0.00114442
6.77022e-09
0.00114116
4.7409e-09
0.00113704
2.58367e-09
0.00113206
3.58835e-10
0.00112624
-1.86518e-09
0.00111961
-4.03934e-09
0.00111221
-6.10683e-09
0.00110408
-8.01692e-09
0.00109527
-9.71986e-09
0.00108585
-1.11656e-08
0.00107587
-1.23047e-08
0.0010654
-1.30901e-08
0.00105452
-1.34785e-08
0.00104329
-1.34343e-08
0.00103179
-1.29327e-08
0.0010201
-1.19569e-08
0.0010083
-1.05072e-08
0.000996462
-8.60052e-09
0.000984657
-6.27064e-09
0.000972958
-3.56726e-09
0.000961434
-5.49512e-10
0.000950149
2.68815e-09
0.000939162
6.07023e-09
0.000928525
9.50361e-09
0.000918289
1.28916e-08
0.000908494
1.6138e-08
0.000899178
1.91497e-08
0.000890369
2.18405e-08
0.000882092
2.41303e-08
0.000874364
2.5949e-08
0.000867195
2.72382e-08
0.00086059
2.79507e-08
0.00085455
2.80512e-08
0.000849066
2.75167e-08
0.00084413
2.63372e-08
0.000839726
2.45163e-08
0.000835834
2.20712e-08
0.000832433
1.90332e-08
0.000829498
1.54479e-08
0.000827001
1.13751e-08
0.000824916
6.88768e-09
0.000823211
2.06806e-09
0.000821857
-2.97473e-09
0.000820824
-8.16286e-09
0.00082008
-1.34134e-08
0.000819597
-1.84114e-08
0.000819345
-2.39344e-08
0.000819298
-2.91563e-08
0.000819425
-3.0433e-08
0.000819687
-3.24516e-08
0.000820061
-3.59373e-08
0.00082052
-3.69362e-08
0.000821034
-3.78043e-08
0.000821575
-3.77587e-08
0.000822115
-3.6613e-08
0.000822622
-3.5572e-08
0.000823064
-3.29223e-08
0.000823411
-3.0582e-08
0.000823631
-2.58666e-08
0.000823684
-2.18415e-08
0.000823514
-1.47108e-08
0.000823085
-9.86377e-09
0.000822348
-4.47817e-09
0.000821243
6.73023e-10
0.000819706
5.50055e-09
0.000817658
9.95087e-09
0.000815012
1.39202e-08
0.000811663
1.72764e-08
0.000807487
1.98883e-08
0.000802339
2.16548e-08
0.000796043
2.2525e-08
0.000788385
2.25022e-08
0.000779105
2.16485e-08
0.000767881
2.00629e-08
0.000754305
1.78908e-08
0.000737861
1.52844e-08
0.000717883
1.24177e-08
0.000693477
9.43715e-09
0.000663496
6.54161e-09
0.00062623
3.78785e-09
0.000579818
1.42555e-09
0.000520352
-6.7764e-10
0.000445929
-2.19077e-09
0.000347855
-3.41463e-09
0.000232779
-4.29418e-09
9.90108e-05
-4.72419e-09
-4.34067e-09
-0.000672407
0.00956645
-0.00944106
-0.000798029
0.00955167
-0.00942605
-0.000924372
0.00952813
-0.00940179
-0.00105199
0.00950645
-0.00937883
-0.00118126
0.00948828
-0.00935901
-0.00131248
0.00947454
-0.00934332
-0.00144608
0.00946589
-0.00933229
-0.00158253
0.00946286
-0.00932641
-0.00172251
0.00946625
-0.00932627
-0.00186708
0.00947787
-0.00933331
-0.00201812
0.00950113
-0.00935009
-0.0021781
0.00954346
-0.00938347
-0.00235109
0.00961309
-0.0094401
-0.00253896
0.00972093
-0.00953307
-0.00273639
0.009856
-0.00965856
-0.00290418
0.00996998
-0.00980219
-0.00293607
0.00985587
-0.00982397
-0.00257652
0.00906748
-0.00942703
-0.0015084
0.00661514
-0.00768326
0.00216142
-0.00366982
-0.000679918
0.00969132
-0.000805302
0.00967706
-0.000931481
0.00965431
-0.00105901
0.00963398
-0.00118811
0.00961738
-0.00131915
0.00960558
-0.00145249
0.00959923
-0.00158858
0.00959895
-0.00172808
0.00960575
-0.00187204
0.00962184
-0.00202232
0.00965141
-0.00218153
0.00970266
-0.00235255
0.00978411
-0.0025341
0.00990248
-0.00271068
0.0100326
-0.00282273
0.010082
-0.0027326
0.00976573
-0.00220151
0.00853639
-0.0010716
0.00548523
0.00108983
-0.000687146
0.00981574
-0.000812184
0.0098021
-0.000938154
0.00978028
-0.00106548
0.00976131
-0.00119439
0.00974628
-0.00132521
0.0097364
-0.00145828
0.0097323
-0.00159403
0.0097347
-0.00173311
0.00974483
-0.00187663
0.00976535
-0.00202643
0.00980121
-0.00218489
0.00986112
-0.00235338
0.00995261
-0.00252571
0.0100748
-0.00267442
0.0101813
-0.00272038
0.010128
-0.00250816
0.00955352
-0.00183664
0.00786487
-0.000694989
0.00434357
0.000394838
-0.000694056
0.0099397
-0.000818705
0.00992675
-0.000944389
0.00990596
-0.00107144
0.00988836
-0.00120008
0.00987492
-0.00133061
0.00986693
-0.00146334
0.00986503
-0.00159869
0.00987005
-0.0017373
0.00988345
-0.00188031
0.00990836
-0.0020295
0.0099504
-0.00218667
0.0100183
-0.00235105
0.010117
-0.00251028
0.010234
-0.00262405
0.0102951
-0.00259702
0.010101
-0.00226776
0.00922425
-0.00147987
0.00707698
-0.000428956
0.00329266
-3.41183e-05
-0.000700625
0.0100632
-0.000824862
0.010051
-0.0009502
0.0100313
-0.00107692
0.0100151
-0.00120522
0.0100032
-0.00133537
0.00999708
-0.00146766
0.00999732
-0.00160249
0.0100049
-0.0017405
0.0100215
-0.00188283
0.0100507
-0.0020311
0.0100987
-0.00218619
0.0101734
-0.00234431
0.0102751
-0.00248579
0.0103755
-0.00255737
0.0103666
-0.00245255
0.00999613
-0.00201862
0.00879033
-0.0011556
0.00621396
-0.000243672
0.00238073
-0.000277791
-0.000706857
0.0101861
-0.000830664
0.0101748
-0.00095562
0.0101563
-0.00108196
0.0101414
-0.00120986
0.0101311
-0.00133957
0.0101268
-0.00147133
0.0101291
-0.00160552
0.0101391
-0.00174278
0.0101587
-0.00188416
0.0101921
-0.00203088
0.0102454
-0.00218249
0.010325
-0.00233146
0.0104241
-0.00245052
0.0104946
-0.00247482
0.0103909
-0.00229134
0.00981265
-0.0017699
0.00826888
-0.000879853
0.00532392
-0.000126004
0.00162689
-0.000403794
-0.000712724
0.0103085
-0.000836078
0.0102981
-0.000960609
0.0102808
-0.00108652
0.0102673
-0.00121396
0.0102586
-0.00134315
0.010256
-0.00147429
0.0102602
-0.00160774
0.0102725
-0.00174414
0.0102951
-0.00188445
0.0103324
-0.00202946
0.0103904
-0.00217702
0.0104725
-0.00231513
0.0105622
-0.0024082
0.0105876
-0.00238126
0.010364
-0.0021202
0.00955159
-0.00152534
0.00767402
-0.000659674
0.00445826
-6.24482e-05
0.00102966
-0.000466242
-0.000718279
0.0104302
-0.000841188
0.0104211
-0.000965286
0.0104049
-0.00109077
0.0103928
-0.00121774
0.0103855
-0.00134639
0.0103846
-0.00147688
0.0103907
-0.00160956
0.0104052
-0.001745
0.0104305
-0.00188392
0.0104713
-0.00202621
0.0105327
-0.00216729
0.0106136
-0.00229016
0.0106851
-0.00235206
0.0106495
-0.00227249
0.0102844
-0.00194238
0.00922148
-0.0012961
0.00702775
-0.000494718
0.00365687
-3.80642e-05
0.000573006
-0.000504307
-0.000723364
0.0105513
-0.000845819
0.0105435
-0.000969375
0.0105284