/*--------------------------------*- C++ -*----------------------------------*\
  =========                 |
  \\      /  F ield         | OpenFOAM: The Open Source CFD Toolbox
   \\    /   O peration     | Website:  https://openfoam.org
    \\  /    A nd           | Version:  7
     \\/     M anipulation  |
\*---------------------------------------------------------------------------*/
FoamFile
{
    version     2.0;
    format      ascii;
    class       surfaceScalarField;
    location    "114";
    object      phi;
}
// * * * * * * * * * * * * * * * * * * * * * * * * * * * * * * * * * * * * * //

dimensions      [0 3 -1 0 0 0 0];

internalField   nonuniform List<scalar> 
321
(
0.00048091
-0.000105143
0.000477334
-0.000102432
0.000473481
-9.58173e-05
0.000469344
-8.52105e-05
0.000464916
-7.06606e-05
0.000460198
-5.23379e-05
0.000455197
-3.0615e-05
0.000449918
-5.83386e-06
0.000444379
2.1377e-05
0.000438607
5.03683e-05
0.000432637
8.04041e-05
0.00042651
0.0001107
0.00014045
0.000486256
-8.04398e-05
0.000483859
-9.00369e-05
0.000481206
-9.7134e-05
0.000478298
-0.00010125
0.000475133
-0.000101978
0.000471702
-9.90013e-05
0.000467997
-9.21121e-05
0.000464008
-8.12221e-05
0.000459729
-6.63811e-05
0.000455156
-4.7765e-05
0.000450295
-2.57546e-05
0.000445149
-6.87529e-07
0.000439735
2.67911e-05
0.000434078
5.6025e-05
0.000428213
8.62696e-05
0.00042218
0.000116733
0.000146602
0.000479536
-7.84156e-05
0.000477261
-8.77621e-05
0.000474741
-9.46136e-05
0.000471974
-9.84833e-05
0.000468956
-9.896e-05
0.000465679
-9.57236e-05
0.00046213
-8.85633e-05
0.000458299
-7.7391e-05
0.000454175
-6.22574e-05
0.000449755
-4.33448e-05
0.000445042
-2.10418e-05
0.000440035
4.31948e-06
0.000434752
3.20741e-05
0.000429216
6.15606e-05
0.000423461
9.20248e-05
0.000417527
0.000122667
0.000152666
0.000472389
-7.65117e-05
0.000470246
-8.56183e-05
0.000467866
-9.22338e-05
0.000465249
-9.58662e-05
0.000462387
-9.60987e-05
0.000459271
-9.26072e-05
0.000455886
-8.51788e-05
0.00045222
-7.37249e-05
0.00044826
-5.8297e-05
0.000444
-3.90846e-05
0.000439442
-1.64835e-05
0.000434581
9.18034e-06
0.000429435
3.72202e-05
0.000424026
6.69695e-05
0.000418386
9.76646e-05
0.000412555
0.000128498
0.000158639
0.000464824
-7.47363e-05
0.000462819
-8.36135e-05
0.000460588
-9.00031e-05
0.000458129
-9.34066e-05
0.000455432
-9.34019e-05
0.000452485
-8.96604e-05
0.000449273
-8.19666e-05
0.00044578
-7.02317e-05
0.00044199
-5.45075e-05
0.000437897
-3.49915e-05
0.0004335
-1.20863e-05
0.000428791
1.38886e-05
0.000423788
4.22238e-05
0.000418511
7.22462e-05
0.000412992
0.000103184
0.00040727
0.00013422
0.000164516
0.000456845
-7.30971e-05
0.000454988
-8.17559e-05
0.000452914
-8.79296e-05
0.00045062
-9.11128e-05
0.000448096
-9.08777e-05
0.000445327
-8.68911e-05
0.000442295
-7.89346e-05
0.000438982
-6.6919e-05
0.000435371
-5.08961e-05
0.000431452
-3.10725e-05
0.000427222
-7.85652e-06
0.000422672
1.84385e-05
0.000417817
4.70792e-05
0.000412677
7.73855e-05
0.000407283
0.000108578
0.000401673
0.00013983
0.000170294
0.000448461
-7.1602e-05
0.000446759
-8.00534e-05
0.00044485
-8.60211e-05
0.00044273
-8.89928e-05
0.000440387
-8.85341e-05
0.000437803
-8.43071e-05
0.000434958
-7.60903e-05
0.000431834
-6.37941e-05
0.000428408
-4.74701e-05
0.000424669
-2.73341e-05
0.000420613
-3.8003e-06
0.000416227
2.28243e-05
0.000411525
5.17811e-05
0.000406528
8.23825e-05
0.000401264
0.000113842
0.000395771
0.000145323
0.000175968
0.00043968
-7.02584e-05
0.00043814
-7.85136e-05
0.000436405
-8.42855e-05
0.000434466
-8.70542e-05
0.000432311
-8.63787e-05
0.00042992
-8.1916e-05
0.000427271
-7.34413e-05
0.000424341
-6.08642e-05
0.000421107
-4.42365e-05
0.000417556
-2.37825e-05
0.000413679
7.67546e-08
0.000409462
2.70409e-05
0.000404919
5.6324e-05
0.000400069
8.72326e-05
0.000394938
0.000118973
0.000389565
0.000150696
0.000181537
0.000430508
-6.90737e-05
0.000429139
-7.7144e-05
0.000427584
-8.27303e-05
0.000425834
-8.53047e-05
0.000423875
-8.44193e-05
0.000421684
-7.97253e-05
0.000419238
-7.09949e-05
0.00041651
-5.81366e-05
0.000413476
-4.12022e-05
0.000410119
-2.0426e-05
0.000406422
3.77391e-06
0.000402382
3.10807e-05
0.000398004
6.07028e-05
0.000393305
9.19311e-05
0.000388312
0.000123965
0.000383063
0.000155946
0.000186997
0.000421961
-5.82694e-05
0.000420943
-6.80561e-05
0.000419753
-7.59537e-05
0.000418388
-8.13655e-05
0.000416839
-8.37551e-05
0.000415087
-8.26672e-05
0.000413109
-7.77472e-05
0.000410877
-6.87637e-05
0.000408365
0.000405544
0.000402391
0.000398889
0.000395034
0.000390829
0.00038629
0.000381442
0.00037632
0.00198174
0.00197829
0.00197427
0.00196971
0.00196465
0.00195906
0.00195286
)
;

boundaryField
{
    inlet
    {
        type            calculated;
        value           nonuniform 0();
    }
    outlet
    {
        type            calculated;
        value           nonuniform 0();
    }
    polygon
    {
        type            calculated;
        value           nonuniform 0();
    }
    top
    {
        type            symmetryPlane;
        value           uniform 0;
    }
    bottom
    {
        type            symmetryPlane;
        value           uniform 0;
    }
    outside
    {
        type            calculated;
        value           nonuniform 0();
    }
    procBoundary22to14
    {
        type            processor;
        value           nonuniform List<scalar> 
19
(
-5.56245e-05
-3.83805e-05
-1.72735e-05
7.27607e-06
3.49359e-05
6.49074e-05
9.64701e-05
0.000128814
0.000161068
0.000192345
-5.55073e-05
-6.46089e-05
-7.19254e-05
-7.68144e-05
-7.86948e-05
-7.70709e-05
-7.15471e-05
0.00194596
-6.18623e-05
)
;
    }
    procBoundary22to15
    {
        type            processor;
        value           nonuniform List<scalar> 2(-0.000422799 -0.0019845);
    }
    procBoundary22to21
    {
        type            processor;
        value           nonuniform List<scalar> 10(0.000420277 0.000416028 0.000411462 0.000406583 0.000401392 0.000395896 0.000390096 0.000383997 0.000377603 0.000370971);
    }
    procBoundary22to23
    {
        type            processor;
        value           nonuniform List<scalar> 9(-0.000488392 -0.00048156 -0.000474293 -0.000466599 -0.000458484 -0.000449957 -0.000441024 -0.000431693 5.91073e-05);
    }
    procBoundary22to30
    {
        type            processor;
        value           nonuniform List<scalar> 
18
(
8.25761e-05
9.24343e-05
9.97868e-05
-0.000484215
0.000104157
0.000108448
0.000106008
9.96704e-05
8.93481e-05
7.50881e-05
5.70561e-05
3.56159e-05
1.11133e-05
-1.58381e-05
-4.45964e-05
-7.4434e-05
-0.000104573
-0.000134217
)
;
    }
}


// ************************************************************************* //
