/*--------------------------------*- C++ -*----------------------------------*\
  =========                 |
  \\      /  F ield         | OpenFOAM: The Open Source CFD Toolbox
   \\    /   O peration     | Website:  https://openfoam.org
    \\  /    A nd           | Version:  7
     \\/     M anipulation  |
\*---------------------------------------------------------------------------*/
FoamFile
{
    version     2.0;
    format      ascii;
    class       volVectorField;
    location    "10";
    object      U;
}
// * * * * * * * * * * * * * * * * * * * * * * * * * * * * * * * * * * * * * //

dimensions      [0 1 -1 0 0 0 0];

internalField   nonuniform List<vector> 
225
(
(1.04525 0.000232025 -2.05807e-18)
(0.952289 -0.000823386 -1.1489e-17)
(1.05192 -0.000254346 -8.66604e-18)
(0.950938 0.0029759 3.50673e-18)
(1.03811 0.0011807 3.76612e-18)
(0.941133 0.00679852 -3.18312e-18)
(1.00583 0.0037087 -3.63109e-18)
(0.916167 0.0344273 -5.07008e-18)
(0.838726 0.032589 -6.29921e-18)
(1.04551 0.000250605 -9.20877e-19)
(0.951906 -0.000874432 -1.28095e-17)
(1.0524 -0.000240633 -9.65045e-18)
(0.950226 0.0030876 3.33364e-18)
(1.03891 0.00126218 3.76596e-18)
(0.940051 0.00706171 -4.49896e-18)
(1.00726 0.00397873 -4.24853e-18)
(0.914384 0.0358415 -3.50796e-18)
(0.842983 0.0345186 -4.44881e-18)
(1.04576 0.000270229 3.45124e-20)
(0.951516 -0.000927374 -1.34526e-17)
(1.05289 -0.000223907 -1.08226e-17)
(0.949494 0.00319594 2.14595e-18)
(1.03973 0.00134693 4.24719e-18)
(0.938935 0.00731654 -3.21913e-18)
(1.00875 0.00425589 -4.77133e-18)
(0.912539 0.0372138 -1.86027e-18)
(0.847403 0.0364363 -2.91713e-18)
(1.04602 0.000290839 1.00081e-18)
(0.951119 -0.000982 -1.4569e-17)
(1.05338 -0.000204486 -1.22146e-17)
(0.948746 0.0033019 1.16495e-18)
(1.04057 0.00143478 3.13392e-18)
(0.937788 0.00756738 -2.13536e-18)
(1.01028 0.00454074 -5.71227e-18)
(0.910633 0.0385722 -1.9247e-18)
(0.851986 0.0383486 -1.22842e-18)
(1.04629 0.000312466 1.84931e-18)
(0.950716 -0.0010384 -1.49406e-17)
(1.05389 -0.000182177 -1.24846e-17)
(0.947983 0.00340527 1.60457e-18)
(1.04143 0.00152599 2.1721e-18)
(0.936611 0.00781343 -1.22262e-18)
(1.01186 0.00483459 -6.71062e-18)
(0.908667 0.0399133 -1.93759e-18)
(0.856734 0.0402663 5.13601e-19)
(1.043 8.5802e-05 -4.35978e-18)
(0.955663 -0.000369313 2.72628e-18)
(1.04777 -0.000230679 -9.95758e-18)
(0.957023 0.00163638 1.19984e-18)
(1.03147 0.000508826 2.34093e-19)
(0.950029 0.00371143 3.8915e-18)
(0.994277 0.0015937 1.04969e-17)
(0.930208 0.01855 1.89339e-18)
(0.80539 0.015966 3.78584e-18)
(1.04318 9.65573e-05 -3.97413e-18)
(0.955402 -0.000408226 1.34975e-18)
(1.04809 -0.000243423 -9.16088e-18)
(0.95656 0.00178017 2.54771e-18)
(1.03197 0.000565209 1.11677e-18)
(0.949365 0.0040399 2.86736e-18)
(0.995133 0.00177686 9.09295e-18)
(0.929173 0.0202201 7.63177e-19)
(0.807855 0.0176166 3.284e-18)
(1.04337 0.00010813 -3.8228e-18)
(0.955121 -0.000448624 1.30837e-18)
(1.04843 -0.000253964 -7.27556e-18)
(0.956062 0.00192131 4.07967e-18)
(1.03251 0.000623842 2.29533e-18)
(0.948647 0.00436126 1.91568e-18)
(0.996059 0.00196462 8.10313e-18)
(0.928054 0.021854 -3.49791e-19)
(0.810522 0.019254 -1.99262e-18)
(1.04357 0.000120473 -3.71727e-18)
(0.954821 -0.000490287 1.32394e-18)
(1.0488 -0.000262549 -5.61502e-18)
(0.955528 0.00206087 4.60018e-18)
(1.03309 0.000684522 3.36935e-18)
(0.947875 0.00468007 1.15014e-18)
(0.997055 0.00215779 7.34403e-18)
(0.92685 0.0234791 -1.57353e-18)
(0.813389 0.0208942 -2.7815e-18)
(1.04378 0.00013365 -3.97167e-18)
(0.954504 -0.00053334 2.17035e-20)
(1.04919 -0.000268977 -4.19199e-18)
(0.954959 0.00219864 5.36403e-18)
(1.0337 0.000747486 4.68081e-18)
(0.947052 0.00499566 4.5676e-19)
(0.99812 0.00235712 6.88705e-18)
(0.925563 0.0250924 -4.75997e-18)
(0.816452 0.0225397 -3.79663e-18)
(1.044 0.000147723 -4.12334e-18)
(0.954169 -0.000577904 -1.33173e-18)
(1.0496 -0.000273067 -4.54538e-18)
(0.954358 0.00233435 6.36374e-18)
(1.03436 0.000812937 4.36451e-18)
(0.946178 0.00530728 -2.46321e-19)
(0.999252 0.00256296 4.30571e-18)
(0.924194 0.0266899 -6.56806e-18)
(0.819709 0.0241889 -5.32962e-18)
(1.04424 0.00016274 -4.5906e-18)
(0.953818 -0.00062407 -2.72778e-18)
(1.05003 -0.000274686 -4.69944e-18)
(0.953726 0.00246788 6.34674e-18)
(1.03505 0.000881027 4.10551e-18)
(0.945254 0.00561464 -8.90749e-19)
(1.00045 0.00277554 1.91718e-18)
(0.922744 0.0282705 -7.04093e-18)
(0.823157 0.0258409 -6.46306e-18)
(1.04448 0.00017876 -5.36623e-18)
(0.953452 -0.000671948 -5.58883e-18)
(1.05048 -0.00027372 -5.02819e-18)
(0.953064 0.002599 5.28259e-18)
(1.03577 0.000951858 3.86369e-18)
(0.944283 0.00591719 -1.60565e-18)
(1.00171 0.00299447 -5.42984e-19)
(0.921213 0.0298313 -6.1644e-18)
(0.826792 0.0274883 -8.02379e-18)
(1.04474 0.000195845 -4.91856e-18)
(0.953072 -0.000721649 -7.26387e-18)
(1.05095 -0.000270106 -5.60344e-18)
(0.952373 0.00272749 4.4494e-18)
(1.03653 0.00102544 3.74471e-18)
(0.943267 0.00621419 -2.44526e-18)
(1.00304 0.00321835 -2.93751e-18)
(0.9196 0.0313677 -5.52366e-18)
(0.830611 0.0291102 -1.02522e-17)
(1.045 0.000213942 -3.37568e-18)
(0.952678 -0.000772997 -9.27122e-18)
(1.05144 -0.000263759 -7.77616e-18)
(0.951655 0.0028539 3.8356e-18)
(1.03732 0.00110204 3.6794e-18)
(0.942205 0.00650797 -2.06857e-18)
(1.00442 0.00345115 -3.19216e-18)
(0.917907 0.0328913 -5.25774e-18)
(0.834609 0.0307385 -8.24585e-18)
(1.04205 3.28023e-06 3.70646e-18)
(0.957065 -1.60392e-05 8.78676e-18)
(1.04608 -1.31605e-05 -1.58668e-18)
(0.959473 8.11417e-05 3.13991e-18)
(1.02883 2.21087e-05 1.00756e-18)
(0.953497 0.000186167 -2.39508e-18)
(0.989828 7.28942e-05 -7.63231e-19)
(0.935511 0.000929958 2.71457e-18)
(0.792725 0.000786938 2.00975e-17)
(1.04207 1.01846e-05 3.46557e-18)
(0.957039 -4.91265e-05 9.06956e-18)
(1.04611 -3.8474e-05 -3.00989e-18)
(0.959428 0.000240082 3.82753e-18)
(1.02888 6.72372e-05 1.66312e-18)
(0.953433 0.000545628 -5.82624e-19)
(0.989909 0.000215089 9.73437e-19)
(0.935413 0.00272069 4.5933e-18)
(0.792959 0.00229278 1.84416e-17)
(1.04211 1.72591e-05 3.34292e-18)
(0.956986 -8.26155e-05 9.61939e-18)
(1.04617 -6.3275e-05 -4.50292e-18)
(0.959337 0.000397932 4.73743e-18)
(1.02898 0.00011289 2.28484e-18)
(0.953305 0.000901634 -3.76734e-19)
(0.990072 0.000357606 2.92445e-18)
(0.935217 0.00449344 5.27281e-18)
(0.793427 0.00378995 1.70101e-17)
(1.04216 2.4503e-05 3.62612e-18)
(0.956908 -0.000116368 1.05687e-17)
(1.04627 -8.76275e-05 -6.40234e-18)
(0.9592 0.000555529 4.4829e-18)
(1.02913 0.000159015 3.01074e-18)
(0.953113 0.00125739 -1.94567e-20)
(0.990317 0.000501956 4.94425e-18)
(0.934925 0.00626619 6.1242e-18)
(0.794128 0.00529508 1.60306e-17)
(1.04223 3.19986e-05 2.69825e-18)
(0.956804 -0.000150526 1.18147e-17)
(1.04639 -0.000111343 -8.65447e-18)
(0.959019 0.000712665 4.54203e-18)
(1.02932 0.000205787 1.92404e-18)
(0.952858 0.00161233 2.07792e-19)
(0.990644 0.000648313 7.36866e-18)
(0.934537 0.00803602 7.30696e-18)
(0.79506 0.00680418 1.07503e-17)
(1.04232 3.98243e-05 1.86703e-18)
(0.956674 -0.000185232 1.03147e-17)
(1.04655 -0.000134233 -9.73159e-18)
(0.958793 0.000869102 3.45477e-18)
(1.02956 0.000253394 8.83365e-19)
(0.952539 0.00196587 6.34127e-19)
(0.991052 0.000796896 1.0133e-17)
(0.934053 0.00980016 7.19799e-18)
(0.796221 0.00831457 5.83147e-18)
(1.04242 4.80533e-05 -1.9328e-19)
(0.956519 -0.00022061 9.39503e-18)
(1.04674 -0.000156124 -1.12777e-17)
(0.958523 0.00102467 2.58382e-18)
(1.02985 0.000302005 5.33726e-21)
(0.952158 0.00231768 2.48555e-18)
(0.991541 0.000947995 1.09471e-17)
(0.933474 0.0115571 7.26369e-18)
(0.79761 0.00982495 9.49613e-19)
(1.04255 5.67686e-05 -2.24559e-18)
(0.956339 -0.000256811 7.44531e-18)
(1.04695 -0.000176838 -1.17627e-17)
(0.958209 0.00117911 1.99099e-18)
(1.03019 0.000351776 8.03619e-19)
(0.951715 0.00266707 4.60653e-18)
(0.992111 0.00110148 1.2323e-17)
(0.932799 0.0133035 7.40954e-18)
(0.799226 0.011329 8.42169e-19)
(1.04268 6.60509e-05 -4.2051e-18)
(0.956136 -0.000293966 5.64826e-18)
(1.0472 -0.000196234 -1.11323e-17)
(0.957853 0.00133223 1.57691e-18)
(1.03057 0.00040281 1.76898e-18)
(0.951211 0.00301348 5.42678e-18)
(0.992759 0.00125687 1.20251e-17)
(0.932029 0.0150359 6.11607e-18)
(0.801066 0.0128154 2.28525e-19)
(1.04284 7.58624e-05 -4.85968e-18)
(0.955908 -0.000331889 4.1927e-18)
(1.04748 -0.000214324 -1.1118e-17)
(0.957455 0.00148485 1.25632e-18)
(1.031 0.000455216 1.03447e-18)
(0.950645 0.00336043 5.24233e-18)
(0.993485 0.00141737 1.21141e-17)
(0.931162 0.0167736 3.08711e-18)
(0.803129 0.0143161 4.25841e-18)
)
;

boundaryField
{
    inlet
    {
        type            uniformFixedValue;
        uniformValue    constant (1 0 0);
        value           uniform (1 0 0);
    }
    outlet
    {
        type            pressureInletOutletVelocity;
        value           nonuniform 0();
    }
    polygon
    {
        type            fixedValue;
        value           nonuniform 0();
    }
    top
    {
        type            symmetryPlane;
    }
    bottom
    {
        type            symmetryPlane;
    }
    outside
    {
        type            zeroGradient;
    }
    procBoundary8to4
    {
        type            processor;
        value           nonuniform List<vector> 9((1.04205 -3.26914e-06 4.17107e-18) (0.957065 1.60312e-05 8.78306e-18) (1.04608 1.31587e-05 1.36218e-18) (0.959473 -8.11452e-05 2.63494e-18) (1.02883 -2.21052e-05 -1.40679e-18) (0.953497 -0.000186167 -4.15459e-18) (0.989828 -7.28859e-05 -2.61094e-18) (0.935511 -0.000929962 -4.08919e-19) (0.792725 -0.000786942 2.29325e-17));
    }
    procBoundary8to9
    {
        type            processor;
        value           nonuniform List<vector> 
25
(
(0.783138 0.272867 -5.55013e-18)
(0.784721 0.284293 -5.48457e-18)
(0.786387 0.295491 -5.66402e-18)
(0.788129 0.306711 -6.67692e-18)
(0.78994 0.317948 -3.92597e-18)
(0.770117 0.144354 -1.36779e-17)
(0.771082 0.157396 -1.55247e-17)
(0.772142 0.170316 -1.39334e-17)
(0.773291 0.183237 -1.26526e-17)
(0.774524 0.196162 -1.16379e-17)
(0.775834 0.209077 -1.11034e-17)
(0.777213 0.221981 -1.07876e-17)
(0.778651 0.234897 -1.09541e-17)
(0.780132 0.247866 -1.15967e-17)
(0.781639 0.260753 -8.7938e-18)
(0.7651 0.00688822 -1.67891e-17)
(0.765197 0.0207123 -1.9321e-17)
(0.76539 0.0345094 -1.88025e-17)
(0.765678 0.0482942 -1.88604e-17)
(0.766058 0.0620732 -1.99526e-17)
(0.766528 0.0758481 -2.25952e-17)
(0.767086 0.0896214 -1.73645e-17)
(0.767729 0.103406 -1.66116e-17)
(0.768453 0.11722 -1.20966e-17)
(0.769253 0.130992 -1.25177e-17)
)
;
    }
    procBoundary8to12
    {
        type            processor;
        value           nonuniform List<vector> 9((1.04655 0.000335135 1.36623e-18) (0.950308 -0.00109665 -1.34774e-17) (1.05441 -0.000156865 -1.15948e-17) (0.947206 0.00350584 2.19151e-18) (1.04231 0.00162073 1.1066e-18) (0.935407 0.00805396 -4.04561e-19) (1.01348 0.00513785 -7.91106e-18) (0.906645 0.0412328 -2.00843e-18) (0.861646 0.0421906 2.24196e-18));
    }
}


// ************************************************************************* //
