/*--------------------------------*- C++ -*----------------------------------*\
  =========                 |
  \\      /  F ield         | OpenFOAM: The Open Source CFD Toolbox
   \\    /   O peration     | Website:  https://openfoam.org
    \\  /    A nd           | Version:  7
     \\/     M anipulation  |
\*---------------------------------------------------------------------------*/
FoamFile
{
    version     2.0;
    format      ascii;
    class       volScalarField;
    location    "80";
    object      p;
}
// * * * * * * * * * * * * * * * * * * * * * * * * * * * * * * * * * * * * * //

dimensions      [0 2 -2 0 0 0 0];

internalField   nonuniform List<scalar> 
175
(
-0.0345457
-0.0356187
-0.0367172
-0.0378395
-0.0389841
-0.040149
-0.0413321
-0.0425307
-0.0437421
-0.0449623
-0.0383057
-0.0393847
-0.0404568
-0.0415141
-0.0425475
-0.0435451
-0.0444926
-0.0453724
-0.0461629
-0.0468377
-0.0473653
-0.0477082
-0.0332805
-0.034323
-0.0353836
-0.0364595
-0.0375472
-0.038643
-0.0397426
-0.040841
-0.0419318
-0.0430076
-0.0440589
-0.0450742
-0.046039
-0.0469355
-0.0477414
-0.0484296
-0.0489674
-0.0335384
-0.03459
-0.0356613
-0.0367494
-0.0378518
-0.0389652
-0.040086
-0.0412101
-0.0423325
-0.0434469
-0.0445459
-0.04562
-0.0466576
-0.0476441
-0.0485613
-0.0493868
-0.0500934
-0.0337681
-0.0348295
-0.0359118
-0.0370127
-0.0381298
-0.0392605
-0.0404016
-0.0415498
-0.042701
-0.04385
-0.0449909
-0.0461159
-0.0472153
-0.0482771
-0.0492863
-0.0502241
-0.0510675
-0.0339679
-0.035038
-0.0361302
-0.0372425
-0.0383728
-0.0395187
-0.0406777
-0.0418468
-0.0430226
-0.0442009
-0.0453766
-0.0465433
-0.047693
-0.0488156
-0.0498985
-0.0509259
-0.0518783
-0.0341374
-0.0352141
-0.0363139
-0.037435
-0.0385756
-0.0397336
-0.0409067
-0.0420923
-0.0432875
-0.0444887
-0.0456913
-0.04689
-0.0480778
-0.0492461
-0.0503841
-0.051478
-0.0525111
-0.0342778
-0.0353584
-0.0364629
-0.0375897
-0.0387371
-0.0399032
-0.0410859
-0.0422829
-0.0434914
-0.0447081
-0.0459293
-0.0471498
-0.0483635
-0.0495628
-0.0507382
-0.0518772
-0.0529653
-0.0343901
-0.0354718
-0.0365781
-0.0377074
-0.038858
-0.0400281
-0.0412158
-0.0424188
-0.0436345
-0.0448597
-0.0460908
-0.047323
-0.0485506
-0.0497663
-0.0509616
-0.0521247
-0.0532432
-0.0344773
-0.0355577
-0.0366633
-0.0377924
-0.0389433
-0.0401144
-0.0413036
-0.0425085
-0.0437266
-0.0449546
-0.0461888
-0.0474243
-0.0486556
-0.0498753
-0.0510753
-0.0522435
-0.0533694
-0.0345742
-0.0356537
-0.0367583
-0.0378865
-0.0390367
-0.0402071
-0.0413956
-0.0425999
-0.0438172
-0.0450441
-0.0462768
-0.04751
-0.0487385
-0.0499539
-0.0511491
-0.0523105
-0.0534296
)
;

boundaryField
{
    inlet
    {
        type            zeroGradient;
    }
    outlet
    {
        type            fixedValue;
        value           nonuniform 0();
    }
    polygon
    {
        type            zeroGradient;
    }
    top
    {
        type            symmetryPlane;
    }
    bottom
    {
        type            symmetryPlane;
    }
    outside
    {
        type            slip;
    }
    procBoundary51to42
    {
        type            processor;
        value           nonuniform List<scalar> 5(-0.0534621 -0.0539829 -0.0542978 -0.054432 -0.0544831);
    }
    procBoundary51to43
    {
        type            processor;
        value           nonuniform List<scalar> 
18
(
-0.0344963
-0.035567
-0.0366634
-0.0377838
-0.0389267
-0.0400901
-0.0412719
-0.0424695
-0.04368
-0.0461875
-0.0448996
-0.0461875
-0.0474116
-0.0486293
-0.0498305
-0.0510093
-0.0521471
-0.0532408
)
;
    }
    procBoundary51to44
    {
        type            processor;
        value           nonuniform List<scalar> 2(-0.0334995 -0.0335213);
    }
    procBoundary51to50
    {
        type            processor;
        value           nonuniform List<scalar> 5(-0.0478222 -0.0493154 -0.0506478 -0.0517886 -0.0527311);
    }
    procBoundary51to52
    {
        type            processor;
        value           nonuniform List<scalar> 8(-0.032259 -0.0325087 -0.0327298 -0.0329218 -0.0330856 -0.0332229 -0.0333346 -0.0334233);
    }
    procBoundary51to59
    {
        type            processor;
        value           nonuniform List<scalar> 
18
(
-0.0379626
-0.0390216
-0.0400665
-0.0410879
-0.0420743
-0.0430117
-0.043883
-0.0446677
-0.0453411
-0.0458737
-0.0462308
-0.046372
-0.0329975
-0.0340333
-0.0350857
-0.0361513
-0.0372262
-0.0372262
)
;
    }
}


// ************************************************************************* //
