/*--------------------------------*- C++ -*----------------------------------*\
  =========                 |
  \\      /  F ield         | OpenFOAM: The Open Source CFD Toolbox
   \\    /   O peration     | Website:  https://openfoam.org
    \\  /    A nd           | Version:  7
     \\/     M anipulation  |
\*---------------------------------------------------------------------------*/
FoamFile
{
    version     2.0;
    format      ascii;
    class       volVectorField;
    location    "28";
    object      U;
}
// * * * * * * * * * * * * * * * * * * * * * * * * * * * * * * * * * * * * * //

dimensions      [0 1 -1 0 0 0 0];

internalField   nonuniform List<vector> 
115
(
(1.00585 0.000655077 -1.56572e-18)
(0.992916 0.00114617 -2.4498e-18)
(1.0074 0.00137827 2.24553e-18)
(0.990297 0.00267756 -1.08288e-17)
(1.00908 0.00281232 2.19127e-17)
(0.98646 0.00568695 -5.5393e-17)
(1.01059 0.00577064 7.94978e-17)
(0.98078 0.0116763 -1.13387e-17)
(1.01123 0.0118966 -4.05277e-18)
(0.972372 0.0237751 -2.90932e-17)
(1.0096 0.0246251 8.6533e-17)
(0.960616 0.0489544 1.76974e-17)
(1.00352 0.0509889 2.23e-17)
(0.948198 0.10335 8.41567e-18)
(1.00396 0.000203462 4.39192e-18)
(0.995624 0.000378726 -1.19656e-17)
(1.00512 0.000613938 -7.93243e-18)
(0.993947 0.00126895 -8.79412e-18)
(1.00643 0.00134269 8.39748e-18)
(0.991848 0.00289548 -2.24303e-17)
(1.00782 0.00279824 2.22053e-17)
(0.988848 0.00608155 -1.06054e-16)
(1.00903 0.00581156 2.20267e-17)
(0.984547 0.0123961 -7.75692e-17)
(1.00946 0.0120286 -1.53834e-17)
(0.978493 0.0250732 -2.2155e-17)
(1.00803 0.0248077 2.98025e-17)
(0.970818 0.0511619 9.27368e-18)
(1.00359 0.0507331 -4.26562e-18)
(0.965042 0.106051 -7.59367e-18)
(1.00339 0.000155224 2.08024e-17)
(0.996354 0.000465994 -7.97882e-17)
(1.00435 0.000539773 -2.0684e-17)
(0.995014 0.00140943 -1.29243e-17)
(1.00543 0.00125113 2.14029e-17)
(0.993435 0.00313023 -8.51735e-17)
(1.00656 0.00269077 -2.97172e-18)
(0.991255 0.00648393 -6.09742e-17)
(1.00752 0.00569496 7.89101e-17)
(0.988272 0.01309 -6.55712e-18)
(1.00786 0.0118916 9.9789e-19)
(0.984386 0.02624 -2.85706e-17)
(1.00696 0.0245421 9.76214e-17)
(0.980271 0.052927 -2.94545e-17)
(1.0048 0.0498484 -9.33945e-17)
(0.979803 0.107423 -2.35822e-17)
(1.00284 8.87349e-05 1.79165e-17)
(0.997063 0.000567977 -1.53495e-17)
(1.00361 0.000434827 4.87713e-18)
(0.996043 0.00156347 2.32709e-19)
(1.00448 0.00110826 1.21507e-17)
(0.994949 0.00337352 -2.20611e-17)
(1.00541 0.00249954 1.49709e-17)
(0.993521 0.00687762 -9.17226e-17)
(1.00623 0.00544111 2.26051e-17)
(0.991723 0.0137252 -6.08101e-17)
(1.0067 0.0115299 -1.42081e-17)
(0.989735 0.0272104 -7.20169e-18)
(1.00667 0.0239278 3.56734e-17)
(0.988621 0.0541392 1.50999e-17)
(1.00733 0.0485352 -2.87321e-17)
(0.992431 0.107416 -9.96713e-18)
(1.00232 7.1418e-06 7.23309e-17)
(0.997713 0.00068021 -6.43276e-18)
(1.00294 0.000304188 7.98632e-17)
(0.99698 0.00172368 1.9011e-17)
(1.00365 0.000922797 8.0895e-18)
(0.996314 0.00361276 -3.51688e-18)
(1.00445 0.00223966 -2.47877e-18)
(0.995545 0.007241 2.55336e-17)
(1.00526 0.00507698 8.06199e-17)
(0.994772 0.0142645 7.88661e-17)
(1.00606 0.0109928 1.23139e-18)
(0.994405 0.0279229 5.69523e-17)
(1.00723 0.0230561 9.89239e-17)
(0.995814 0.0547227 5.39898e-17)
(1.01098 0.0469436 -7.41728e-17)
(1.00323 0.10605 -1.85813e-17)
(1.00186 -8.5476e-05 1.8265e-17)
(0.998279 0.000796907 -1.545e-17)
(1.00236 0.000154544 8.27995e-18)
(0.997794 0.00188125 7.58528e-19)
(1.00296 0.000705275 1.23205e-17)
(0.997493 0.00383396 -1.69621e-17)
(1.00371 0.00192795 1.38765e-17)
(0.997285 0.00755217 -9.03433e-17)
(1.00464 0.00462993 2.18377e-17)
(0.997385 0.0146746 -5.7261e-17)
(1.00593 0.010325 -1.56653e-17)
(0.998406 0.0283307 -4.27996e-18)
(1.0085 0.0220002 3.30086e-17)
(1.002 0.0546329 2.47218e-17)
(1.01537 0.0452137 -2.2118e-17)
(1.01264 0.103355 -1.1821e-17)
(1.00146 -0.000184469 2.14963e-17)
(0.998751 0.000912099 -7.74757e-17)
(1.00187 -7.31758e-06 -1.73642e-17)
(0.998474 0.00202735 -8.31573e-18)
(1.00242 0.000466176 2.27691e-17)
(0.998479 0.00402412 -8.31235e-17)
(1.0032 0.00158015 -4.49605e-18)
(0.998746 0.0077924 -5.47614e-17)
(1.00433 0.00412366 7.80216e-17)
(0.999593 0.014931 -3.06133e-18)
(1.00624 0.00956096 1.40738e-18)
(1.00183 0.0284083 -2.33366e-17)
(1.01028 0.0208064 9.52974e-17)
(1.00739 0.0538724 -2.35107e-17)
(1.02007 0.0433766 -9.20093e-17)
(1.02106 0.0995132 -2.41793e-17)
(1.04518 0.0862823 -2.84166e-17)
(1.00113 -0.000285434 1.84888e-17)
(0.99913 0.00102028 -1.47709e-17)
(1.00149 -0.000175111 8.32739e-18)
(0.999025 0.00215421 2.95548e-18)
)
;

boundaryField
{
    inlet
    {
        type            uniformFixedValue;
        uniformValue    constant (1 0 0);
        value           uniform (1 0 0);
    }
    outlet
    {
        type            pressureInletOutletVelocity;
        value           nonuniform 0();
    }
    polygon
    {
        type            fixedValue;
        value           nonuniform 0();
    }
    top
    {
        type            symmetryPlane;
    }
    bottom
    {
        type            symmetryPlane;
    }
    outside
    {
        type            zeroGradient;
    }
    procBoundary48to40
    {
        type            processor;
        value           nonuniform List<vector> 
17
(
(1.00648 0.000664683 -8.73285e-19)
(0.992005 0.00104057 -3.00058e-18)
(1.00825 0.00135914 1.81554e-18)
(0.98891 0.00247785 -1.03023e-17)
(1.01018 0.00273261 3.01347e-17)
(0.984292 0.00530643 -1.04303e-16)
(1.01197 0.00556572 2.29776e-17)
(0.977283 0.0109495 -7.95709e-17)
(1.01284 0.0114701 -1.82544e-17)
(0.966511 0.0223959 -2.04841e-17)
(1.01116 0.0239102 3.1986e-17)
(0.950368 0.0464242 -2.55261e-18)
(1.00396 0.0503677 7.96587e-17)
(0.92994 0.0995231 9.75476e-17)
(1.00449 0.000231966 2.36063e-18)
(0.994923 0.000308301 -2.14861e-18)
(0.994923 0.000308301 -2.14861e-18)
)
;
    }
    procBoundary48to41
    {
        type            processor;
        value           nonuniform List<vector> 4((0.994057 0.103802 1.13269e-16) (1.00028 0.10114 2.10543e-17) (1.00816 0.0983705 -2.14684e-17) (1.01722 0.0955672 -1.96401e-17));
    }
    procBoundary48to49
    {
        type            processor;
        value           nonuniform List<vector> 4((1.02677 0.0926396 -1.43317e-17) (1.03621 0.0895726 -1.07332e-17) (1.03621 0.0895726 -1.07332e-17) (1.05358 0.170342 6.28313e-17));
    }
    procBoundary48to56
    {
        type            processor;
        value           nonuniform List<vector> 
18
(
(1.00202 0.000214957 1.3423e-17)
(0.999286 0.00417264 -1.88342e-17)
(1.00288 0.00120956 1.40107e-17)
(0.999957 0.00794818 -8.77029e-17)
(1.00428 0.00357645 2.38669e-17)
(1.00146 0.0150196 -5.78402e-17)
(1.00685 0.00872407 -1.49639e-17)
(1.00478 0.0281498 -7.47917e-18)
(1.01236 0.0195007 3.23963e-17)
(1.0122 0.0524775 1.67942e-17)
(1.02479 0.0413652 -2.40148e-17)
(1.02873 0.0948336 -1.18306e-17)
(1.05352 0.082649 -1.59575e-17)
(1.00086 -0.00038473 7.09764e-17)
(0.999425 0.00111675 -4.43149e-18)
(1.00119 -0.000343149 8.1008e-17)
(1.00202 0.000214957 1.3423e-17)
(0.999463 0.0022559 2.15198e-17)
)
;
    }
}


// ************************************************************************* //
