/*--------------------------------*- C++ -*----------------------------------*\
  =========                 |
  \\      /  F ield         | OpenFOAM: The Open Source CFD Toolbox
   \\    /   O peration     | Website:  https://openfoam.org
    \\  /    A nd           | Version:  7
     \\/     M anipulation  |
\*---------------------------------------------------------------------------*/
FoamFile
{
    version     2.0;
    format      ascii;
    class       volVectorField;
    location    "74";
    object      U;
}
// * * * * * * * * * * * * * * * * * * * * * * * * * * * * * * * * * * * * * //

dimensions      [0 1 -1 0 0 0 0];

internalField   nonuniform List<vector> 
125
(
(-0.327118 2.2006e-05 -7.07039e-19)
(-0.327137 -1.00258e-05 1.13798e-18)
(-0.326936 -4.36335e-05 4.003e-19)
(-0.326496 -7.99243e-05 1.83734e-18)
(-0.325809 -0.000117956 -2.65331e-18)
(-0.324867 -0.000156919 -9.82236e-19)
(-0.32367 -0.000196136 4.29715e-20)
(-0.321443 1.23375e-05 8.11451e-20)
(-0.321506 6.1077e-05 4.5626e-19)
(-0.321717 0.000137228 -3.13319e-19)
(-0.322109 0.000207623 -7.88127e-19)
(-0.322637 0.000258929 -1.23438e-19)
(-0.32325 0.000285015 5.1985e-19)
(-0.323889 0.00028408 1.71967e-18)
(-0.324497 0.00025742 -6.68542e-19)
(-0.325021 0.000207853 1.96399e-18)
(-0.325415 0.000138762 1.53378e-18)
(-0.325642 5.37153e-05 -2.35618e-18)
(-0.325675 -4.21549e-05 1.01974e-18)
(-0.325487 -0.000145896 4.08759e-20)
(-0.325062 -0.000256364 3.49827e-18)
(-0.324388 -0.000371049 -3.5583e-18)
(-0.323461 -0.00048785 -2.05478e-18)
(-0.322278 -0.000604886 6.99754e-19)
(-0.318185 2.22514e-05 2.86226e-20)
(-0.318262 0.00010578 4.29928e-19)
(-0.318495 0.000235253 -4.79497e-20)
(-0.31892 0.000354086 -5.30397e-19)
(-0.319484 0.000440133 -1.27097e-19)
(-0.320136 0.00048358 -1.02453e-18)
(-0.320813 0.000481768 4.54599e-19)
(-0.321457 0.000437133 1.4892e-18)
(-0.322014 0.000354573 8.62667e-19)
(-0.32244 0.000239861 7.66542e-19)
(-0.322698 9.90954e-05 -2.02825e-18)
(-0.322759 -6.10241e-05 -2.03926e-18)
(-0.3226 -0.000235524 -2.1929e-19)
(-0.322202 -0.000420927 2.45652e-18)
(-0.321557 -0.000613032 -2.89129e-18)
(-0.320659 -0.000808392 -3.49397e-18)
(-0.319505 -0.00100389 2.2825e-18)
(-0.313309 3.48332e-05 3.61302e-20)
(-0.313407 0.000156768 1.46254e-19)
(-0.313675 0.000343729 2.33851e-20)
(-0.314151 0.000513461 -6.34846e-19)
(-0.314773 0.000635032 -1.43666e-19)
(-0.315483 0.000695506 -1.11087e-18)
(-0.316217 0.000691827 -1.19355e-19)
(-0.316915 0.000627904 1.78858e-18)
(-0.317523 0.000510921 6.42195e-20)
(-0.317997 0.000349068 1.53398e-19)
(-0.318299 0.000150954 -3.48793e-18)
(-0.318404 -7.426e-05 -1.56433e-18)
(-0.318287 -0.000318763 6.54149e-20)
(-0.317932 -0.000578391 3.02625e-18)
(-0.317329 -0.00084726 -5.28121e-18)
(-0.316474 -0.0011205 -9.96645e-19)
(-0.315364 -0.00139376 6.81992e-19)
(-0.306825 5.17934e-05 8.81995e-20)
(-0.306956 0.000217726 -7.53256e-20)
(-0.307273 0.000468157 1.31619e-20)
(-0.307821 0.000692262 -1.19469e-18)
(-0.308522 0.000850513 -2.15797e-19)
(-0.309311 0.00092777 -1.92359e-18)
(-0.310121 0.00092127 -3.35967e-19)
(-0.31089 0.000836889 4.21793e-19)
(-0.311566 0.000684431 -1.14455e-18)
(-0.312102 0.000474745 -6.39189e-19)
(-0.312465 0.000219192 -3.4637e-18)
(-0.312627 -7.17641e-05 -1.28096e-18)
(-0.312567 -0.00038719 1.16146e-18)
(-0.312268 -0.0007216 2.77407e-19)
(-0.311722 -0.00106738 -7.05958e-18)
(-0.310924 -0.00141838 -3.04477e-18)
(-0.309874 -0.00176906 -2.75721e-19)
(-0.298746 7.5287e-05 4.23106e-20)
(-0.298926 0.000292918 -3.67292e-19)
(-0.299311 0.000614494 -4.37976e-20)
(-0.299953 0.000897134 -1.31841e-18)
(-0.300755 0.00109315 -2.41943e-19)
(-0.301644 0.00118653 -1.89856e-18)
(-0.30255 0.00117571 -2.99385e-19)
(-0.303409 0.00106913 -5.76153e-19)
(-0.304167 0.000879537 -1.56903e-20)
(-0.304782 0.000620547 -1.85012e-18)
(-0.305219 0.000306167 -1.78717e-18)
(-0.305452 -5.18259e-05 -8.63565e-19)
(-0.305462 -0.000437703 -1.12907e-18)
(-0.305234 -0.000846661 -3.15968e-18)
(-0.304759 -0.00126907 -3.76922e-18)
(-0.304034 -0.0016974 -5.42594e-18)
(-0.303058 -0.00212496 -6.89514e-19)
(-0.289091 0.000108286 1.6854e-20)
(-0.28934 0.000387662 -3.91534e-19)
(-0.289815 0.000789543 -1.43239e-19)
(-0.290578 0.00113518 -1.09947e-18)
(-0.291505 0.00136959 -2.43427e-19)
(-0.292516 0.00147778 -1.11139e-18)
(-0.293536 0.00146053 -1.49773e-19)
(-0.2945 0.00132952 9.53637e-19)
(-0.295357 0.00110083 1.13908e-18)
(-0.296065 0.000791033 -7.88738e-19)
(-0.29659 0.000416716 -1.05784e-18)
(-0.296908 -9.95855e-06 -7.36654e-19)
(-0.297002 -0.00046591 3.40423e-19)
(-0.296858 -0.000949276 -3.77041e-18)
(-0.296468 -0.00144803 -2.63553e-18)
(-0.295829 -0.00195318 -5.34972e-18)
(-0.294943 -0.00245694 -4.21265e-19)
(-0.277882 0.000154826 -1.78211e-20)
(-0.27823 0.000508899 -1.62161e-19)
(-0.278821 0.00100121 -3.00117e-19)
(-0.279732 0.00141421 -3.12712e-19)
(-0.280809 0.00168673 -1.81056e-19)
(-0.281962 0.00180744 -1.00827e-18)
(-0.283115 0.00178084 2.03336e-19)
(-0.284201 0.00162257 3.9634e-19)
(-0.285171 0.0013524 2.74505e-18)
(-0.285984 0.000990049 -5.62165e-19)
(-0.286611 0.000554729 -8.11928e-19)
(-0.287027 6.11671e-05 -5.99294e-19)
(-0.287218 -0.000467515 1.85427e-18)
(-0.287171 -0.00102543 -2.33247e-18)
(-0.28688 -0.00160013 -2.5914e-18)
(-0.286343 -0.00218142 -2.91176e-18)
)
;

boundaryField
{
    inlet
    {
        type            uniformFixedValue;
        uniformValue    constant (1 0 0);
        value           nonuniform 0();
    }
    outlet
    {
        type            pressureInletOutletVelocity;
        value           nonuniform List<vector> 7((-0.321443 0 0) (-0.318185 0 0) (-0.313309 0 0) (-0.306825 0 0) (-0.298746 0 0) (-0.289091 0 0) (-0.277882 0 0));
    }
    polygon
    {
        type            fixedValue;
        value           nonuniform 0();
    }
    top
    {
        type            symmetryPlane;
    }
    bottom
    {
        type            symmetryPlane;
    }
    outside
    {
        type            zeroGradient;
    }
    procBoundary31to23
    {
        type            processor;
        value           nonuniform List<vector> 
18
(
(-0.285559 -0.00276051 7.97726e-19)
(-0.265147 0.000220326 -7.83469e-20)
(-0.265631 0.000666545 -6.97462e-20)
(-0.266368 0.00125931 -6.53236e-19)
(-0.267459 0.00174375 3.08894e-19)
(-0.268712 0.00205292 -2.27365e-19)
(-0.270027 0.00218269 -1.547e-18)
(-0.271328 0.00214296 9.68007e-19)
(-0.272551 0.00195396 2.22054e-19)
(-0.273647 0.00163944 2.77164e-18)
(-0.274579 0.00122231 -1.48684e-18)
(-0.275319 0.000724195 -9.43838e-19)
(-0.275846 0.00016336 -5.10272e-19)
(-0.276146 -0.000439191 2.37858e-19)
(-0.27621 -0.00107065 -3.32937e-18)
(-0.276031 -0.00172028 -3.8899e-18)
(-0.285559 -0.00276051 7.97726e-19)
(-0.275609 -0.00237671 -1.7806e-18)
)
;
    }
    procBoundary31to30
    {
        type            processor;
        value           nonuniform List<vector> 7((-0.322218 -0.000235018 1.60678e-18) (-0.320842 -0.00072049 -7.2788e-20) (-0.318099 -0.00119678 -2.321e-18) (-0.314004 -0.00166319 -1.3875e-18) (-0.308575 -0.00211457 -1.77074e-18) (-0.301835 -0.00254589 -3.33305e-18) (-0.293811 -0.00295249 -1.28591e-18));
    }
    procBoundary31to39
    {
        type            processor;
        value           nonuniform List<vector> 
18
(
(-0.327118 -2.34625e-05 -6.62455e-20)
(-0.327137 8.32983e-06 2.24256e-18)
(-0.326936 4.16486e-05 7.58239e-19)
(-0.326496 7.76448e-05 1.07852e-18)
(-0.325808 0.000115391 8.74579e-19)
(-0.324867 0.000154094 1.78346e-20)
(-0.32367 0.000193094 4.8116e-20)
(-0.323074 4.24351e-06 6.66991e-20)
(-0.323131 2.10004e-05 2.0232e-19)
(-0.323331 4.69576e-05 -5.8659e-20)
(-0.323707 7.1127e-05 -2.25957e-19)
(-0.324216 8.90022e-05 6.02145e-20)
(-0.32481 9.84542e-05 5.57425e-19)
(-0.325431 9.87981e-05 1.45933e-18)
(-0.326021 9.0392e-05 -7.81712e-19)
(-0.326527 7.41021e-05 1.45424e-18)
(-0.326905 5.09583e-05 2.62156e-18)
(-0.326905 5.09583e-05 2.62156e-18)
)
;
    }
}


// ************************************************************************* //
