/*--------------------------------*- C++ -*----------------------------------*\
  =========                 |
  \\      /  F ield         | OpenFOAM: The Open Source CFD Toolbox
   \\    /   O peration     | Website:  https://openfoam.org
    \\  /    A nd           | Version:  7
     \\/     M anipulation  |
\*---------------------------------------------------------------------------*/
FoamFile
{
    version     2.0;
    format      ascii;
    class       volScalarField;
    location    "5";
    object      p;
}
// * * * * * * * * * * * * * * * * * * * * * * * * * * * * * * * * * * * * * //

dimensions      [0 2 -2 0 0 0 0];

internalField   nonuniform List<scalar> 
225
(
0.00337907
0.0103546
0.0150176
0.0319093
0.0140041
0.0721441
-0.00592646
0.121855
-0.075394
0.00338167
0.0103555
0.0150374
0.0318937
0.0140615
0.0720712
-0.00583662
0.121624
-0.0755911
0.00338441
0.0103566
0.0150582
0.0318774
0.0141186
0.071989
-0.00576289
0.121355
-0.0758514
0.00338714
0.0103576
0.0150787
0.0318606
0.014174
0.071905
-0.00569439
0.121082
-0.0761282
0.00338987
0.0103584
0.0150992
0.0318436
0.0142289
0.0718209
-0.00562638
0.120807
-0.0764111
0.0033926
0.0103591
0.0151197
0.0318264
0.0142832
0.0717366
-0.0055601
0.120531
-0.0767086
0.00339534
0.0103598
0.0151402
0.0318092
0.0143373
0.0716526
-0.00549465
0.120253
-0.0770041
0.00339821
0.0103608
0.0151614
0.0317921
0.0143944
0.0715667
-0.00542105
0.119964
-0.0772395
0.00340136
0.0103624
0.0151848
0.0317734
0.0144579
0.0714676
-0.0053402
0.119622
-0.0775057
0.00340396
0.0103611
0.0152051
0.0317494
0.0145008
0.0713602
-0.00533171
0.11928
-0.0783812
-0.0738883
0.0103552
0.0149336
0.0319873
0.0137867
0.0724936
-0.00619524
0.122879
-0.0741351
0.00336989
0.0103552
0.0149498
0.0319726
0.0138279
0.072425
-0.00615075
0.122676
-0.074394
0.00337211
0.0103551
0.014966
0.0319576
0.0138684
0.0723553
-0.00611023
0.122468
-0.0746689
0.00337433
0.0103549
0.0149823
0.0319427
0.0139086
0.0722862
-0.00607085
0.122259
-0.0749479
0.00337667
0.0103547
0.0149996
0.0319272
0.0139543
0.0722182
-0.00601014
0.122058
-0.0751823
0.00342159
0.0102896
0.0153745
0.0314555
0.0147275
0.070568
-0.0057172
0.117426
-0.0916827
0.00343535
0.0102175
0.0153825
0.0312461
0.014393
0.0696044
-0.0068637
0.112616
-0.0828474
0.00344719
0.0101421
0.0154804
0.0308647
0.0142655
0.0680497
-0.00790314
0.106435
-0.0906037
0.0034551
0.01007
0.0155347
0.0305104
0.0140489
0.0666468
-0.00874754
0.101486
-0.0821518
0.00346063
0.0100066
0.0155758
0.0301544
0.013817
0.0651982
-0.0095282
0.0963088
-0.0804619
0.0034639
0.00995028
0.0156044
0.0298111
0.0135875
0.0638506
-0.0100908
0.0924129
-0.0727107
0.00346595
0.00990175
0.0156206
0.0294823
0.0133474
0.0625635
-0.0106237
0.0886791
-0.0679667
0.00346743
0.00986138
0.0156269
0.0291779
0.0131111
0.0613987
-0.0110062
0.0859759
-0.0606074
0.00346828
0.00982976
0.0156276
0.0289142
0.0128866
0.0603907
-0.011403
0.0836249
-0.0566576
0.00347047
0.00980643
0.0156124
0.0285854
0.0125784
0.0591059
-0.0118204
0.0816701
-0.0479144
)
;

boundaryField
{
    inlet
    {
        type            zeroGradient;
    }
    outlet
    {
        type            fixedValue;
        value           uniform 0;
    }
    polygon
    {
        type            zeroGradient;
    }
    top
    {
        type            symmetryPlane;
    }
    bottom
    {
        type            symmetryPlane;
    }
    outside
    {
        type            slip;
    }
    procBoundary3to2
    {
        type            processor;
        value           nonuniform List<scalar> 5(-0.00617252 -0.00213256 -0.00684506 -0.00473947 -0.00573768);
    }
    procBoundary3to6
    {
        type            processor;
        value           nonuniform List<scalar> 
21
(
0.121639
0.121824
0.121878
0.121922
0.12198
0.12206
0.122111
0.121926
0.121672
0.123097
0.121699
0.121632
0.121551
0.121436
0.121292
0.121302
0.163366
0.059041
0.0539176
0.00566647
0.011042
)
;
    }
    procBoundary3to7
    {
        type            processor;
        value           nonuniform List<scalar> 
11
(
-0.0736504
0.0103551
0.0149176
0.0320016
0.0137453
0.0725609
-0.00624168
0.123078
0.123078
0.0033677
0.0033677
)
;
    }
}


// ************************************************************************* //
