/*--------------------------------*- C++ -*----------------------------------*\
  =========                 |
  \\      /  F ield         | OpenFOAM: The Open Source CFD Toolbox
   \\    /   O peration     | Website:  https://openfoam.org
    \\  /    A nd           | Version:  7
     \\/     M anipulation  |
\*---------------------------------------------------------------------------*/
FoamFile
{
    version     2.0;
    format      ascii;
    class       surfaceScalarField;
    location    "44";
    object      phi;
}
// * * * * * * * * * * * * * * * * * * * * * * * * * * * * * * * * * * * * * //

dimensions      [0 3 -1 0 0 0 0];

internalField   nonuniform List<scalar> 
220
(
-0.00217813
0.00954344
-0.00938345
-0.00235112
0.00961306
-0.00944008
-0.00253898
0.0097209
-0.00953303
-0.00273641
0.00985595
-0.00965852
-0.00290419
0.00996992
-0.00980214
0.00985579
-0.0098239
-0.00218156
0.00970264
-0.00235258
0.00978408
-0.00253413
0.00990244
-0.0027107
0.0100325
-0.00282274
0.010082
0.00976564
-0.00218492
0.0098611
-0.00235341
0.00995258
-0.00252573
0.0100748
-0.00267444
0.0101812
-0.00272038
0.0101279
0.00955341
-0.0021867
0.0100183
-0.00235108
0.010117
-0.00251031
0.010234
-0.00262407
0.010295
-0.00259703
0.0101009
-0.00218622
0.0101734
-0.00234434
0.0102751
-0.00248582
0.0103755
-0.00255739
0.0103666
0.00999603
-0.00218253
0.010325
-0.00233149
0.010424
-0.00245054
0.0104945
-0.00247484
0.0103909
0.00981253
-0.00217706
0.0104725
-0.00231517
0.0105621
-0.00240823
0.0105876
-0.00238127
0.0103639
0.00955146
-0.00216733
0.0106136
-0.0022902
0.010685
-0.00235208
0.0106495
-0.0022725
0.0102843
0.00922133
-0.00215752
0.0107492
-0.00226695
0.0107944
-0.00229956
0.0106821
-0.00216784
0.0101526
0.00882412
-0.00214196
-0.00222696
-0.00221517
-0.00202255
-0.000196811
0.00946557
-0.00944754
-0.000229522
0.00944229
-0.00940958
-0.000279633
0.00943929
-0.00938918
-0.000349476
0.00946567
-0.00939583
0.00950663
-0.00941788
-0.000172062
0.0094776
-0.000197608
0.00946784
-0.000239129
0.00948081
-0.000298846
0.00952539
0.00958346
-0.000152033
0.00948493
-0.000172041
0.00948785
-0.000206895
0.00951566
-0.00025879
0.00957728
0.00965087
-0.000132402
0.00948748
-0.000146598
0.00950204
-0.000174394
0.00954346
-0.00021773
0.00962062
0.00970809
-0.000110669
0.00948466
-0.000118262
0.00950964
-0.000138059
0.00956325
-0.000171563
0.00965412
0.00975396
-8.6656e-05
0.00947607
-8.71687e-05
0.00951015
-9.85134e-05
0.0095746
-0.000121708
0.00967732
0.00978846
-6.205e-05
0.00946173
-5.5415e-05
0.00950352
-5.81553e-05
0.00957734
-7.04188e-05
0.00968958
0.00981068
-3.53593e-05
0.00944127
-2.09603e-05
0.00948912
-1.45417e-05
0.00957092
-1.52537e-05
0.00969029
-2.62577e-05
0.00982169
0.00984805
-1.17991e-05
0.00941523
8.96461e-06
0.00946835
2.27665e-05
0.00955712
3.27854e-05
0.00968028
3.69784e-05
0.0098175
0.00983904
1.97205e-05
4.79974e-05
7.2083e-05
9.38386e-05
0.000109194
0.00767136
0.00624514
0.00785243
0.0052893
0.013115
0.00793207
0.00623151
0.00804528
0.00517609
0.0117644
0.0081614
0.00609062
0.0082434
0.00509409
0.0106187
0.00833936
0.00587063
0.00843249
0.00500096
0.00964158
0.00848395
0.00560662
0.00860251
0.0048824
0.00879655
0.00860552
0.00875064
)
;

boundaryField
{
    inlet
    {
        type            calculated;
        value           nonuniform 0();
    }
    outlet
    {
        type            calculated;
        value           nonuniform 0();
    }
    polygon
    {
        type            calculated;
        value           nonuniform 0();
    }
    top
    {
        type            symmetryPlane;
        value           uniform 0;
    }
    bottom
    {
        type            symmetryPlane;
        value           uniform 0;
    }
    outside
    {
        type            calculated;
        value           nonuniform 0();
    }
    procBoundary41to33
    {
        type            processor;
        value           nonuniform List<scalar> 
25
(
-0.00293607
-0.00273259
-0.00250815
-0.00226775
0.00922413
-0.00245255
-0.00229134
-0.0021202
-0.00194237
-0.00177062
-0.0015742
-0.000438231
-0.000375679
-0.000326196
-0.000274951
-0.000217436
-0.000156205
-9.26421e-05
-0.00983941
-3.4895e-05
4.59802e-05
0.000124335
-0.00611952
-0.00547038
-0.0146804
)
;
    }
    procBoundary41to40
    {
        type            processor;
        value           uniform -0.00779697;
    }
    procBoundary41to42
    {
        type            processor;
        value           nonuniform List<scalar> 2(0.00995997 0.00837577);
    }
    procBoundary41to48
    {
        type            processor;
        value           nonuniform List<scalar> 5(-0.00791844 -0.00802051 -0.00811937 -0.00821995 -0.00831831);
    }
    procBoundary41to49
    {
        type            processor;
        value           nonuniform List<scalar> 
24
(
0.00201815
0.00202235
0.00202646
0.00202953
0.00203114
0.00203092
0.0020295
0.00202625
0.00202193
0.00201728
0.000178778
0.00949426
0.000160039
0.000144702
0.000129854
0.00011349
9.52442e-05
7.63906e-05
5.58187e-05
3.78363e-05
1.20576e-05
0.00531941
0.00473727
0.00805293
)
;
    }
    procBoundary41to50
    {
        type            processor;
        value           nonuniform List<scalar> 3(0.0108739 0.0108794 0.0106703);
    }
}


// ************************************************************************* //
