/*--------------------------------*- C++ -*----------------------------------*\
  =========                 |
  \\      /  F ield         | OpenFOAM: The Open Source CFD Toolbox
   \\    /   O peration     | Website:  https://openfoam.org
    \\  /    A nd           | Version:  7
     \\/     M anipulation  |
\*---------------------------------------------------------------------------*/
FoamFile
{
    version     2.0;
    format      ascii;
    class       volScalarField;
    location    "74";
    object      p;
}
// * * * * * * * * * * * * * * * * * * * * * * * * * * * * * * * * * * * * * //

dimensions      [0 2 -2 0 0 0 0];

internalField   nonuniform List<scalar> 
7360
(
-0.000670742
-0.00202564
-0.00341847
-0.00486758
-0.00635795
-0.00787038
-0.00938503
-0.0108814
-0.0123406
-0.0137462
-0.0150841
-0.0163431
-0.0175143
-0.0185905
-0.0195664
-0.0204401
-0.0212109
-0.0218797
-0.0224487
-0.0229214
-0.0233024
-0.0235972
-0.0238121
-0.0239541
-0.0240308
-0.02405
-0.0240202
-0.0239495
-0.0238463
-0.0237188
-0.0235752
-0.0234232
-0.0232701
-0.0231228
-0.0229875
-0.02287
-0.0227752
-0.0227077
-0.0226712
-0.0226689
-0.0227033
-0.0227766
-0.0228904
-0.023046
-0.023244
-0.0234851
-0.0237693
-0.0240965
-0.0244664
-0.0248785
-0.0253323
-0.025827
-0.0263618
-0.0269361
-0.027549
-0.0281996
-0.0288872
-0.0296111
-0.0303704
-0.0311646
-0.0319928
-0.0328546
-0.0337491
-0.0346756
-0.0356369
-0.0366268
-0.0376465
-0.0386968
-0.0397768
-0.0408851
-0.0420187
-0.043178
-0.0443687
-0.0455816
-0.0468171
-0.0480737
-0.049349
-0.0506403
-0.0519439
-0.0532558
-0.0545706
-0.0558821
-0.0571825
-0.0584624
-0.0597104
-0.0609124
-0.062052
-0.0631073
-0.0640563
-0.0648609
-0.0655035
-0.0658941
-0.0660949
-0.0657941
-0.0655377
-0.0639929
-0.063718
-0.0604465
-0.0608468
-0.0568821
-0.000673961
-0.00203126
-0.00342517
-0.00487211
-0.00635888
-0.00786721
-0.00937772
-0.0108702
-0.0123261
-0.0137287
-0.0150642
-0.0163212
-0.0174913
-0.0185668
-0.0195424
-0.0204161
-0.0211872
-0.0218566
-0.0224264
-0.0229001
-0.0232823
-0.0235784
-0.0237948
-0.0239384
-0.0240167
-0.0240376
-0.0240093
-0.0239403
-0.0238387
-0.0237128
-0.0235706
-0.02342
-0.0232681
-0.0231219
-0.0229876
-0.0228709
-0.0227768
-0.0227097
-0.0226736
-0.0226714
-0.0227059
-0.0227791
-0.0228927
-0.0230479
-0.0232456
-0.0234861
-0.0237696
-0.0240961
-0.0244652
-0.0248765
-0.0253293
-0.0258231
-0.026357
-0.0269302
-0.027542
-0.0281916
-0.0288781
-0.0296008
-0.0303589
-0.0311518
-0.0319787
-0.032839
-0.0337321
-0.0346579
-0.0356147
-0.036603
-0.0376217
-0.0386701
-0.0397475
-0.0408534
-0.0419878
-0.0431493
-0.0443353
-0.0455464
-0.0467803
-0.0480353
-0.0493088
-0.0505983
-0.0519
-0.0532098
-0.0545225
-0.0558317
-0.0571297
-0.058407
-0.0596523
-0.0608513
-0.0619877
-0.0630392
-0.0639841
-0.0647836
-0.0654203
-0.0658033
-0.0659923
-0.0656738
-0.065366
-0.0638177
-0.0633863
-0.0601845
-0.0603619
-0.0562279
-0.000653494
-0.00199862
-0.00338652
-0.00484702
-0.00635505
-0.00788714
-0.00942137
-0.0109358
-0.0124107
-0.0138294
-0.015178
-0.0164452
-0.0176219
-0.0187014
-0.0196787
-0.0205523
-0.0213217
-0.0219876
-0.0225527
-0.0230205
-0.0233957
-0.0236842
-0.0238921
-0.0240268
-0.0240959
-0.0241074
-0.0240698
-0.0239914
-0.0238807
-0.0237461
-0.0235957
-0.0234374
-0.0232787
-0.0231263
-0.0229868
-0.0228656
-0.0227681
-0.0226985
-0.0226607
-0.0226578
-0.0226924
-0.0227666
-0.0228819
-0.0230396
-0.0232403
-0.0234845
-0.0237722
-0.0241033
-0.0244775
-0.0248942
-0.0253528
-0.0258525
-0.0263927
-0.0269724
-0.0275909
-0.0282474
-0.0289409
-0.0296709
-0.0304364
-0.031237
-0.0320718
-0.0329402
-0.0338418
-0.0347764
-0.0357445
-0.0367389
-0.0377643
-0.0388214
-0.0399097
-0.0410273
-0.0421678
-0.0433341
-0.0445289
-0.0457487
-0.0469914
-0.0482552
-0.049538
-0.050837
-0.0521485
-0.0534685
-0.0547917
-0.0561118
-0.0574211
-0.0587104
-0.0599683
-0.061181
-0.0623323
-0.0634011
-0.0643657
-0.06519
-0.0658567
-0.0662801
-0.066537
-0.0662935
-0.0662306
-0.0646633
-0.0651323
-0.0614739
-0.0635277
-0.0608212
-0.00066416
-0.00201476
-0.00340558
-0.00485922
-0.00635674
-0.00787716
-0.00939978
-0.0109035
-0.012369
-0.0137798
-0.0151217
-0.0163833
-0.0175566
-0.0186347
-0.0196114
-0.0204852
-0.0212556
-0.0219233
-0.0224908
-0.0229615
-0.0233403
-0.0236326
-0.0238447
-0.0239838
-0.0240575
-0.0240736
-0.0240406
-0.0239668
-0.0238605
-0.0237302
-0.0235838
-0.0234293
-0.023274
-0.0231246
-0.0229876
-0.0228686
-0.0227727
-0.0227044
-0.0226673
-0.0226648
-0.0226993
-0.022773
-0.0228876
-0.0230441
-0.0232434
-0.0234859
-0.0237717
-0.0241006
-0.0244725
-0.0248867
-0.0253426
-0.0258396
-0.0263768
-0.0269535
-0.0275688
-0.028222
-0.0289121
-0.0296384
-0.0304002
-0.0311967
-0.0320272
-0.0328911
-0.0337878
-0.0347163
-0.0356725
-0.0366655
-0.0376888
-0.0387406
-0.0398203
-0.0409284
-0.0420695
-0.0432393
-0.0444285
-0.0456433
-0.0468814
-0.0481406
-0.0494186
-0.0507124
-0.0520187
-0.053333
-0.0546503
-0.0559642
-0.057267
-0.0585493
-0.0597998
-0.0610046
-0.0621473
-0.0632066
-0.0641608
-0.0649729
-0.0656269
-0.0660333
-0.0662614
-0.0659715
-0.0657738
-0.0642065
-0.0642233
-0.0608437
-0.0619743
-0.059228
-0.000617197
-0.00195411
-0.00333458
-0.00481667
-0.00635459
-0.00791865
-0.00948402
-0.0110266
-0.012526
-0.013965
-0.0153298
-0.0166099
-0.0177961
-0.0188785
-0.0198571
-0.02073
-0.0214963
-0.0221573
-0.0227156
-0.0231752
-0.023541
-0.0238189
-0.0240155
-0.0241382
-0.0241949
-0.024194
-0.024144
-0.0240534
-0.0239308
-0.023785
-0.0236241
-0.0234563
-0.023289
-0.0231292
-0.0229834
-0.0228573
-0.022756
-0.0226841
-0.0226452
-0.0226422
-0.0226777
-0.0227538
-0.0228722
-0.0230338
-0.0232394
-0.0234892
-0.0237834
-0.0241217
-0.0245036
-0.0249286
-0.0253961
-0.0259051
-0.026455
-0.0270448
-0.0276736
-0.0283406
-0.029045
-0.029786
-0.0305628
-0.0313747
-0.032221
-0.033101
-0.034014
-0.0349596
-0.035937
-0.0369446
-0.0379826
-0.0390508
-0.0401487
-0.0412751
-0.0424285
-0.0436085
-0.0448148
-0.046046
-0.0473004
-0.0485761
-0.0498708
-0.0511817
-0.0525052
-0.0538371
-0.0551722
-0.0565042
-0.0578254
-0.0591265
-0.0603964
-0.0616215
-0.0627861
-0.0638701
-0.0648525
-0.0657009
-0.0663969
-0.0668653
-0.0671763
-0.067012
-0.0671727
-0.065594
-0.0672019
-0.0627634
-0.0686519
-0.066446
-0.00063827
-0.00197845
-0.00336287
-0.00483296
-0.0063546
-0.00790137
-0.00944994
-0.0109773
-0.0124634
-0.0138912
-0.0152466
-0.0165179
-0.0176968
-0.0187803
-0.0197593
-0.020633
-0.0214012
-0.0220651
-0.0226272
-0.0230914
-0.0234624
-0.0237462
-0.0239491
-0.0240785
-0.0241421
-0.024148
-0.0241046
-0.0240205
-0.0239044
-0.0237646
-0.0236094
-0.0234467
-0.0232841
-0.0231283
-0.0229859
-0.0228624
-0.0227631
-0.0226923
-0.0226538
-0.0226507
-0.0226858
-0.0227611
-0.0228781
-0.0230379
-0.0232412
-0.0234884
-0.0237794
-0.0241142
-0.0244923
-0.0249131
-0.025376
-0.0258802
-0.0264248
-0.0270091
-0.0276321
-0.028293
-0.0289909
-0.0297251
-0.0304947
-0.0312991
-0.0321376
-0.0330094
-0.0339141
-0.0348506
-0.0358184
-0.0368194
-0.0378512
-0.0389121
-0.0400014
-0.0411192
-0.042267
-0.0434426
-0.0446429
-0.0458679
-0.0471161
-0.0483854
-0.0496736
-0.0509778
-0.0522945
-0.0536193
-0.0549472
-0.0562716
-0.0575849
-0.0588778
-0.060139
-0.0613548
-0.0625091
-0.0635815
-0.0645508
-0.0653835
-0.0660644
-0.0665132
-0.0668057
-0.066577
-0.0665864
-0.0650019
-0.0659868
-0.0620575
-0.0658889
-0.0648423
-0.00055522
-0.00190097
-0.00327514
-0.00478901
-0.00636621
-0.0079697
-0.00957239
-0.0111482
-0.0126758
-0.014138
-0.0155209
-0.0168142
-0.0180111
-0.0190927
-0.0200723
-0.0209429
-0.0217039
-0.0223572
-0.0229058
-0.0233539
-0.023707
-0.0239711
-0.0241532
-0.0242609
-0.0243024
-0.0242856
-0.0242196
-0.0241134
-0.0239762
-0.0238166
-0.0236432
-0.0234642
-0.0232873
-0.0231194
-0.0229672
-0.0228363
-0.0227318
-0.0226581
-0.022619
-0.0226174
-0.0226566
-0.0227384
-0.022864
-0.0230341
-0.0232495
-0.0235101
-0.023816
-0.0241669
-0.0245621
-0.0250009
-0.0254827
-0.0260065
-0.0265714
-0.0271764
-0.0278207
-0.0285032
-0.0292232
-0.0299798
-0.0307722
-0.0315997
-0.0324614
-0.0333567
-0.034285
-0.0352456
-0.0362379
-0.0372611
-0.0383149
-0.0393985
-0.0405115
-0.0416531
-0.0428223
-0.0440185
-0.0452406
-0.0464873
-0.0477568
-0.0490473
-0.0503561
-0.0516803
-0.0530161
-0.0543589
-0.0557032
-0.0570423
-0.058368
-0.0596705
-0.0609382
-0.062157
-0.0633105
-0.0643787
-0.0653403
-0.0661673
-0.0668399
-0.067313
-0.0676273
-0.0675151
-0.0677402
-0.0663858
-0.0690374
-0.0644909
-0.0773867
-0.071591
-0.000589664
-0.00192957
-0.00330562
-0.00480294
-0.00635937
-0.00794219
-0.0095253
-0.0110835
-0.0125959
-0.0140453
-0.0154174
-0.0167004
-0.0178833
-0.018976
-0.0199579
-0.020831
-0.0215957
-0.0222536
-0.0228078
-0.0232623
-0.0236222
-0.0238936
-0.0240833
-0.0241987
-0.0242479
-0.0242394
-0.0241818
-0.024084
-0.0239547
-0.0238025
-0.023636
-0.0234631
-0.0232915
-0.0231282
-0.0229795
-0.0228514
-0.0227488
-0.0226763
-0.0226375
-0.022636
-0.022674
-0.0227533
-0.0228752
-0.0230408
-0.0232508
-0.0235052
-0.0238042
-0.0241474
-0.0245344
-0.0249646
-0.0254371
-0.0259511
-0.0265059
-0.0271005
-0.027734
-0.0284055
-0.0291142
-0.0298593
-0.0306401
-0.0314558
-0.0323058
-0.0331894
-0.0341061
-0.0350552
-0.0360364
-0.0370493
-0.0380933
-0.0391675
-0.0402713
-0.0414042
-0.0425656
-0.0437546
-0.0449697
-0.0462098
-0.0474733
-0.0487582
-0.0500622
-0.0513824
-0.0527152
-0.0540562
-0.0554001
-0.0567403
-0.0580692
-0.059377
-0.0606523
-0.0618813
-0.0630475
-0.0641305
-0.0651081
-0.065949
-0.0666313
-0.0670911
-0.0674009
-0.0672494
-0.0674277
-0.0658929
-0.0680422
-0.0632754
-0.0727434
-0.070615
0.0391954
0.0427186
0.043313
0.0435767
0.0424425
0.0402349
0.0366839
0.0317065
0.0251023
0.016668
0.0061759
-0.00668632
-0.0224167
-0.0407898
-0.0617036
-0.0880015
-0.11838
-0.133286
-0.152981
-0.131493
0.0346315
0.0379232
0.0383388
0.0383781
0.0370173
0.034554
0.0307232
0.0254438
0.0185182
0.00973491
-0.00117053
-0.0145915
-0.0312235
-0.0509832
-0.0728227
-0.0982844
-0.125768
-0.136574
-0.13828
-0.0997216
0.0502378
0.0540897
0.0551188
0.0558126
0.0551504
0.0534308
0.0504036
0.0459651
0.0399064
0.0319976
0.0219206
0.00923745
-0.00659948
-0.0258462
-0.0499605
-0.0805935
-0.115884
-0.145468
-0.171743
-0.18441
0.0443925
0.0480809
0.0488929
0.0493653
0.0484602
0.0464896
0.0431915
0.0384715
0.0321175
0.0238984
0.0135094
0.000510337
-0.0156174
-0.0346222
-0.0568376
-0.0840336
-0.11336
-0.129559
-0.153305
-0.150853
0.063636
0.0678805
0.0693345
0.0704825
0.07034
0.0691498
0.0666901
0.0628381
0.0573822
0.0500687
0.0405204
0.028288
0.012675
-0.007016
-0.0325122
-0.0646393
-0.107158
-0.154169
-0.189744
-0.232522
0.0566474
0.0606765
0.0619223
0.0628357
0.0624259
0.0609596
0.0582028
0.0540389
0.0482541
0.040599
0.030712
0.018152
0.00236986
-0.0170227
-0.0414209
-0.0713632
-0.107856
-0.144851
-0.168791
-0.19357
0.0790274
0.0838326
0.0857178
0.0873494
0.0877853
0.087191
0.0853643
0.0821741
0.0774038
0.070787
0.0619177
0.0503325
0.0351782
0.0157823
-0.00996796
-0.0431332
-0.0896121
-0.143309
-0.205251
-0.259509
0.0710933
0.0755951
0.0772656
0.0786353
0.0787781
0.0778725
0.0757169
0.0721797
0.0670462
0.0600515
0.0508044
0.0388559
0.0234627
0.00396333
-0.0213432
-0.0534606
-0.0971745
-0.145975
-0.189151
-0.229206
0.095885
0.101449
0.103804
0.106086
0.107162
0.107288
0.106205
0.10377
0.0998036
0.0940635
0.0860949
0.0755016
0.0612446
0.043071
0.0175606
-0.013883
-0.061841
-0.115945
-0.199028
-0.254923
0.087302
0.0924651
0.0945809
0.0965154
0.0972539
0.0969936
0.0955115
0.0926752
0.0882736
0.0820455
0.0735684
0.0624046
0.0476136
0.0287157
0.00301602
-0.0294086
-0.0760224
-0.128809
-0.1967
-0.236141
0.113117
0.119638
0.122415
0.125423
0.127111
0.128092
0.127929
0.126552
0.123765
0.119414
0.112944
0.104105
0.0915774
0.0761272
0.052404
0.0275014
-0.0204129
-0.0618466
-0.15907
-0.198073
0.104537
0.110561
0.113138
0.115801
0.117208
0.117768
0.117137
0.115171
0.111724
0.106593
0.0992438
0.0893777
0.075767
0.0588115
0.0338623
0.00591256
-0.0418769
-0.0870269
-0.172896
-0.201086
0.129748
0.13745
0.140343
0.144007
0.146033
0.147514
0.147859
0.147296
0.145411
0.141954
0.136734
0.129643
0.119502
0.107505
0.0881316
0.0714221
0.028619
0.0161464
-0.0857256
-0.0470477
0.121423
0.128518
0.131378
0.134698
0.136529
0.137806
0.137949
0.137137
0.134962
0.131267
0.125629
0.117872
0.106614
0.0930035
0.0710233
0.0506157
0.0044018
-0.018001
-0.115183
-0.0893562
0.14762
0.156282
0.159823
0.164794
0.168439
0.17141
0.173529
0.174804
0.174939
0.173761
0.171102
0.166882
0.160565
0.152979
0.142191
0.134381
0.119405
0.131514
0.106128
0.237336
0.138526
0.146831
0.149809
0.154063
0.156706
0.158639
0.159482
0.159287
0.157647
0.154395
0.149373
0.142492
0.132993
0.121862
0.105789
0.0927583
0.0644054
0.0688388
0.00777909
0.122756
0.409201
0.408367
0.409666
0.408762
0.41065
0.409618
0.412697
0.411608
0.416748
0.415898
0.424789
0.424893
0.440932
0.443581
0.474052
0.482226
0.543813
0.5564
0.681623
0.559934
0.409188
0.408348
0.409638
0.408757
0.410607
0.409619
0.41264
0.411632
0.416691
0.415988
0.424769
0.425156
0.441039
0.444233
0.474366
0.483404
0.543181
0.55473
0.665479
0.506749
0.409223
0.408394
0.409708
0.40878
0.410712
0.409639
0.412793
0.411626
0.416894
0.415891
0.425008
0.424819
0.441303
0.443415
0.475
0.482523
0.548102
0.564327
0.708811
0.668555
0.409211
0.408384
0.409686
0.408775
0.410678
0.409633
0.412737
0.411622
0.416808
0.415899
0.424878
0.424859
0.441087
0.443505
0.474474
0.482404
0.545768
0.560228
0.694861
0.617599
0.40924
0.408413
0.40974
0.408793
0.41076
0.409656
0.412866
0.411641
0.417004
0.41589
0.425174
0.424766
0.44158
0.443268
0.475664
0.482577
0.550812
0.569784
0.724353
0.754042
0.409231
0.408407
0.409725
0.40879
0.410737
0.409651
0.412828
0.411636
0.416943
0.415889
0.425074
0.424776
0.441394
0.443284
0.475201
0.482386
0.549048
0.566571
0.715993
0.717513
0.409248
0.408421
0.409755
0.4088
0.410782
0.409664
0.412899
0.411649
0.417054
0.415892
0.425251
0.424745
0.441707
0.443199
0.475959
0.482576
0.551919
0.572281
0.730254
0.794459
0.409245
0.408419
0.40975
0.408799
0.410774
0.409663
0.412885
0.411647
0.417032
0.415891
0.425214
0.424747
0.441638
0.443202
0.475785
0.482502
0.551289
0.571084
0.727499
0.781338
0.409245
0.408419
0.40975
0.408799
0.410774
0.409663
0.412885
0.411647
0.417032
0.415891
0.425214
0.424747
0.441638
0.443202
0.475785
0.482502
0.551289
0.571084
0.727499
0.781338
0.409248
0.408421
0.409755
0.4088
0.410782
0.409664
0.412899
0.411649
0.417054
0.415892
0.425251
0.424745
0.441707
0.443199
0.475959
0.482576
0.551919
0.572281
0.730254
0.794459
0.409231
0.408407
0.409725
0.40879
0.410737
0.409651
0.412828
0.411636
0.416943
0.415889
0.425074
0.424776
0.441394
0.443284
0.475201
0.482386
0.549048
0.566571
0.715993
0.717513
0.40924
0.408413
0.40974
0.408793
0.41076
0.409656
0.412866
0.411641
0.417004
0.41589
0.425174
0.424766
0.44158
0.443268
0.475664
0.482577
0.550812
0.569784
0.724353
0.754042
0.409211
0.408384
0.409686
0.408775
0.410678
0.409633
0.412737
0.411622
0.416808
0.415899
0.424878
0.424859
0.441087
0.443505
0.474474
0.482404
0.545768
0.560228
0.694861
0.617599
0.409223
0.408394
0.409708
0.40878
0.410712
0.409639
0.412793
0.411626
0.416894
0.415891
0.425008
0.424819
0.441303
0.443415
0.475
0.482523
0.548102
0.564327
0.708811
0.668555
0.409188
0.408348
0.409638
0.408757
0.410607
0.409619
0.41264
0.411632
0.416691
0.415988
0.424769
0.425156
0.441039
0.444233
0.474366
0.483404
0.543181
0.55473
0.665479
0.506749
0.409201
0.408367
0.409666
0.408762
0.41065
0.409618
0.412697
0.411608
0.416748
0.415898
0.424789
0.424893
0.440932
0.443581
0.474052
0.482226
0.543813
0.5564
0.681623
0.559934
0.138526
0.146831
0.149809
0.154063
0.156706
0.158639
0.159482
0.159287
0.157647
0.154395
0.149373
0.142492
0.132993
0.121862
0.105789
0.0927583
0.0644054
0.0688389
0.00777914
0.122756
0.14762
0.156282
0.159823
0.164794
0.168439
0.17141
0.173529
0.174804
0.174939
0.173761
0.171102
0.166882
0.160565
0.152979
0.142191
0.134381
0.119405
0.131514
0.106128
0.237336
0.121423
0.128518
0.131378
0.134698
0.136528
0.137806
0.137949
0.137137
0.134962
0.131267
0.125629
0.117872
0.106614
0.0930035
0.0710233
0.0506158
0.00440185
-0.0180009
-0.115183
-0.0893561
0.129748
0.13745
0.140343
0.144007
0.146033
0.147514
0.147859
0.147296
0.145411
0.141954
0.136734
0.129643
0.119502
0.107505
0.0881316
0.0714221
0.028619
0.0161465
-0.0857256
-0.0470477
0.104537
0.110561
0.113138
0.115801
0.117208
0.117768
0.117137
0.115171
0.111724
0.106593
0.0992438
0.0893777
0.075767
0.0588116
0.0338624
0.00591261
-0.0418768
-0.0870268
-0.172896
-0.201086
0.113117
0.119638
0.122415
0.125423
0.127111
0.128092
0.127929
0.126552
0.123765
0.119414
0.112944
0.104105
0.0915775
0.0761272
0.052404
0.0275015
-0.0204129
-0.0618466
-0.159069
-0.198073
0.0873019
0.092465
0.0945809
0.0965153
0.0972539
0.0969936
0.0955115
0.0926751
0.0882736
0.0820455
0.0735684
0.0624046
0.0476136
0.0287157
0.00301607
-0.0294086
-0.0760223
-0.128808
-0.1967
-0.236141
0.095885
0.101449
0.103804
0.106086
0.107162
0.107288
0.106205
0.10377
0.0998036
0.0940635
0.0860949
0.0755017
0.0612446
0.0430711
0.0175606
-0.0138829
-0.0618409
-0.115945
-0.199027
-0.254923
0.0710932
0.0755951
0.0772656
0.0786352
0.0787781
0.0778725
0.0757169
0.0721797
0.0670461
0.0600515
0.0508044
0.0388559
0.0234627
0.00396337
-0.0213431
-0.0534605
-0.0971744
-0.145975
-0.189151
-0.229206
0.0790273
0.0838325
0.0857178
0.0873493
0.0877853
0.087191
0.0853642
0.082174
0.0774038
0.070787
0.0619177
0.0503325
0.0351783
0.0157823
-0.00996791
-0.0431332
-0.089612
-0.143309
-0.205251
-0.259509
0.0566473
0.0606764
0.0619222
0.0628357
0.0624258
0.0609595
0.0582028
0.0540389
0.0482541
0.040599
0.030712
0.0181521
0.0023699
-0.0170227
-0.0414208
-0.0713631
-0.107856
-0.144851
-0.16879
-0.19357
0.0636359
0.0678805
0.0693345
0.0704824
0.0703399
0.0691498
0.0666901
0.0628381
0.0573822
0.0500687
0.0405204
0.028288
0.012675
-0.00701595
-0.0325121
-0.0646392
-0.107157
-0.154169
-0.189744
-0.232522
0.0443924
0.0480808
0.0488928
0.0493653
0.0484601
0.0464895
0.0431915
0.0384714
0.0321175
0.0238984
0.0135095
0.000510361
-0.0156173
-0.0346221
-0.0568375
-0.0840335
-0.11336
-0.129559
-0.153304
-0.150853
0.0502377
0.0540896
0.0551187
0.0558125
0.0551504
0.0534308
0.0504035
0.0459651
0.0399063
0.0319976
0.0219206
0.00923747
-0.00659944
-0.0258461
-0.0499604
-0.0805934
-0.115884
-0.145468
-0.171743
-0.18441
0.0346314
0.0379231
0.0383387
0.038378
0.0370172
0.0345539
0.0307232
0.0254438
0.0185182
0.0097349
-0.00117052
-0.0145914
-0.0312235
-0.0509831
-0.0728226
-0.0982843
-0.125768
-0.136574
-0.13828
-0.0997214
0.0391953
0.0427185
0.0433129
0.0435766
0.0424424
0.0402348
0.0366838
0.0317064
0.0251023
0.016668
0.0061759
-0.00668629
-0.0224167
-0.0407897
-0.0617035
-0.0880014
-0.11838
-0.133286
-0.15298
-0.131493
-0.000589708
-0.00192971
-0.00330583
-0.00480323
-0.00635973
-0.00794261
-0.00952576
-0.011084
-0.0125964
-0.0140458
-0.0154179
-0.0167009
-0.0178839
-0.0189765
-0.0199583
-0.0208313
-0.021596
-0.0222539
-0.022808
-0.0232624
-0.0236222
-0.0238936
-0.0240832
-0.0241987
-0.0242478
-0.0242393
-0.0241817
-0.0240839
-0.0239546
-0.0238025
-0.023636
-0.0234632
-0.0232917
-0.0231284
-0.0229799
-0.0228518
-0.0227493
-0.0226768
-0.022638
-0.0226366
-0.0226746
-0.0227539
-0.0228759
-0.0230415
-0.0232514
-0.0235059
-0.0238048
-0.024148
-0.0245349
-0.0249649
-0.0254373
-0.0259513
-0.026506
-0.0271004
-0.0277338
-0.0284052
-0.0291138
-0.0298588
-0.0306395
-0.0314551
-0.032305
-0.0331886
-0.0341053
-0.0350544
-0.0360355
-0.0370484
-0.0380925
-0.0391668
-0.0402707
-0.0414036
-0.0425652
-0.0437542
-0.0449695
-0.0462097
-0.0474733
-0.0487584
-0.0500625
-0.0513828
-0.0527157
-0.0540567
-0.0554006
-0.0567409
-0.0580697
-0.0593775
-0.0606528
-0.0618817
-0.0630479
-0.0641308
-0.0651084
-0.0659492
-0.0666314
-0.0670912
-0.0674009
-0.0672493
-0.0674276
-0.0658928
-0.0680421
-0.0632753
-0.0727433
-0.0706149
-0.000555269
-0.00190112
-0.00327538
-0.00478934
-0.00636661
-0.00797017
-0.0095729
-0.0111487
-0.0126764
-0.0141386
-0.0155215
-0.0168148
-0.0180114
-0.0190931
-0.0200727
-0.0209433
-0.0217042
-0.0223574
-0.0229059
-0.023354
-0.023707
-0.023971
-0.0241531
-0.0242608
-0.0243022
-0.0242855
-0.0242194
-0.0241133
-0.0239761
-0.0238166
-0.0236433
-0.0234643
-0.0232874
-0.0231197
-0.0229675
-0.0228367
-0.0227323
-0.0226587
-0.0226196
-0.0226182
-0.0226573
-0.0227392
-0.0228648
-0.0230349
-0.0232502
-0.0235109
-0.0238167
-0.0241675
-0.0245626
-0.0250013
-0.025483
-0.0260067
-0.0265715
-0.0271763
-0.0278205
-0.0285029
-0.0292228
-0.0299792
-0.0307715
-0.0315989
-0.0324605
-0.0333558
-0.0342841
-0.0352447
-0.0362369
-0.0372602
-0.038314
-0.0393977
-0.0405108
-0.0416525
-0.0428219
-0.0440183
-0.0452405
-0.0464873
-0.047757
-0.0490475
-0.0503565
-0.0516808
-0.0530166
-0.0543595
-0.0557039
-0.0570429
-0.0583686
-0.0596711
-0.0609388
-0.0621575
-0.0633109
-0.0643791
-0.0653405
-0.0661674
-0.06684
-0.067313
-0.0676273
-0.0675151
-0.0677401
-0.0663857
-0.0690373
-0.0644908
-0.0773866
-0.0715909
-0.000638303
-0.00197855
-0.00336302
-0.00483317
-0.00635485
-0.00790166
-0.00945027
-0.0109777
-0.0124637
-0.0138916
-0.0152469
-0.0165183
-0.0176971
-0.0187807
-0.0197596
-0.0206333
-0.0214014
-0.0220652
-0.0226273
-0.0230914
-0.0234625
-0.0237462
-0.0239491
-0.0240785
-0.024142
-0.0241479
-0.0241045
-0.0240205
-0.0239043
-0.0237646
-0.0236094
-0.0234468
-0.0232842
-0.0231285
-0.0229861
-0.0228627
-0.0227634
-0.0226927
-0.0226542
-0.0226512
-0.0226863
-0.0227616
-0.0228786
-0.0230384
-0.0232417
-0.0234888
-0.0237799
-0.0241146
-0.0244926
-0.0249134
-0.0253762
-0.0258803
-0.0264249
-0.0270091
-0.027632
-0.0282928
-0.0289906
-0.0297247
-0.0304943
-0.0312986
-0.032137
-0.0330089
-0.0339135
-0.03485
-0.0358177
-0.0368188
-0.0378508
-0.0389118
-0.0400011
-0.0411189
-0.0422665
-0.0434421
-0.0446427
-0.0458678
-0.047116
-0.0483855
-0.0496738
-0.050978
-0.0522948
-0.0536197
-0.0549476
-0.056272
-0.0575854
-0.0588782
-0.0601394
-0.0613552
-0.0625094
-0.0635817
-0.064551
-0.0653837
-0.0660645
-0.0665132
-0.0668058
-0.0665769
-0.0665864
-0.0650018
-0.0659867
-0.0620574
-0.0658889
-0.0648422
-0.000617236
-0.00195423
-0.00333477
-0.00481692
-0.0063549
-0.007919
-0.00948441
-0.011027
-0.0125264
-0.0139655
-0.0153303
-0.0166103
-0.0177964
-0.0188788
-0.0198574
-0.0207303
-0.0214966
-0.0221575
-0.0227157
-0.0231753
-0.023541
-0.0238188
-0.0240155
-0.0241381
-0.0241948
-0.0241939
-0.0241439
-0.0240533
-0.0239308
-0.0237849
-0.0236241
-0.0234563
-0.0232891
-0.0231294
-0.0229836
-0.0228576
-0.0227564
-0.0226845
-0.0226457
-0.0226427
-0.0226782
-0.0227544
-0.0228728
-0.0230344
-0.02324
-0.0234898
-0.0237839
-0.0241221
-0.024504
-0.024929
-0.0253963
-0.0259053
-0.026455
-0.0270447
-0.0276735
-0.0283404
-0.0290447
-0.0297856
-0.0305623
-0.0313741
-0.0322203
-0.0331003
-0.0340133
-0.0349589
-0.0359363
-0.0369439
-0.0379818
-0.0390501
-0.040148
-0.0412746
-0.0424282
-0.0436083
-0.0448147
-0.046046
-0.0473005
-0.0485763
-0.0498711
-0.051182
-0.0525056
-0.0538376
-0.0551727
-0.0565047
-0.0578259
-0.059127
-0.0603968
-0.061622
-0.0627865
-0.0638704
-0.0648527
-0.0657011
-0.066397
-0.0668653
-0.0671763
-0.067012
-0.0671726
-0.065594
-0.0672018
-0.0627633
-0.0686519
-0.0664459
-0.000664179
-0.00201482
-0.00340567
-0.00485934
-0.00635688
-0.00787733
-0.00939996
-0.0109037
-0.0123692
-0.01378
-0.0151219
-0.0163835
-0.0175568
-0.0186349
-0.0196116
-0.0204854
-0.0212557
-0.0219234
-0.0224908
-0.0229616
-0.0233403
-0.0236326
-0.0238447
-0.0239838
-0.0240574
-0.0240736
-0.0240406
-0.0239667
-0.0238605
-0.0237302
-0.0235839
-0.0234294
-0.023274
-0.0231247
-0.0229877
-0.0228688
-0.0227729
-0.0227046
-0.0226675
-0.022665
-0.0226996
-0.0227733
-0.0228879
-0.0230444
-0.0232437
-0.0234862
-0.0237719
-0.0241009
-0.0244727
-0.0248868
-0.0253427
-0.0258397
-0.0263769
-0.0269535
-0.0275688
-0.0282219
-0.028912
-0.0296382
-0.0304
-0.0311964
-0.0320269
-0.0328908
-0.0337874
-0.0347158
-0.035672
-0.0366653
-0.0376887
-0.0387405
-0.0398203
-0.0409283
-0.0420688
-0.0432382
-0.044428
-0.045643
-0.0468813
-0.0481407
-0.0494187
-0.0507126
-0.0520188
-0.0533332
-0.0546505
-0.0559644
-0.0572672
-0.0585495
-0.0598001
-0.0610048
-0.0621475
-0.0632067
-0.0641609
-0.064973
-0.0656269
-0.0660333
-0.0662614
-0.0659715
-0.0657738
-0.0642065
-0.0642232
-0.0608437
-0.0619743
-0.059228
-0.00065352
-0.00199869
-0.00338664
-0.00484718
-0.00635525
-0.00788737
-0.00942163
-0.010936
-0.012411
-0.0138297
-0.0151783
-0.0164455
-0.0176222
-0.0187017
-0.0196789
-0.0205525
-0.0213218
-0.0219877
-0.0225528
-0.0230205
-0.0233958
-0.0236841
-0.0238921
-0.0240268
-0.0240958
-0.0241074
-0.0240697
-0.0239913
-0.0238806
-0.023746
-0.0235957
-0.0234375
-0.0232788
-0.0231265
-0.0229869
-0.0228658
-0.0227683
-0.0226988
-0.022661
-0.0226582
-0.0226928
-0.0227669
-0.0228823
-0.02304
-0.0232407
-0.0234848
-0.0237725
-0.0241036
-0.0244777
-0.0248944
-0.0253529
-0.0258527
-0.0263928
-0.0269724
-0.0275909
-0.0282472
-0.0289407
-0.0296706
-0.0304361
-0.0312366
-0.0320713
-0.0329398
-0.0338414
-0.0347759
-0.0357442
-0.0367383
-0.0377635
-0.0388207
-0.0399089
-0.0410266
-0.0421679
-0.0433344
-0.0445291
-0.0457487
-0.0469914
-0.0482553
-0.0495382
-0.0508372
-0.0521488
-0.0534688
-0.054792
-0.0561121
-0.0574215
-0.0587107
-0.0599686
-0.0611813
-0.0623326
-0.0634013
-0.0643658
-0.0651901
-0.0658567
-0.0662801
-0.066537
-0.0662935
-0.0662306
-0.0646633
-0.0651322
-0.0614738
-0.0635276
-0.0608211
-0.000673964
-0.00203128
-0.00342518
-0.00487213
-0.00635891
-0.00786724
-0.00937775
-0.0108703
-0.0123261
-0.0137288
-0.0150642
-0.0163212
-0.0174914
-0.0185668
-0.0195424
-0.0204161
-0.0211872
-0.0218566
-0.0224264
-0.0229001
-0.0232823
-0.0235784
-0.0237948
-0.0239384
-0.0240167
-0.0240376
-0.0240093
-0.0239403
-0.0238387
-0.0237128
-0.0235706
-0.02342
-0.0232682
-0.0231219
-0.0229876
-0.0228709
-0.0227768
-0.0227098
-0.0226736
-0.0226715
-0.0227059
-0.0227791
-0.0228927
-0.023048
-0.0232456
-0.0234861
-0.0237697
-0.0240962
-0.0244653
-0.0248765
-0.0253294
-0.0258231
-0.026357
-0.0269302
-0.027542
-0.0281916
-0.0288781
-0.0296008
-0.0303589
-0.0311517
-0.0319786
-0.0328389
-0.033732
-0.0346578
-0.0356147
-0.036603
-0.0376218
-0.0386702
-0.0397476
-0.0408534
-0.0419876
-0.0431488
-0.0443345
-0.0455461
-0.0467802
-0.0480352
-0.0493088
-0.0505983
-0.0519
-0.0532099
-0.0545226
-0.0558318
-0.0571298
-0.0584071
-0.0596523
-0.0608514
-0.0619877
-0.0630393
-0.0639841
-0.0647836
-0.0654203
-0.0658033
-0.0659923
-0.0656738
-0.065366
-0.0638177
-0.0633863
-0.0601845
-0.0603619
-0.0562279
-0.000670754
-0.00202568
-0.00341852
-0.00486765
-0.00635804
-0.00787048
-0.00938514
-0.0108815
-0.0123408
-0.0137463
-0.0150842
-0.0163432
-0.0175145
-0.0185906
-0.0195665
-0.0204402
-0.021211
-0.0218798
-0.0224487
-0.0229214
-0.0233024
-0.0235972
-0.0238121
-0.0239541
-0.0240307
-0.02405
-0.0240201
-0.0239494
-0.0238462
-0.0237188
-0.0235752
-0.0234232
-0.0232702
-0.0231229
-0.0229876
-0.0228701
-0.0227753
-0.0227078
-0.0226714
-0.0226691
-0.0227035
-0.0227767
-0.0228906
-0.0230461
-0.0232442
-0.0234853
-0.0237695
-0.0240966
-0.0244665
-0.0248786
-0.0253323
-0.025827
-0.0263619
-0.0269361
-0.0275489
-0.0281995
-0.0288871
-0.029611
-0.0303703
-0.0311644
-0.0319926
-0.0328543
-0.0337489
-0.0346755
-0.0356368
-0.0366265
-0.0376462
-0.0386964
-0.0397764
-0.0408848
-0.0420189
-0.0431788
-0.0443694
-0.0455818
-0.0468172
-0.0480738
-0.0493491
-0.0506404
-0.0519441
-0.0532559
-0.0545708
-0.0558823
-0.0571826
-0.0584625
-0.0597105
-0.0609125
-0.0620521
-0.0631074
-0.0640564
-0.064861
-0.0655035
-0.0658941
-0.0660949
-0.0657941
-0.0655377
-0.0639929
-0.063718
-0.0604465
-0.0608467
-0.0568821
0.407737
0.407481
0.407368
0.406986
0.406555
0.405773
0.404813
0.403404
0.401461
0.39904
0.39528
0.390323
0.382601
0.372917
0.357555
0.339563
0.310338
0.279901
0.229968
0.185315
0.407794
0.40749
0.407476
0.407049
0.406766
0.405952
0.405254
0.403841
0.402341
0.399881
0.39671
0.392017
0.385094
0.376226
0.361757
0.345521
0.316616
0.289041
0.23733
0.195277
0.407849
0.407509
0.407567
0.407117
0.406931
0.406111
0.405555
0.404188
0.402892
0.400582
0.397773
0.39341
0.387063
0.378874
0.365183
0.350115
0.321767
0.2958
0.242885
0.202157
0.407915
0.407533
0.407672
0.407195
0.407127
0.40629
0.405954
0.404582
0.403653
0.401376
0.399105
0.39499
0.389458
0.381889
0.369286
0.355381
0.32787
0.303554
0.249235
0.209945
0.407988
0.407564
0.407786
0.407282
0.407336
0.406487
0.406354
0.405006
0.404423
0.40223
0.400535
0.396686
0.392084
0.385122
0.373831
0.360995
0.334675
0.311747
0.256089
0.217989
0.408068
0.4076
0.407907
0.407377
0.407557
0.406696
0.406784
0.405453
0.405244
0.403132
0.402069
0.398472
0.394934
0.388539
0.378801
0.366938
0.342195
0.320407
0.26355
0.226318
0.408154
0.407642
0.408033
0.407479
0.407788
0.406915
0.407231
0.405918
0.406103
0.404073
0.403696
0.400337
0.397994
0.392127
0.384201
0.373205
0.350491
0.329578
0.271778
0.235045
0.408243
0.407688
0.408165
0.407586
0.408026
0.407143
0.407691
0.406398
0.406991
0.405047
0.405396
0.402268
0.401239
0.395855
0.390038
0.379791
0.359617
0.339289
0.280975
0.244217
0.408336
0.407737
0.408299
0.407697
0.408268
0.407377
0.408159
0.406889
0.407898
0.406045
0.407152
0.404255
0.404634
0.399699
0.396295
0.386702
0.369627
0.349573
0.291392
0.253836
0.40843
0.40779
0.408435
0.40781
0.408511
0.407614
0.408629
0.407386
0.408814
0.407057
0.408942
0.406282
0.408142
0.403647
0.402929
0.393953
0.380587
0.360464
0.303331
0.263882
0.408525
0.407845
0.408571
0.407925
0.408754
0.407852
0.409098
0.407884
0.409729
0.408076
0.410744
0.408336
0.411721
0.407691
0.409888
0.401498
0.392618
0.372018
0.317154
0.274301
0.408619
0.407902
0.408705
0.408039
0.408993
0.408088
0.409559
0.408377
0.410633
0.409091
0.412537
0.410399
0.415326
0.411812
0.417087
0.409322
0.405768
0.384354
0.333312
0.284976
0.40871
0.407959
0.408837
0.408151
0.409225
0.40832
0.410008
0.408862
0.411516
0.410092
0.414298
0.412454
0.41891
0.415983
0.424433
0.41743
0.41999
0.397737
0.352337
0.295727
0.408798
0.408016
0.408964
0.408259
0.409449
0.408544
0.41044
0.409332
0.412367
0.411068
0.416006
0.414479
0.422426
0.420173
0.431824
0.425833
0.43519
0.412427
0.374862
0.30638
0.40888
0.408073
0.409086
0.408363
0.409662
0.408759
0.410851
0.409782
0.413177
0.412009
0.417641
0.416452
0.425827
0.42434
0.43915
0.43452
0.45116
0.428508