/*--------------------------------*- C++ -*----------------------------------*\
  =========                 |
  \\      /  F ield         | OpenFOAM: The Open Source CFD Toolbox
   \\    /   O peration     | Website:  https://openfoam.org
    \\  /    A nd           | Version:  7
     \\/     M anipulation  |
\*---------------------------------------------------------------------------*/
FoamFile
{
    version     2.0;
    format      ascii;
    class       surfaceScalarField;
    location    "74";
    object      phi;
}
// * * * * * * * * * * * * * * * * * * * * * * * * * * * * * * * * * * * * * //

dimensions      [0 3 -1 0 0 0 0];

internalField   nonuniform List<scalar> 
14496
(
0.00158163
1.34221e-07
-3.00539e-07
0.00158241
7.11606e-07
-1.49913e-06
0.00158413
1.58723e-06
-3.30504e-06
0.00158672
2.42062e-06
-5.00457e-06
0.00158995
3.05243e-06
-6.28257e-06
0.00159354
3.41488e-06
-7.00871e-06
0.0015972
3.48497e-06
-7.14226e-06
0.00160063
3.27418e-06
-6.71046e-06
0.0016036
2.8113e-06
-5.77371e-06
0.00160587
2.13209e-06
-4.40533e-06
0.00160728
1.27575e-06
-2.68431e-06
0.00160768
2.8187e-07
-6.88282e-07
0.00160697
-8.33298e-07
1.5442e-06
0.00160506
-2.03587e-06
3.95095e-06
0.00160189
-3.28637e-06
6.45191e-06
0.00159745
-4.56486e-06
9.00746e-06
0.00159172
-5.85175e-06
1.15785e-05
0.00158472
-7.12923e-06
1.41296e-05
0.00157647
-8.38149e-06
1.66295e-05
0.00156702
-9.59444e-06
1.90502e-05
0.00155641
-1.07555e-05
2.13667e-05
0.0015447
-1.18534e-05
2.35567e-05
0.00153198
-1.2878e-05
2.55999e-05
0.00151832
-1.382e-05
2.74779e-05
0.00150382
-1.46709e-05
2.9174e-05
0.00148857
-1.54235e-05
3.06738e-05
0.00147268
-1.6073e-05
3.19681e-05
0.00145624
-1.66149e-05
3.30474e-05
0.00143939
-1.7045e-05
3.39035e-05
0.00142221
-1.73606e-05
3.45315e-05
0.00140485
-1.7561e-05
3.49298e-05
0.00138739
-1.76468e-05
3.50999e-05
0.00136997
-1.76202e-05
3.50461e-05
0.00135268
-1.74846e-05
3.47755e-05
0.00133562
-1.72451e-05
3.42981e-05
0.0013189
-1.69076e-05
3.3626e-05
0.00130261
-1.64793e-05
3.27735e-05
0.00128682
-1.59683e-05
3.17571e-05
0.00127161
-1.5384e-05
3.05952e-05
0.00125704
-1.47359e-05
2.93071e-05
0.00124316
-1.4032e-05
2.79085e-05
0.00123003
-1.32822e-05
2.64193e-05
0.00121766
-1.24968e-05
2.48604e-05
0.0012061
-1.1686e-05
2.32515e-05
0.00119534
-1.08593e-05
2.16122e-05
0.00118541
-1.00261e-05
1.99605e-05
0.00117629
-9.19489e-06
1.83137e-05
0.00116798
-8.37357e-06
1.66873e-05
0.00116045
-7.56918e-06
1.50953e-05
0.00115369
-6.78789e-06
1.35499e-05
0.00114766
-6.03497e-06
1.20615e-05
0.00114234
-5.31479e-06
1.06388e-05
0.00113768
-4.63078e-06
9.28846e-06
0.00113365
-3.98557e-06
8.01572e-06
0.00113021
-3.38108e-06
6.82433e-06
0.00112731
-2.81864e-06
5.7169e-06
0.00112491
-2.29911e-06
4.69511e-06
0.00112298
-1.82302e-06
3.75999e-06
0.00112145
-1.39066e-06
2.91211e-06
0.0011203
-1.00218e-06
2.15178e-06
0.00111948
-6.57655e-07
1.47912e-06
0.00111895
-3.56682e-07
8.93878e-07
0.00111865
-9.65753e-08
3.94919e-07
0.00111856
1.13545e-07
-2.62773e-08
0.00111861
2.83286e-07
-3.29251e-07
0.00111876
4.02331e-07
-5.60745e-07
0.00111899
4.78318e-07
-6.999e-07
0.00111922
5.09953e-07
-7.47653e-07
0.00111943
4.96486e-07
-7.03384e-07
0.00111956
4.3825e-07
-5.63383e-07
0.00111956
3.26904e-07
-3.29198e-07
0.00111941
1.61581e-07
-8.57058e-09
0.00111899
-5.18078e-08
4.65773e-07
0.00111829
-3.35427e-07
1.03496e-06
0.00111723
-6.78171e-07
1.73573e-06
0.00111575
-1.0938e-06
2.58222e-06
0.00111374
-1.59195e-06
3.59347e-06
0.00111114
-2.18451e-06
4.79303e-06
0.00110781
-2.88625e-06
6.21018e-06
0.00110365
-3.71525e-06
7.88072e-06
0.00109849
-4.6939e-06
9.84891e-06
0.00109217
-5.84992e-06
1.21696e-05
0.00108448
-7.21784e-06
1.49111e-05
0.00107516
-8.84105e-06
1.81588e-05
0.00106391
-1.07744e-05
2.20211e-05
0.00105037
-1.30881e-05
2.66363e-05
0.00103406
-1.58729e-05
3.21831e-05
0.00101441
-1.92477e-05
3.88952e-05
0.000990694
-2.33726e-05
4.70862e-05
0.000961989
-2.84484e-05
5.71532e-05
0.000927063
-3.48032e-05
6.973e-05
0.000884443
-4.26722e-05
8.52912e-05
0.000831732
-5.3066e-05
0.000105777
0.000767085
-6.53833e-05
0.000130031
0.000684297
-8.4133e-05
0.000166921
0.000584912
-0.00010159
0.000200975
0.000451384
-0.000136598
0.000270127
0.000304604
-0.000152017
0.000298796
0.000127765
-0.00017997
0.00035681
-0.000131182
0.000258947
0.00159721
8.67803e-11
0.00159792
6.76491e-10
0.00159951
1.50793e-09
0.00160192
2.45681e-09
0.00160497
3.4257e-09
0.00160838
4.35386e-09
0.00161186
5.21229e-09
0.00161513
5.99561e-09
0.00161794
6.70633e-09
0.00162006
7.35967e-09
0.00162133
7.93021e-09
0.0016216
8.45385e-09
0.00162076
9.08837e-09
0.00161871
9.47315e-09
0.00161542
9.81011e-09
0.00161084
1.0042e-08
0.00160498
1.01249e-08
0.00159784
1.00321e-08
0.00158945
9.7487e-09
0.00157985
9.2683e-09
0.00156908
8.5929e-09
0.00155722
7.73311e-09
0.00154434
6.70926e-09
0.00153051
5.55127e-09
0.00151584
4.29714e-09
0.00150041
2.99051e-09
0.00148433
1.6789e-09
0.00146772
4.09531e-10
0.00145068
-7.70072e-10
0.00143332
-1.81792e-09
0.00141576
-2.69775e-09
0.00139811
-3.3801e-09
0.0013805
-3.84374e-09
0.00136302
-4.07555e-09
0.00134578
-4.07088e-09
0.00132887
-3.83216e-09
0.0013124
-3.36879e-09
0.00129643
-2.69573e-09
0.00128105
-1.83291e-09
0.00126631
-8.04446e-10
0.00125228
3.63279e-10
0.001239
1.63979e-09
0.0012265
2.99634e-09
0.00121481
4.39853e-09
0.00120394
5.81168e-09
0.00119391
7.20005e-09
0.00118471
8.52741e-09
0.00117632
9.75756e-09
0.00116874
1.08551e-08
0.00116194
1.17862e-08
0.0011559
1.25196e-08
0.00115057
1.30273e-08
0.00114592
1.32856e-08
0.00114192
1.32764e-08
0.00113853
1.29878e-08
0.0011357
1.24148e-08
0.00113339
1.15594e-08
0.00113156
1.04315e-08
0.00113016
9.04634e-09
0.00112915
7.43161e-09
0.00112848
5.59882e-09
0.00112812
3.60006e-09
0.00112802
1.36492e-09
0.00112814
-8.17105e-10
0.00112843
-3.0376e-09
0.00112883
-4.84505e-09
0.00112932
-6.70315e-09
0.00112984
-8.4924e-09
0.00113034
-1.00873e-08
0.00113079
-1.13077e-08
0.00113113
-1.26604e-08
0.00113131
-1.29929e-08
0.00113127
-1.48689e-08
0.00113095
-1.48348e-08
0.00113028
-1.40718e-08
0.0011292
-1.31397e-08
0.00112762
-1.20073e-08
0.00112545
-1.06642e-08
0.00112257
-9.13946e-09
0.00111887
-7.47078e-09
0.00111418
-5.7024e-09
0.00110833
-3.88629e-09
0.00110112
-2.0809e-09
0.00109227
-3.44908e-10
0.0010815
1.244e-09
0.00106841
2.64408e-09
0.00105253
3.80585e-09
0.00103328
4.69266e-09
0.0010099
5.28927e-09
0.000981447
5.59053e-09
0.000946638
5.62096e-09
0.000903961
5.39651e-09
0.00085089
4.97864e-09
0.000785502
4.39871e-09
0.000701365
3.71538e-09
0.000599773
2.99073e-09
0.000463173
2.29067e-09
0.000311154
1.64381e-09
0.000131183
9.93113e-10
2.04858e-10
0.00144913
5.30402e-07
-8.80941e-07
0.00145031
2.41681e-06
-3.59382e-06
0.00145264
5.22549e-06
-7.55983e-06
0.00145596
7.82164e-06
-1.11334e-05
0.00145994
9.74673e-06
-1.37316e-05
0.00146427
1.08219e-05
-1.51474e-05
0.00146861
1.10003e-05
-1.53444e-05
0.00147269
1.03327e-05
-1.44087e-05
0.00147625
8.91524e-06
-1.24791e-05
0.0014791
6.86055e-06
-9.71142e-06
0.00148108
4.28669e-06
-6.26392e-06
0.00148206
1.31162e-06
-2.29072e-06
0.00148195
-2.00425e-06
2.11624e-06
0.00148067
-5.57943e-06
6.85853e-06
0.00147818
-9.28654e-06
1.17704e-05
0.00147447
-1.30713e-05
1.67794e-05
0.00146954
-1.6876e-05
2.18097e-05
0.0014634
-2.06488e-05
2.67938e-05
0.00145607
-2.43436e-05
3.16716e-05
0.0014476
-2.79194e-05
3.63899e-05
0.00143804
-3.13399e-05
4.09011e-05
0.00142745
-3.45722e-05
4.51625e-05
0.0014159
-3.75865e-05
4.91351e-05
0.00140347
-4.03559e-05
5.27837e-05
0.00139025
-4.28557e-05
5.60759e-05
0.00137633
-4.50652e-05
5.89847e-05
0.00136181
-4.69703e-05
6.14918e-05
0.00134679
-4.85573e-05
6.35783e-05
0.00133137
-4.98142e-05
6.52293e-05
0.00131567
-5.07342e-05
6.6436e-05
0.00129979
-5.1315e-05
6.71959e-05
0.00128384
-5.15591e-05
6.75125e-05
0.00126791
-5.14731e-05
6.73952e-05
0.00125212
-5.10681e-05
6.68588e-05
0.00123656
-5.03588e-05
6.59232e-05
0.00122131
-4.93635e-05
6.46131e-05
0.00120646
-4.81037e-05
6.29572e-05
0.00119207
-4.66039e-05
6.09882e-05
0.00117822
-4.48913e-05
5.87422e-05
0.00116496
-4.29945e-05
5.62571e-05
0.00115233
-4.09379e-05
5.35652e-05
0.00114038
-3.87503e-05
5.0706e-05
0.00112912
-3.64627e-05
4.77194e-05
0.00111858
-3.41043e-05
4.46442e-05
0.00110877
-3.17037e-05
4.15177e-05
0.00109968
-2.92877e-05
3.83753e-05
0.00109131
-2.68815e-05
3.52499e-05
0.00108365
-2.45079e-05
3.21715e-05
0.00107667
-2.21874e-05
2.91666e-05
0.00107035
-1.99377e-05
2.62584e-05
0.00106465
-1.77741e-05
2.34664e-05
0.00105956
-1.57089e-05
2.0807e-05
0.00105501
-1.37521e-05
1.82927e-05
0.00105099
-1.1911e-05
1.59331e-05
0.00104745
-1.01911e-05
1.37349e-05
0.00104434
-8.59607e-06
1.17029e-05
0.00104163
-7.12826e-06
9.84017e-06
0.00103927
-5.78912e-06
8.14829e-06
0.00103722
-4.57941e-06
6.62821e-06
0.00103544
-3.4995e-06
5.28027e-06
0.00103389
-2.54949e-06
4.10448e-06
0.00103251
-1.72913e-06
3.10053e-06
0.00103128
-1.03784e-06
2.26773e-06
0.00103016
-4.79303e-07
1.60549e-06
0.00102907
-3.55283e-08
1.1256e-06
0.00102801
2.41779e-07
8.15545e-07
0.00102693
4.00067e-07
6.80956e-07
0.00102578
4.25819e-07
7.25204e-07
0.00102451
3.17535e-07
9.49854e-07
0.00102307
8.37847e-08
1.35985e-06
0.00102143
-3.18662e-07
1.95885e-06
0.00101954
-8.73489e-07
2.75704e-06
0.00101735
-1.58603e-06
3.78201e-06
0.00101479
-2.47681e-06
5.03667e-06
0.0010118
-3.56071e-06
6.54644e-06
0.00100832
-4.86045e-06
8.34179e-06
0.00100427
-6.40464e-06
1.04598e-05
0.000999548
-8.22809e-06
1.29461e-05
0.000994065
-1.03741e-05
1.58573e-05
0.000987699
-1.28956e-05
1.92621e-05
0.000980311
-1.58577e-05
2.32457e-05
0.000971739
-1.93413e-05
2.79127e-05
0.000961793
-2.34466e-05
3.33933e-05
0.000950242
-2.82994e-05
3.98501e-05
0.000936812
-3.40584e-05
4.74879e-05
0.000921171
-4.09268e-05
5.65683e-05
0.00090291
-4.91659e-05
6.74265e-05
0.000881527
-5.91181e-05
8.05019e-05
0.000856393
-7.12388e-05
9.63722e-05
0.000826713
-8.61155e-05
0.000115796
0.000791491
-0.000104639
0.000139861
0.000749443
-0.000127595
0.000169643
0.000698823
-0.000157587
0.000208208
0.0006378
-0.000193386
0.000254408
0.000562248
-0.00024682
0.000322372
0.000473248
-0.000296645
0.000385645
0.000357312
-0.000396316
0.000512252
0.000237581
-0.00043318
0.000552912
8.48582e-05
-0.000517933
0.000670656
-0.000352281
0.000437139
0.00149152
0.00149244
0.00149436
0.00149718
0.00150064
0.00150445
0.00150831
0.00151193
0.00151508
0.00151753
0.00151913
0.00151976
0.0015193
0.00151767
0.00151483
0.00151077
0.00150547
0.00149895
0.00149124
0.00148237
0.0014724
0.00146138
0.00144939
0.00143652
0.00142283
0.00140844
0.00139344
0.00137793
0.00136202
0.00134582
0.00132943
0.00131297
0.00129655
0.00128025
0.00126419
0.00124846
0.00123313
0.00121828
0.00120398
0.0011903
0.00117727
0.00116493
0.00115333
0.00114248
0.00113239
0.00112306
0.00111449
0.00110667
0.00109958
0.00109319
0.00108748
0.00108241
0.00107795
0.00107405
0.00107068
0.0010678
0.00106537
0.00106334
0.00106168
0.00106033
0.00105926
0.00105842
0.00105778
0.00105727
0.00105691
0.00105659
0.00105629
0.00105597
0.00105558
0.0010551
0.00105445
0.00105357
0.00105245
0.00105101
0.00104919
0.00104691
0.0010441
0.00104066
0.0010365
0.00103148
0.00102547
0.0010183
0.00100977
0.000999626
0.000987588
0.000973298
0.000956315
0.000936092
0.00091194
0.000882977
0.000848068
0.000805765
0.000753955
0.0006906
0.000610701
0.00051503
0.000388841
0.000254457
9.33335e-05
0.0012284
1.383e-06
-2.14828e-06
0.00123035
5.04445e-06
-6.99117e-06
0.00123374
1.02581e-05
-1.36478e-05
0.00123819
1.48205e-05
-1.92723e-05
0.00124327
1.80542e-05
-2.31343e-05
0.00124859
1.97578e-05
-2.50808e-05
0.00125383
1.9927e-05
-2.5165e-05
0.00125871
1.86934e-05
-2.35779e-05
0.00126303
1.62432e-05
-2.05593e-05
0.00126661
1.27752e-05
-1.63537e-05
0.00126932
8.48493e-06
-1.11948e-05
0.00127106
3.56361e-06
-5.30659e-06
0.00127176
-1.85917e-06
1.15982e-06
0.00127138
-7.70018e-06
8.07627e-06
0.00126989
-1.37272e-05
1.52195e-05
0.00126728
-1.98669e-05
2.24828e-05
0.00126354
-2.60258e-05
2.97584e-05
0.00125871
-3.21217e-05
3.69522e-05
0.00125282
-3.80828e-05
4.39808e-05
0.00124589
-4.38448e-05
5.07701e-05
0.00123799
-4.93506e-05
5.72537e-05
0.00122916
-5.45485e-05
6.33717e-05
0.00121949
-5.93914e-05
6.90692e-05
0.00120903
-6.38365e-05
7.42961e-05
0.00119786
-6.78449e-05
7.90064e-05
0.00118608
-7.1384e-05
8.3164e-05
0.00117378
-7.44308e-05
8.67399e-05
0.00116103
-7.69627e-05
8.97081e-05
0.00114794
-7.89619e-05
9.20485e-05
0.00113461
-8.04186e-05
9.37501e-05
0.00112113
-8.13301e-05
9.48108e-05
0.0011076
-8.17015e-05
9.52372e-05
0.0010941
-8.15448e-05
9.50445e-05
0.00108072
-8.08791e-05
9.42561e-05
0.00106755
-7.97293e-05
9.29024e-05
0.00105465
-7.81264e-05
9.10208e-05
0.0010421
-7.61062e-05
8.86542e-05
0.00102996
-7.37092e-05
8.58514e-05
0.00101828
-7.09802e-05
8.26665e-05
0.00100709
-6.79649e-05
7.91518e-05
0.000996434
-6.4705e-05
7.53591e-05
0.000986337
-6.12488e-05
7.1346e-05
0.000976813
-5.7645e-05
6.71692e-05
0.00096787
-5.39405e-05
6.28837e-05
0.000959507
-5.01809e-05
5.85432e-05
0.000951719
-4.64093e-05
5.41981e-05
0.000944489
-4.26655e-05
4.98947e-05
0.0009378
-3.89854e-05
4.5675e-05
0.000931625
-3.54011e-05
4.15759e-05
0.000925936
-3.19403e-05
3.76291e-05
0.000920701
-2.86264e-05
3.38618e-05
0.000915884
-2.54786e-05
3.02958e-05
0.000911447
-2.25117e-05
2.6948e-05
0.000907353
-1.9737e-05
2.3831e-05
0.000903562
-1.71625e-05
2.09536e-05
0.000900034
-1.47934e-05
1.83217e-05
0.000896728
-1.26332e-05
1.5939e-05
0.000893605
-1.06837e-05
1.38073e-05
0.000890623
-8.94576e-06
1.19273e-05
0.000887744
-7.4196e-06
1.02991e-05
0.000884927
-6.10504e-06
8.92211e-06
0.000882132
-5.00169e-06
7.79577e-06
0.000879322
-4.10936e-06
6.91952e-06
0.000876457
-3.42871e-06
6.29408e-06
0.000873495
-2.95975e-06
5.92179e-06
0.000870403
-2.70891e-06
5.80116e-06
0.000867142
-2.67121e-06
5.93186e-06
0.000863673
-2.85004e-06
6.31883e-06
0.000859955
-3.24875e-06
6.96691e-06
0.000855944
-3.8704e-06
7.88185e-06
0.0008516
-4.73123e-06
9.07527e-06
0.000846879
-5.84004e-06
1.05609e-05
0.000841732
-7.21711e-06
1.23642e-05
0.000836105
-8.87926e-06
1.45058e-05
0.000829941
-1.08562e-05
1.70204e-05
0.000823175
-1.31844e-05
1.99506e-05
0.000815735
-1.59092e-05
2.33494e-05
0.000807539
-1.90862e-05
2.72816e-05
0.000798496
-2.27844e-05
3.18276e-05
0.0007885
-2.70874e-05
3.70837e-05
0.000777429
-3.20979e-05
4.31688e-05
0.000765143
-3.79429e-05
5.02284e-05
0.00075148
-4.4779e-05
5.84424e-05
0.000736248
-5.28022e-05
6.8034e-05
0.000719223
-6.22579e-05
7.92827e-05
0.00070014
-7.34596e-05
9.25429e-05
0.000678683
-8.6807e-05
0.000108264
0.000654472
-0.000102824
0.000127034
0.000627055
-0.00012219
0.000149607
0.000595873
-0.000145814
0.000176996
0.000560302
-0.000174921
0.000210492
0.000519457
-0.000210944
0.000251789
0.000472712
-0.000256957
0.000303702
0.000418416
-0.000312769
0.000367064
0.0003564
-0.000391904
0.00045392
0.000285482
-0.000467697
0.000538615
0.00020486
-0.000612126
0.000692748
0.000125877
-0.000652075
0.000731057
1.78774e-05
-0.000793357
0.000901356
-0.000463205
0.000481082
0.00128609
0.00128754
0.00129024
0.00129393
0.00129825
0.00130286
0.00130744
0.00131173
0.00131549
0.00131855
0.00132078
0.00132205
0.00132231
0.00132146
0.00131951
0.00131642
0.0013122
0.00130688
0.00130046
0.00129301
0.00128456
0.00127517
0.00126492
0.00125387
0.0012421
0.0012297
0.00121676
0.00120337
0.00118964
0.00117566
0.00116152
0.00114733
0.00113319
0.00111917
0.00110536
0.00109185
0.0010787
0.00106598
0.00105374
0.00104203
0.00103089
0.00102035
0.00101042
0.00100113
0.000992462
0.000984428
0.000977013
0.000970199
0.000963964
0.000958282
0.000953122
0.000948451
0.000944232
0.000940428
0.000937
0.00093391
0.000931117
0.000928581
0.000926264
0.000924124
0.000922124
0.000920223
0.000918381
0.000916558
0.000914724
0.00091283
0.00091084
0.000908715
0.000906416
0.000903906
0.000901133
0.00089805
0.000894615
0.000890773
0.000886463
0.00088162
0.000876171
0.000870031
0.000863104
0.000855278
0.000846426
0.000836396
0.00082501
0.000812058
0.000797288
0.000780397
0.000761016
0.000738695
0.000712877
0.000682858
0.000647798
0.000606497
0.000557749
0.000499388
0.000429856
0.000347804
0.000247929
0.000148766
2.60657e-05
0.000962573
3.14463e-06
-4.5808e-06
0.000965561
9.29285e-06
-1.22807e-05
0.000970142
1.73781e-05
-2.1959e-05
0.000975712
2.39899e-05
-2.95601e-05
0.000981739
2.83699e-05
-3.43968e-05
0.000987831
3.04624e-05
-3.65552e-05
0.0009937
3.0398e-05
-3.6266e-05
0.000999123
2.84299e-05
-3.38534e-05
0.00100394
2.48505e-05
-2.96638e-05
0.00100801
1.99456e-05
-2.40236e-05
0.00101126
1.39805e-05
-1.723e-05
0.00101362
7.20109e-06
-9.5567e-06
0.001015
-1.66758e-07
-1.21614e-06
0.00101546
-8.08044e-06
7.62572e-06
0.00101492
-1.6202e-05
1.67408e-05
0.0010134
-2.44559e-05
2.59761e-05
0.00101091
-3.27124e-05
3.52017e-05
0.00100747
-4.08668e-05
4.43034e-05
0.00100312
-4.88266e-05
5.318e-05
0.000997886
-5.65094e-05
6.17416e-05
0.000991821
-6.38412e-05
6.99068e-05
0.000984974
-7.07549e-05
7.7602e-05
0.000977403
-7.71893e-05
8.47598e-05
0.000969173
-8.30881e-05
9.13182e-05
0.000960352
-8.83995e-05
9.72212e-05
0.000951013
-9.30833e-05
0.000102422
0.000941237
-9.71057e-05
0.000106882
0.000931101
-0.000100439
0.000110574
0.000920689
-0.00010306
0.000113472
0.000910082
-0.000104959
0.000115565
0.000899361
-0.000106133
0.000116854
0.000888605
-0.000106591
0.000117348
0.000877887
-0.000106353
0.000117071
0.000867278
-0.000105445
0.000116054
0.000856843
-0.000103904
0.000114339
0.000846639
-0.000101773
0.000111977
0.000836717
-9.91014e-05
0.000109023
0.00082712
-9.59463e-05
0.000105543
0.000817884
-9.23681e-05
0.000101604
0.000809037
-8.84298e-05
9.72768e-05
0.000800597
-8.41902e-05
9.26306e-05
0.000792572
-7.97151e-05
8.77393e-05
0.000784968
-7.5068e-05
8.26725e-05
0.00077778
-7.03112e-05
7.74991e-05
0.000770999
-6.55052e-05
7.22867e-05
0.000764607
-6.07066e-05
6.70979e-05
0.000758585
-5.59674e-05
6.19897e-05
0.000752906
-5.13342e-05
5.7013e-05
0.000747542
-4.68477e-05
5.22122e-05
0.000742459
-4.25429e-05
4.7625e-05
0.000737626
-3.84498e-05
4.32837e-05
0.000733004
-3.4592e-05
3.92137e-05
0.000728557
-3.09877e-05
3.54344e-05
0.000724248
-2.76505e-05
3.19599e-05
0.000720038
-2.45895e-05
2.87997e-05
0.000715889
-2.18111e-05
2.59601e-05
0.000711763
-1.93186e-05
2.34443e-05
0.000707623
-1.71138e-05
2.12539e-05
0.000703431
-1.51972e-05
1.9389e-05
0.000699151
-1.35685e-05
1.78488e-05
0.000694745
-1.22267e-05
1.66322e-05
0.000690179
-1.1171e-05
1.57377e-05
0.000685415
-1.04007e-05
1.51642e-05
0.00068042
-9.91607e-06
1.49116e-05
0.000675157
-9.71784e-06
1.49804e-05
0.000669593
-9.80585e-06
1.53696e-05
0.000663694
-1.01802e-05
1.60797e-05
0.000657423
-1.08457e-05
1.71165e-05
0.000650744
-1.1808e-05
1.84866e-05
0.000643619
-1.30742e-05
2.0199e-05
0.000636009
-1.46585e-05
2.22688e-05
0.000627871
-1.65775e-05
2.47153e-05
0.000619161
-1.88577e-05
2.75681e-05
0.000609828
-2.15256e-05
3.08582e-05
0.000599819
-2.46207e-05
3.46298e-05
0.000589074
-2.81916e-05
3.89368e-05
0.000577527
-3.22984e-05
4.38458e-05
0.000565104
-3.70141e-05
4.94372e-05
0.000551722
-4.24295e-05
5.58108e-05
0.000537291
-4.86521e-05
6.30833e-05
0.000521707
-5.58149e-05
7.13991e-05
0.000504853
-6.408e-05
8.09334e-05
0.0004866
-7.36466e-05
9.19003e-05
0.000466798
-8.47617e-05
0.000104564
0.00044528
-9.77324e-05
0.00011925
0.00042186
-0.000112947
0.000136368
0.000396326
-0.000130895
0.000156429
0.000368445
-0.000152212
0.000180092
0.00033797
-0.000177706
0.000208182
0.000304645
-0.000208458
0.000241782
0.000268267
-0.00024579
0.000282168
0.000228542
-0.000291552
0.000331278
0.000185966
-0.000348172
0.000390749
0.000139652
-0.000417583
0.000463896
9.48365e-05
-0.000508136
0.000552952
4.62745e-05
-0.000600391
0.000648953
1.73436e-05
-0.000749418
0.000778349
-1.45845e-05
-0.000789796
0.000821724
-2.5096e-05
-0.000956968
0.00096748
-0.000437828
0.000412732
0.00102103
0.00102333
0.00102706
0.00103178
0.00103702
0.0010424
0.00104763
0.00105248
0.00105678
0.00106037
0.00106315
0.00106505
0.00106604
0.00106604
0.00106505
0.00106308
0.00106013
0.00105621
0.00105137
0.00104563
0.00103904
0.00103166
0.00102354
0.00101474
0.00100535
0.000995432
0.000985066
0.000974335
0.000963324
0.000952115
0.000940793
0.000929439
0.000918131
0.000906942
0.000895941
0.000885189
0.000874741
0.000864647
0.000854945
0.000845667
0.000836836
0.000828467
0.000820568
0.00081314
0.000806179
0.00079967
0.000793597
0.000787938
0.000782666
0.000777752
0.000773164
0.000768868
0.000764829
0.000761009
0.000757373
0.000753884
0.000750504
0.000747198
0.000743928
0.000740658
0.000737354
0.000733978
0.000730497
0.000726875
0.000723079
0.000719074
0.000714826
0.000710299
0.000705458
0.000700266
0.000694683
0.000688666
0.000682173
0.000675153
0.000667552
0.000659311
0.000650362
0.00064063
0.000630028
0.00061846
0.000605813
0.000591962
0.000576758
0.00056003
0.00054158
0.000521176
0.000498546
0.000473369
0.00044527
0.000413808
0.00037851
0.000338747
0.000294276
0.000243758
0.000189541
0.000127766
7.1096e-05
1.23579e-05
-4.3254e-05
-0.000887479
0.010534
-0.0103036
-0.00111855
0.0105251
-0.010294
-0.00135048
0.010512
-0.0102801
-0.00158368
0.0105025
-0.0102693
-0.00181824
0.0104983
-0.0102638
-0.0020546
0.0105005
-0.0102641
-0.00229318
0.0105102
-0.0102716
-0.0025346
0.010529
-0.0102876
-0.00277961
0.010559
-0.010314
-0.00302886
0.0106022
-0.0103529
-0.0032814
0.010658
-0.0104055
-0.00352919
0.0107154
-0.0104677
-0.00374281
0.0107303
-0.0105167
-0.00384427
0.0105789
-0.0104775
-0.00368351
0.010006
-0.0101667
-0.00307787
0.00864133
-0.00924697
-0.0019872
0.00615511
-0.00724578
-0.000772968
0.0027992
-0.00401343
-0.000100345
0.000219628
-0.000892251
-0.000521438
0.000421093
-0.000893265
0.0107631
-0.00112559
0.0107574
-0.00135773
0.0107441
-0.00159166
0.0107364
-0.00182678
0.0107334
-0.00206377
0.0107375
-0.0023029
0.0107493
-0.00254473
0.0107708
-0.00278949
0.0108037
-0.00303608
0.0108488
-0.00327851
0.0109005
-0.00349709
0.010934
-0.00364241
0.0108757
-0.00361872
0.0105552
-0.00328729
0.00967455
-0.00253855
0.00789259
-0.00144848
0.00506504
-0.000479965
0.00183068
-3.54453e-05
-0.000224892
-0.000556883
-0.000916758
0.01012
-0.00993577
-0.00110128
0.0101102
-0.00992565
-0.00128694
0.0100948
-0.00990915
-0.001474
0.0100828
-0.00989568
-0.0016627
0.0100756
-0.00988689
-0.00185335
0.0100741
-0.00988343
-0.00204638
0.0100794
-0.00988633
-0.0022423
0.0100927
-0.00989682
-0.00244185
0.0101161
-0.00991658
-0.00264589
0.010152
-0.00994794
-0.00285485
0.0102026
-0.00999367
-0.00306657
0.010268
-0.0100562
-0.00327023
0.0103358
-0.0101321
-0.0034302
0.0103593
-0.0101993
-0.00346375
0.0102112
-0.0101776
-0.00322293
0.00961733
-0.00985815
-0.00252618
0.00808328
-0.00878002
-0.00131545
0.00518874
-0.00639948
-0.000272674
0.00167071
-0.00271348
-0.000280732
8.05774e-06
-0.000925031
-0.00110885
-0.0012941
-0.00148062
-0.00166879
-0.00185881
-0.00205104
-0.00224588
-0.00244374
-0.0026447
-0.00284757
-0.00304726
-0.00322822
-0.00334641
-0.00330198
-0.00293163
-0.00209413
-0.000918819
-0.000140361
-0.000904864
0.00980471
-0.00967256
-0.00103752
0.00979424
-0.00966159
-0.00117146
0.00977625
-0.00964231
-0.00130712
0.00976135
-0.00962569
-0.00144467
0.00975065
-0.00961309
-0.00158447
0.00974513
-0.00960534
-0.00172691
0.00974562
-0.00960319
-0.00187247
0.00975336
-0.0096078
-0.0020218
0.00976992
-0.00962059
-0.00217567
0.00979761
-0.00964375
-0.00233477
0.00983929
-0.00968019
-0.00249904
0.00989791
-0.00973364
-0.00266587
0.00997275
-0.00980592
-0.00282389
0.0100553
-0.00989723
-0.00294125
0.0100974
-0.00998006
-0.00292645
0.00995621
-0.00997101
-0.00260362
0.00923841
-0.00956124
-0.001758
0.00734827
-0.0081939
-0.000572055
0.00373282
-0.00491876
0.000333137
-0.000905192
-0.000915111
-0.00104652
-0.00117942
-0.00131375
-0.00144999
-0.00158828
-0.00172899
-0.00187245
-0.00201912
-0.00216944
-0.00232382
-0.00248215
-0.00264151
-0.00278556
-0.00286577
-0.00276771
-0.00230933
-0.00136053
-0.000341195
-0.000853686
0.00959761
-0.00952104
-0.000931216
0.00958581
-0.00950828
-0.0010104
0.0095648
-0.00948561
-0.00109145
0.00954663
-0.00946558
-0.00117485
0.00953175
-0.00944835
-0.0012609
0.00952161
-0.00943556
-0.00135002
0.0095167
-0.00942758
-0.00144266
0.00951822
-0.00942557
-0.00153947
0.00952742
-0.0094306
-0.00164126
0.00954637
-0.00944459
-0.00174893
0.00957779
-0.00947011
-0.00186315
0.00962544
-0.00951123
-0.0019846
0.00969144
-0.00956998
-0.00211109
0.00978027
-0.00965378
-0.00223621
0.00987491
-0.00974978
-0.00231539
0.00993729
-0.00985812
-0.00224785
0.00972017
-0.00978772
-0.00179554
0.00874135
-0.00919365
-0.000836426
0.00584913
-0.00680824
0.00147889
-0.00231531
-0.000865502
-0.000941273
-0.00101878
-0.00109784
-0.00117919
-0.00126291
-0.0013494
-0.00143898
-0.00153216
-0.00162953
-0.00173193
-0.00184013
-0.00195461
-0.00207158
-0.00217673
-0.00221045
-0.00205151
-0.00150406
-0.000573694
-0.000767369
0.00950356
-0.009484
-0.00078858
0.00948928
-0.00946807
-0.000811955
0.00946461
-0.00944123
-0.000837726
0.00944231
-0.00941654
-0.000866234
0.00942267
-0.00939417
-0.000897872
0.00940702
-0.00937538
-0.000933121
0.00939581
-0.00936056
-0.000972516
0.00939019
-0.00935079
-0.00101672
0.00939108
-0.00934687
-0.00106665
0.00940016
-0.00935022
-0.00112353
0.00941989
-0.00936301
-0.00118849
0.00945417
-0.00938921
-0.00126348
0.00950501
-0.00943002
-0.0013491
0.00958013
-0.00949451
-0.00144774
0.00966951
-0.00957087
-0.00154537
0.00978753
-0.0096899
-0.00160569
0.00978109
-0.00972077
-0.00144818
0.00942026
-0.00957776
-0.000855453
0.00739886
-0.0079916
0.00295012
-0.00380557
-0.000780036
-0.00079904
-0.000820044
-0.000843313
-0.000868993
-0.000897537
-0.000929304
-0.000964688
-0.00100422
-0.00104865
-0.00109887
-0.00115592
-0.0012209
-0.00129455
-0.00137482
-0.00144541
-0.00145203
-0.00122542
-0.000634805
-0.00065219
0.00952348
-0.00956062
-0.000617675
0.00950507
-0.00953958
-0.000585457
0.0094763
-0.00950852
-0.00055628
0.00944857
-0.00947775
-0.000530199
0.00942355
-0.00944963
-0.000507898
0.00940129
-0.0094236
-0.000490039
0.00938272
-0.00940058
-0.000476784
0.00936879
-0.00938205
-0.000469096
0.00936011
-0.0093678
-0.000468322
0.00935769
-0.00935847
-0.000475684
0.00936388
-0.00935652
-0.000492969
0.00938174
-0.00936445
-0.000522
0.00941358
-0.00938455
-0.000567175
0.00946422
-0.00941904
-0.000630211
0.00952862
-0.00946558
-0.000721292
0.00962322
-0.00953214
-0.000820904
0.00966027
-0.00956066
-0.000863942
0.00958169
-0.00953865
-0.000623195
0.00822618
-0.00846692
0.00423424
-0.00485743
-0.000664662
-0.000627661
-0.000592594
-0.000560565
-0.00053118
-0.000505268
-0.000483108
-0.00046511
-0.000451874
-0.000444403
-0.000443541
-0.000451015
-0.00046745
-0.00049774
-0.000539994
-0.000606675
-0.000667181
-0.000663249
-0.000428668
-0.000516125
0.00965489
-0.00974666
-0.000428371
0.00963015
-0.00971791
-0.000342914
0.00959746
-0.00968292
-0.000260828
0.00956314
-0.00964522
-0.000181471
0.00953238
-0.00961173
-0.000106222
0.00950249
-0.00957774
-3.55718e-05
0.00947546
-0.00954611
2.89325e-05
0.00945073
-0.00951523
8.57397e-05
0.00943027
-0.00948708
0.000134813
0.00941411
-0.00946318
0.00017455
0.00940432
-0.00944406
0.000202693
0.00940255
-0.00943069
0.00021663
0.00941176
-0.00942569
0.000210917
0.00942958
-0.00942387
0.000181927
0.00945976
-0.00943077
0.000109921
0.00948542
-0.00941342
1.21873e-05
0.00949271
-0.00939498
-0.000179208
0.00938639
-0.00919499
-0.000198859
0.00844055
-0.00842089
0.00487181
-0.00507066
-0.000527105
-0.000436537
-0.000347594
-0.000262207
-0.000179464
-0.000100565
-2.569e-05
4.29924e-05
0.000105465
0.00016111
0.000208916
0.000247011
0.000274218
0.000284753
0.000278933
0.000232219
0.00016427
1.20072e-05
-1.43713e-05
-0.000369012
0.00989185
-0.0100313
-0.000232312
0.00985719
-0.00999389
-9.59167e-05
0.00982226
-0.00995866
3.50576e-05
0.00977971
-0.00991069
0.000159695
0.00974135
-0.00986599
0.000279369
0.00970304
-0.00982272
0.000393018
0.00966629
-0.00977993
0.000500134
0.00963012
-0.00973724
0.000599722
0.00959581
-0.00969539
0.000690248
0.00956435
-0.00965487
0.00077006
0.0095363
-0.00961611
0.000836848
0.00951205
-0.00957883
0.000886917
0.00949278
-0.00954285
0.00091457
0.00947172
-0.00949937
0.000909459
0.00944907
-0.00944396
0.000853908
0.00938617
-0.00933062
0.000720417
0.00929576
-0.00916227
0.000449434
0.00895746
-0.00868647
0.000128634
0.00813516
-0.00781436
0.0046766
-0.00454796
-0.000376048
-0.000236766
-9.74185e-05
3.70713e-05
0.000166694
0.000291995
0.000412175
0.000527064
0.000635792
0.000736954
0.000829197
0.000910555
0.000977643
0.0010255
0.0010438
0.00101655
0.000917333
0.000679796
0.000394066
0.00378759
3.71265e-06
-2.88511e-06
0.00378837
-1.08479e-07
-6.72505e-07
0.0037858
1.2529e-05
-9.96326e-06
0.0037857
1.0062e-05
-9.95876e-06
0.00378171
2.05293e-05
-1.6542e-05
0.00377957
2.951e-05
-2.73694e-05
0.00377283
3.63808e-05
-2.96383e-05
0.00376628
6.82516e-05
-6.1702e-05
0.00375409
6.87722e-05
-5.65836e-05
0.00373806
0.000146587
-0.000130555
0.00371439
0.000138162
-0.000114493
0.00367786
0.000308994
-0.000272465
0.00362827
0.000294004
-0.000244412
0.0035454
0.000666563
-0.000583697
0.00343071
0.000675055
-0.000560358
0.00323128
0.00155566
-0.00135624
0.00292085
0.00177897
-0.00146854
0.00236625
0.00431921
-0.00376461
0.00136255
0.00607811
-0.00507441
0.015356
-0.0139934
0.0037876
4.52403e-06
0.0037883
-8.01387e-07
0.00378585
1.49787e-05
0.00378565
1.02613e-05
0.00378175
2.44261e-05
0.00377953
3.17269e-05
0.0037728
4.31141e-05
0.0037662
7.48469e-05
0.00375379
8.11827e-05
0.00373777
0.000162608
0.00371326
0.000162673
0.00367684
0.00034541
0.00362478
0.000346069
0.00354226
0.000749078
0.00342082
0.000796496
0.0032231
0.00175339
0.00289591
0.00210615
0.00235802
0.0048571
0.00135196
0.00708418
0.0167079
0.00432155
2.14502e-06
-1.52742e-06
0.00432178
1.13594e-06
-1.36447e-06
0.00431977
7.65266e-06
-5.64405e-06
0.0043187
9.23704e-06
-8.163e-06
0.00431548
1.28899e-05
-9.6703e-06
0.00431181
2.41926e-05
-2.0527e-05
0.00430622
2.33786e-05
-1.77843e-05
0.0042973
5.34482e-05
-4.45309e-05
0.0042869
4.51168e-05
-3.47121e-05
0.00426724
0.000111762
-9.21046e-05
0.00424654
9.1991e-05
-7.12913e-05
0.00420449
0.000231503
-0.000189449
0.00416049
0.00019706
-0.00015306
0.00406911
0.000493782
-0.000402405
0.00396721
0.000451399
-0.000349499
0.00375364
0.00114612
-0.000932554