/*--------------------------------*- C++ -*----------------------------------*\
  =========                 |
  \\      /  F ield         | OpenFOAM: The Open Source CFD Toolbox
   \\    /   O peration     | Website:  https://openfoam.org
    \\  /    A nd           | Version:  10
     \\/     M anipulation  |
\*---------------------------------------------------------------------------*/
FoamFile
{
    format      ascii;
    class       volScalarField;
    location    "10";
    object      p;
}
// * * * * * * * * * * * * * * * * * * * * * * * * * * * * * * * * * * * * * //

dimensions      [0 2 -2 0 0 0 0];

internalField   nonuniform List<scalar> 
800
(
-0.237422
-0.228002
-0.230139
-0.225655
-0.236344
-0.234184
-0.274178
-0.291909
-0.333904
-0.910796
-0.245303
-0.236402
-0.23905
-0.235677
-0.248107
-0.24852
-0.288005
-0.331528
-0.409857
-0.382287
-0.252584
-0.244103
-0.247594
-0.245937
-0.260645
-0.267903
-0.312007
-0.365467
-0.453348
-0.474837
-0.259421
-0.251514
-0.25592
-0.256314
-0.273045
-0.286966
-0.33652
-0.400331
-0.447417
-0.449107
-0.265947
-0.258815
-0.264133
-0.266625
-0.285261
-0.303997
-0.358472
-0.431105
-0.439873
-0.487609
-0.272213
-0.266007
-0.27225
-0.276795
-0.297652
-0.320517
-0.381663
-0.451501
-0.4509
-0.490945
-0.278166
-0.273004
-0.280221
-0.286646
-0.309609
-0.33506
-0.404388
-0.459168
-0.475692
-0.49186
-0.283832
-0.279805
-0.288014
-0.296165
-0.321385
-0.349722
-0.428786
-0.46435
-0.506155
-0.482148
-0.289093
-0.286322
-0.295576
-0.305283
-0.332242
-0.361353
-0.445845
-0.473537
-0.532733
-0.469718
-0.294095
-0.292745
-0.302979
-0.314161
-0.342991
-0.376272
-0.46809
-0.507847
-0.562144
-0.441327
-0.153208
-0.130235
-0.121562
-0.0938722
-0.0705389
-0.0204832
0.0320879
0.141667
0.220538
0.434765
-0.162445
-0.140353
-0.133377
-0.107379
-0.0884708
-0.0423786
-0.00229866
0.0999885
0.148214
0.36371
-0.171386
-0.150814
-0.145905
-0.123258
-0.110395
-0.0716886
-0.0449948
0.0503335
0.0877613
0.31089
-0.179659
-0.160744
-0.157577
-0.138203
-0.130451
-0.0985335
-0.082965
0.00273197
0.0215151
0.249038
-0.187704
-0.170363
-0.168678
-0.152216
-0.148955
-0.123687
-0.11967
-0.04789
-0.0506861
0.171652
-0.195858
-0.17999
-0.179642
-0.165866
-0.1669
-0.14781
-0.156557
-0.0981179
-0.125612
0.0920282
-0.204162
-0.189722
-0.19053
-0.179287
-0.184188
-0.170618
-0.191785
-0.147837
-0.202459
-0.0252838
-0.212531
-0.199494
-0.201195
-0.192223
-0.200211
-0.190988
-0.222527
-0.191323
-0.277061
-0.123467
-0.220862
-0.209199
-0.211417
-0.204467
-0.214334
-0.209177
-0.246913
-0.23436
-0.34
-0.354673
-0.229155
-0.218753
-0.221118
-0.215773
-0.226751
-0.223923
-0.265831
-0.260878
-0.347949
-0.482461
-0.229154
-0.218753
-0.221118
-0.215773
-0.226751
-0.223922
-0.26583
-0.260877
-0.347949
-0.482461
-0.220861
-0.209198
-0.211417
-0.204466
-0.214334
-0.209177
-0.246912
-0.234359
-0.34
-0.354673
-0.212531
-0.199493
-0.201194
-0.192223
-0.200211
-0.190987
-0.222526
-0.191323
-0.277061
-0.123467
-0.204161
-0.189722
-0.19053
-0.179287
-0.184187
-0.170618
-0.191785
-0.147837
-0.202458
-0.0252834
-0.195857
-0.17999
-0.179642
-0.165866
-0.166899
-0.14781
-0.156556
-0.0981175
-0.125612
0.0920285
-0.187703
-0.170362
-0.168678
-0.152215
-0.148955
-0.123687
-0.11967
-0.0478896
-0.0506858
0.171652
-0.179658
-0.160744
-0.157576
-0.138203
-0.13045
-0.0985331
-0.0829646
0.00273233
0.0215154
0.249038
-0.171386
-0.150813
-0.145904
-0.123258
-0.110395
-0.0716882
-0.0449944
0.0503338
0.0877616
0.31089
-0.162444
-0.140352
-0.133377
-0.107379
-0.0884703
-0.0423782
-0.00229829
0.0999888
0.148214
0.36371
-0.153207
-0.130234
-0.121562
-0.0938718
-0.0705385
-0.0204828
0.0320882
0.141667
0.220538
0.434766
-0.294094
-0.292744
-0.302978
-0.314161
-0.342991
-0.376272
-0.468089
-0.507846
-0.562144
-0.441326
-0.289092
-0.286322
-0.295575
-0.305283
-0.332241
-0.361353
-0.445844
-0.473536
-0.532732
-0.469717
-0.283832
-0.279805
-0.288014
-0.296164
-0.321385
-0.349722
-0.428785
-0.464349
-0.506155
-0.482147
-0.278165
-0.273003
-0.28022
-0.286646
-0.309608
-0.33506
-0.404387
-0.459168
-0.475692
-0.491859
-0.272212
-0.266006
-0.272249
-0.276795
-0.297651
-0.320517
-0.381663
-0.451501
-0.450899
-0.490945
-0.265946
-0.258814
-0.264132
-0.266625
-0.28526
-0.303997
-0.358472
-0.431105
-0.439872
-0.487608
-0.25942
-0.251514
-0.255919
-0.256314
-0.273044
-0.286965
-0.336519
-0.400331
-0.447416
-0.449106
-0.252584
-0.244102
-0.247593
-0.245936
-0.260644
-0.267903
-0.312007
-0.365466
-0.453347
-0.474836
-0.245302
-0.236401
-0.23905
-0.235676
-0.248106
-0.248519
-0.288005
-0.331527
-0.409857
-0.382287
-0.237422
-0.228001
-0.230139
-0.225654
-0.236343
-0.234183
-0.274178
-0.291909
-0.333903
-0.910795
-0.100832
-0.0761601
-0.0630472
-0.0387128
-0.0138719
0.0217171
0.0680784
0.131475
0.207195
0.297143
-0.0497094
-0.0299423
-0.017084
0.00449004
0.0265732
0.0542241
0.0820503
0.114979
0.138758
0.16665
-0.015437
-0.00319937
0.00444484
0.0164359
0.0284857
0.0415996
0.0560256
0.069104
0.0817188
0.0899433
0.00252953
0.0110527
0.0162105
0.0245003
0.0319195
0.0402691
0.0474265
0.0543879
0.0590007
0.0619898
0.0127369
0.0169722
0.019594
0.0234813
0.0272414
0.0310029
0.0347496
0.0377756
0.0402922
0.0415806
0.018601
0.0216611
0.023313
0.0260887
0.0283165
0.0307862
0.032733
0.0345192
0.035639
0.036283
0.0213551
0.0225373
0.0233005
0.0244067
0.0254708
0.0265002
0.0274866
0.0282613
0.0288645
0.0291638
0.0232561
0.0243962
0.0249624
0.0259188
0.0266574
0.0274478
0.0280666
0.0286029
0.0289454
0.0291333
0.0236611
0.0239335
0.0241473
0.0244237
0.0247462
0.0250238
0.0253175
0.0255286
0.0257042
0.0257886
0.0247978
0.0252089
0.0254521
0.0258279
0.0261338
0.0264674
0.0267245
0.0269545
0.0271078
0.0271956
-0.00390071
-0.00369269
-0.00357678
-0.00343183
-0.00329652
-0.00316771
-0.00305221
-0.0029609
-0.0029003
-0.00287107
0.0175292
0.018118
0.0185031
0.0189798
0.0194673
0.0199614
0.0204442
0.0208753
0.0212071
0.0213897
-0.00730362
-0.00680821
-0.00642883
-0.00598806
-0.00550182
-0.00499424
-0.0044811
-0.00401444
-0.00365033
-0.00344795
0.0407643
0.041421
0.0422003
0.0431429
0.0442904
0.0455558
0.0468904
0.0481258
0.0490899
0.0496181
-0.0256742
-0.0263792
-0.0264368
-0.0264984
-0.0262226
-0.0257493
-0.0250251
-0.0241958
-0.0234187
-0.0229467
0.0472707
0.0471376
0.0484781
0.0499421
0.0525297
0.0554036
0.0587156
0.0616638
0.0638119
0.0648529
-0.0741814
-0.0831402
-0.0859108
-0.0917511
-0.0949038
-0.0978979
-0.0988229
-0.0982717
-0.0964465
-0.095098
-0.0355091
-0.0414399
-0.0407015
-0.0429364
-0.0407285
-0.0392897
-0.0353944
-0.0328743
-0.0299541
-0.0297962
-0.186695
-0.224663
-0.239181
-0.271725
-0.296112
-0.321513
-0.336692
-0.338268
-0.328331
-0.318064
-0.344723
-0.362901
-0.384551
-0.413642
-0.450998
-0.48567
-0.519152
-0.536055
-0.543227
-0.524165
0.0247978
0.0252088
0.0254521
0.0258279
0.0261337
0.0264673
0.0267245
0.0269545
0.0271078
0.0271956
0.0236611
0.0239335
0.0241473
0.0244236
0.0247462
0.0250238
0.0253175
0.0255286
0.0257042
0.0257886
0.0232561
0.0243962
0.0249624
0.0259187
0.0266574
0.0274478
0.0280666
0.0286029
0.0289453
0.0291333
0.0213551
0.0225373
0.0233004
0.0244066
0.0254707
0.0265001
0.0274866
0.0282613
0.0288645
0.0291638
0.0186009
0.021661
0.0233129
0.0260886
0.0283164
0.0307862
0.032733
0.0345192
0.035639
0.036283
0.0127368
0.0169721
0.0195939
0.0234812
0.0272413
0.0310029
0.0347495
0.0377755
0.0402922
0.0415806
0.0025294
0.0110526
0.0162103
0.0245002
0.0319194
0.040269
0.0474264
0.0543879
0.0590007
0.0619897
-0.0154372
-0.00319956
0.00444466
0.0164357
0.0284855
0.0415995
0.0560255
0.0691039
0.0817187
0.0899433
-0.0497097
-0.0299425
-0.0170842
0.00448979
0.026573
0.0542239
0.0820501
0.114979
0.138758
0.16665
-0.100833
-0.0761605
-0.0630476
-0.0387131
-0.0138722
0.0217168
0.0680782
0.131475
0.207195
0.297143
-0.344723
-0.362901
-0.384551
-0.413642
-0.450998
-0.485671
-0.519152
-0.536055
-0.543227
-0.524165
-0.186695
-0.224663
-0.239182
-0.271725
-0.296112
-0.321513
-0.336693
-0.338268
-0.328331
-0.318064
-0.0355091
-0.0414399
-0.0407016
-0.0429364
-0.0407286
-0.0392897
-0.0353944
-0.0328743
-0.0299541
-0.0297962
-0.0741814
-0.0831402
-0.0859108
-0.0917512
-0.0949039
-0.0978979
-0.0988229
-0.0982717
-0.0964466
-0.095098
0.0472706
0.0471376
0.0484781
0.0499421
0.0525297
0.0554036
0.0587156
0.0616638
0.0638119
0.0648529
-0.0256742
-0.0263792
-0.0264368
-0.0264984
-0.0262226
-0.0257493
-0.0250251
-0.0241958
-0.0234187
-0.0229467
0.0407643
0.041421
0.0422003
0.0431429
0.0442904
0.0455558
0.0468904
0.0481258
0.0490899
0.0496181
-0.00730362
-0.00680821
-0.00642884
-0.00598806
-0.00550182
-0.00499424
-0.00448111
-0.00401445
-0.00365033
-0.00344795
0.0175292
0.018118
0.0185031
0.0189797
0.0194673
0.0199614
0.0204442
0.0208753
0.0212071
0.0213897
-0.00390071
-0.00369269
-0.00357678
-0.00343183
-0.00329652
-0.00316771
-0.00305221
-0.0029609
-0.0029003
-0.00287107
)
;

boundaryField
{
    inlet
    {
        type            zeroGradient;
    }
    outlet
    {
        type            fixedValue;
        value           uniform 0;
    }
    polygon
    {
        type            zeroGradient;
    }
    top
    {
        type            symmetryPlane;
    }
    bottom
    {
        type            symmetryPlane;
    }
    outside
    {
        type            slip;
    }
}


// ************************************************************************* //
