/*--------------------------------*- C++ -*----------------------------------*\
  =========                 |
  \\      /  F ield         | OpenFOAM: The Open Source CFD Toolbox
   \\    /   O peration     | Website:  https://openfoam.org
    \\  /    A nd           | Version:  10
     \\/     M anipulation  |
\*---------------------------------------------------------------------------*/
FoamFile
{
    format      ascii;
    class       surfaceScalarField;
    location    "10";
    object      phi;
}
// * * * * * * * * * * * * * * * * * * * * * * * * * * * * * * * * * * * * * //

dimensions      [0 3 -1 0 0 0 0];

internalField   nonuniform List<scalar> 
1520
(
-0.00142659
0.0189343
-0.0182319
-0.00212692
0.0188812
-0.0181808
-0.00283269
0.0187895
-0.0180838
-0.00355785
0.0187482
-0.018023
-0.00431912
0.0187209
-0.0179597
-0.005117
0.0187847
-0.0179868
-0.00601392
0.0187844
-0.0178874
-0.00685151
0.019303
-0.0184654
-0.00666082
0.0173947
-0.0175853
0.0116561
-0.0183169
-0.00144272
0.0196383
-0.00214771
0.0195862
-0.00286097
0.0195028
-0.0035945
0.0194817
-0.00436176
0.0194882
-0.0051745
0.0195974
-0.00603243
0.0196423
-0.00643892
0.0197095
-0.00517622
0.016132
0.00647988
-0.00145783
0.0203438
-0.00216681
0.0202952
-0.00288747
0.0202234
-0.00363153
0.0202258
-0.00441085
0.0202675
-0.00521873
0.0204053
-0.00595758
0.0203811
-0.00598199
0.0197339
-0.00383195
0.0139819
0.00264793
-0.00147148
0.0210504
-0.00218408
0.0210078
-0.00291057
0.0209499
-0.00366213
0.0209773
-0.004446
0.0210514
-0.00522683
0.0211861
-0.00580061
0.0209549
-0.0053743
0.0193076
-0.0026255
0.0112331
2.24315e-05
-0.0014839
0.0217576
-0.00219968
0.0217236
-0.00293168
0.0216819
-0.0036908
0.0217364
-0.00447406
0.0218347
-0.00520041
0.0219125
-0.00557428
0.0213288
-0.00468487
0.0184181
-0.00169345
0.00824171
-0.00167102
-0.00149455
0.0224652
-0.00221351
0.0224425
-0.0029495
0.0224179
-0.00370912
0.0224961
-0.00447386
0.0225994
-0.00511468
0.0225533
-0.00527579
0.0214899
-0.00391463
0.017057
-0.00108781
0.00541489
-0.00275883
-0.00150455
0.0231726
-0.00222548
0.0231634
-0.00296488
0.0231573
-0.0037263
0.0232575
-0.00447431
0.0233474
-0.00501688
0.0230959
-0.0049322
0.0214052
-0.00317664
0.0153014
-0.000716326
0.00295458
-0.00347515
-0.00151152
0.02388
-0.00223555
0.0238875
-0.00297716
0.0238989
-0.00372891
0.0240092
-0.00442891
0.0240474
-0.00483763
0.0235046
-0.0045119
0.0210795
-0.00258239
0.0133719
-0.000525369
0.000897564
-0.00400052
-0.00152021
0.0245856
-0.00224382
0.0246111
-0.00298479
0.0246399
-0.00373045
0.0247549
-0.00440019
0.0247172
-0.0047069
0.0238113
-0.00413824
0.0205108
-0.00219938
0.011433
-0.000462051
-0.00083977
-0.00446257
-0.00152002
0.0252901
-0.00225203
0.0253431
-0.00299477
0.0253826
-0.00372268
0.0254828
-0.0043015
0.025296
-0.00442044
0.0239303
-0.00361151
0.0197019
-0.00179947
0.009621
-0.000407625
-0.00223161
-0.0048702
-0.000135213
0.0225723
-0.0230259
0.000285729
0.0222581
-0.022679
0.000675258
0.0220088
-0.0223984
0.00100678
0.0215009
-0.0218324
0.00125207
0.0209891
-0.0212344
0.00136748
0.0199773
-0.0200927
0.00127161
0.0187881
-0.0186922
0.00096757
0.0164967
-0.0161927
0.00045382
0.0141619
-0.0136482
0.00791429
-0.00746047
-0.000146419
0.0221127
0.000277184
0.0218345
0.000673173
0.0216128
0.00100725
0.0211668
0.0012563
0.0207401
0.00137127
0.0198624
0.00129511
0.0188642
0.000975708
0.0168162
0.00052056
0.0146171
0.00843485
-0.00015696
0.0216486
0.000272427
0.0214051
0.000675381
0.0212099
0.00101874
0.0208234
0.00128285
0.020476
0.00141455
0.0197307
0.00135908
0.0189197
0.00102204
0.0171532
0.000519386
0.0151197
0.00895424
-0.000166387
0.0211794
0.000269783
0.0209689
0.000681307
0.0207984
0.00103617
0.0204686
0.00131838
0.0201938
0.00146723
0.0195818
0.00143934
0.0189476
0.0010956
0.0174969
0.0005732
0.0156421
0.00952744
-0.000174956
0.0207048
0.000268297
0.0205257
0.00068923
0.0203774
0.00105656
0.0201012
0.00135855
0.0198918
0.00152983
0.0194105
0.00154127
0.0189362
0.00122346
0.0178147
0.000679461
0.0161861
0.0102069
-0.000182052
0.0202241
0.000269173
0.0200745
0.000701465
0.0199451
0.00108359
0.0197191
0.00141148
0.0195639
0.00161437
0.0192077
0.001684
0.0188665
0.00138095
0.0181178
0.000859763
0.0167073
0.0110667
-0.000188777
0.0197371
0.00027052
0.0196152
0.000714196
0.0195015
0.0011119
0.0193214
0.00146454
0.0192112
0.00170417
0.018968
0.00182787
0.0187428
0.00160616
0.0183395
0.00108168
0.0172318
0.0121483
-0.000192933
0.0192427
0.000275992
0.0191462
0.000734713
0.0190427
0.00115081
0.0189053
0.00153829
0.0188238
0.00182194
0.0186844
0.00202938
0.0185354
0.00186092
0.018508
0.00150119
0.0175915
0.0136495
-0.000199116
0.0187417
0.000277402
0.0186697
0.000746642
0.0185735
0.00117673
0.0184752
0.00158492
0.0184156
0.00190309
0.0183662
0.00217697
0.0182615
0.00216231
0.0185226
0.00189383
0.01786
0.0155434
-0.000198511
0.000290371
0.000780121
0.00123235
0.00168823
0.00206762
0.00244169
0.00249892
0.00277357
-0.000198511
-0.0187417
0.0182319
0.000290371
-0.0186697
0.0181808
0.000780121
-0.0185735
0.0180838
0.00123235
-0.0184752
0.018023
0.00168823
-0.0184156
0.0179597
0.00206762
-0.0183662
0.0179868
0.00244169
-0.0182615
0.0178874
0.00249892
-0.0185226
0.0184654
0.00277357
-0.01786
0.0175853
-0.0155434
0.0183169
-0.000199116
-0.0192427
0.000277402
-0.0191462
0.000746642
-0.0190427
0.00117673
-0.0189053
0.00158492
-0.0188238
0.00190309
-0.0186844
0.00217697
-0.0185354
0.00216231
-0.018508
0.00189383
-0.0175915
-0.0136495
-0.000192933
-0.0197371
0.000275992
-0.0196152
0.000734713
-0.0195015
0.00115081
-0.0193214
0.00153829
-0.0192112
0.00182194
-0.018968
0.00202938
-0.0187428
0.00186092
-0.0183395
0.00150119
-0.0172318
-0.0121483
-0.000188777
-0.0202241
0.00027052
-0.0200745
0.000714196
-0.0199451
0.0011119
-0.0197191
0.00146454
-0.0195639
0.00170417
-0.0192077
0.00182787
-0.0188665
0.00160616
-0.0181178
0.00108168
-0.0167073
-0.0110667
-0.000182052
-0.0207048
0.000269173
-0.0205257
0.000701465
-0.0203774
0.00108359
-0.0201012
0.00141148
-0.0198918
0.00161437
-0.0194105
0.001684
-0.0189362
0.00138095
-0.0178147
0.000859763
-0.0161861
-0.0102069
-0.000174956
-0.0211794
0.000268297
-0.0209689
0.00068923
-0.0207984
0.00105656
-0.0204686
0.00135855
-0.0201938
0.00152983
-0.0195818
0.00154127
-0.0189476
0.00122346
-0.0174969
0.000679461
-0.0156421
-0.00952744
-0.000166387
-0.0216486
0.000269783
-0.0214051
0.000681307
-0.0212099
0.00103617
-0.0208234
0.00131838
-0.020476
0.00146723
-0.0197307
0.00143934
-0.0189197
0.0010956
-0.0171532
0.0005732
-0.0151197
-0.00895424
-0.00015696
-0.0221127
0.000272427
-0.0218345
0.000675381
-0.0216128
0.00101874
-0.0211668
0.00128285
-0.0207401
0.00141455
-0.0198624
0.00135908
-0.0188642
0.00102204
-0.0168162
0.000519386
-0.0146171
-0.00843485
-0.000146419
-0.0225723
0.000277184
-0.0222581
0.000673173
-0.0220088
0.00100725
-0.0215009
0.0012563
-0.0209891
0.00137127
-0.0199773
0.00129511
-0.0187881
0.000975708
-0.0164967
0.00052056
-0.0141619
-0.00791429
-0.000135213
-0.0230259
0.000285729
-0.022679
0.000675258
-0.0223984
0.00100678
-0.0218324
0.00125207
-0.0212344
0.00136748
-0.0200927
0.00127161
-0.0186922
0.00096757
-0.0161927
0.00045382
-0.0136482
-0.00746047
-0.00152002
-0.0245856
0.0252901
-0.00225203
-0.0246111
0.0253431
-0.00299477
-0.0246399
0.0253826
-0.00372268
-0.0247549
0.0254828
-0.0043015
-0.0247172
0.025296
-0.00442044
-0.0238113
0.0239303
-0.00361151
-0.0205108
0.0197019
-0.00179947
-0.011433
0.009621
-0.000407625
0.00083977
-0.00223161
0.00446257
-0.0048702
-0.00152021
-0.02388
-0.00224382
-0.0238875
-0.00298479
-0.0238989
-0.00373045
-0.0240092
-0.00440019
-0.0240474
-0.0047069
-0.0235046
-0.00413824
-0.0210795
-0.00219938
-0.0133719
-0.000462051
-0.000897564
0.00400052
-0.00151152
-0.0231726
-0.00223555
-0.0231634
-0.00297716
-0.0231573
-0.00372891
-0.0232575
-0.00442891
-0.0233474
-0.00483763
-0.0230959
-0.0045119
-0.0214052
-0.00258239
-0.0153014
-0.000525369
-0.00295458
0.00347515
-0.00150455
-0.0224652
-0.00222548
-0.0224425
-0.00296488
-0.0224179
-0.0037263
-0.0224961
-0.00447431
-0.0225994
-0.00501688
-0.0225533
-0.0049322
-0.0214899
-0.00317664
-0.017057
-0.000716325
-0.00541489
0.00275883
-0.00149455
-0.0217576
-0.00221351
-0.0217236
-0.0029495
-0.0216819
-0.00370912
-0.0217364
-0.00447386
-0.0218347
-0.00511468
-0.0219125
-0.00527579
-0.0213288
-0.00391463
-0.0184181
-0.00108781
-0.00824171
0.00167102
-0.0014839
-0.0210504
-0.00219968
-0.0210078
-0.00293168
-0.0209499
-0.0036908
-0.0209773
-0.00447406
-0.0210514
-0.00520041
-0.0211861
-0.00557428
-0.0209549
-0.00468487
-0.0193076
-0.00169345
-0.0112331
-2.24315e-05
-0.00147148
-0.0203438
-0.00218408
-0.0202952
-0.00291057
-0.0202234
-0.00366213
-0.0202258
-0.004446
-0.0202675
-0.00522683
-0.0204053
-0.00580061
-0.0203811
-0.0053743
-0.0197339
-0.0026255
-0.0139819
-0.00264793
-0.00145783
-0.0196383
-0.00216681
-0.0195862
-0.00288747
-0.0195028
-0.00363153
-0.0194817
-0.00441085
-0.0194882
-0.00521873
-0.0195974
-0.00595758
-0.0196423
-0.00598199
-0.0197095
-0.00383195
-0.016132
-0.00647988
-0.00144272
-0.0189343
-0.00214771
-0.0188812
-0.00286097
-0.0187895
-0.0035945
-0.0187482
-0.00436176
-0.0187209
-0.0051745
-0.0187847
-0.00603243
-0.0187844
-0.00643892
-0.019303
-0.00517622
-0.0173947
-0.0116561
-0.00142659
-0.00212692
-0.00283269
-0.00355785
-0.00431912
-0.005117
-0.00601392
-0.00685151
-0.00666082
-0.00677462
-0.0217307
-0.00806561
-0.0213881
-0.00937951
-0.0210845
-0.0105533
-0.0206586
-0.0116097
-0.020178
-0.012127
-0.0195755
-0.0120477
-0.0187715
-0.0104601
-0.0177803
-0.0075232
-0.0165851
-0.0149837
4.17813e-12
-0.00348075
-0.0210419
-0.00408721
-0.0207816
-0.00463087
-0.0205408
-0.00507855
-0.0202109
-0.00540437
-0.0198522
-0.00554205
-0.0194378
-0.00530851
-0.019005
-0.00453375
-0.018555
-0.00295091
-0.0181679
-0.0179346
2.24247e-12
-0.00266157
-0.0205653
-0.0030288
-0.0204144
-0.00328968
-0.0202799
-0.00339421
-0.0201064
-0.00333459
-0.0199118
-0.00307242
-0.0197
-0.00260237
-0.0194751
-0.0018975
-0.0192599
-0.000976956
-0.0190885
-0.0189115
-1.22969e-12
-0.00109344
-0.0203134
-0.00129929
-0.0202085
-0.00145777
-0.0201214
-0.0015594
-0.0200048
-0.00157796
-0.0198933
-0.00150207
-0.0197759
-0.0013073
-0.0196698
-0.000991213
-0.019576
-0.00057902
-0.0195007
-0.0194906
6.27462e-13
-0.0010432
-0.0201693
-0.00112379
-0.0201279
-0.00115824
-0.020087
-0.00112876
-0.0200342
-0.0010452
-0.0199768
-0.00090408
-0.019917
-0.000716376
-0.0198575
-0.000489045
-0.0198033
-0.000225864
-0.0197639
-0.0197164
-9.37868e-13
-0.000198388
-0.0200879
-0.000272084
-0.0200542
-0.000327917
-0.0200312
-0.00036586
-0.0199963
-0.000377393
-0.0199653
-0.000362494
-0.0199319
-0.000317228
-0.0199028
-0.000242243
-0.0198783
-0.000146267
-0.0198598
-0.0198627
1.36258e-12
-0.000411786
-0.0200525
-0.000423245
-0.0200428
-0.000423558
-0.0200309
-0.000404789
-0.0200151
-0.000371592
-0.0199985
-0.000320805
-0.0199827
-0.000253246
-0.0199704
-0.000170808
-0.0199607
-7.66014e-05
-0.019954
-0.0199393
-2.20857e-12
-9.59928e-05
-0.0200129
-0.000137488
-0.0200013
-0.000172997
-0.0199954
-0.000199175
-0.0199889
-0.000209618
-0.0199881
-0.000201876
-0.0199904
-0.000176224
-0.019996
-0.000133848
-0.0200031
-7.84124e-05
-0.0200095
-0.0200177
2.30994e-12
-8.4808e-05
-0.0200152
-7.04242e-05
-0.0200156
-5.04681e-05
-0.0200153
-2.44482e-05
-0.0200149
8.77521e-07
-0.0200134
2.23151e-05
-0.0200118
3.56596e-05
-0.0200094
3.81986e-05
-0.0200057
2.82964e-05
-0.0199996
-0.0199894
-1.59914e-12
7.50839e-05
5.94344e-05
4.41272e-05
2.92184e-05
1.58328e-05
3.99348e-06
-5.36045e-06
-1.10182e-05
-1.05867e-05
1.47833e-12
0.00207838
-0.0187597
0.00201427
-0.0187473
0.00194078
-0.0187196
0.00185218
-0.0186739
0.00173862
-0.0186007
0.00158021
-0.0184784
0.00134448
-0.0182827
0.000998296
-0.0180182
0.00053647
-0.0177504
-0.0175804
1.12051e-11
0.00395179
-0.0186312
0.00381558
-0.0186111
0.00366562
-0.0185697
0.00349446
-0.0185028
0.00328607
-0.0183923
0.0030027
-0.0181951
0.00257598
-0.017856
0.00192922
-0.0173715
0.00104312
-0.0168643
-0.0165372
1.52695e-11
0.00499016
-0.0185112
0.00484958
-0.0184705
0.00468863
-0.0184087
0.00449992
-0.0183141
0.00426546
-0.0181578
0.00393728
-0.0178669
0.00341949
-0.0173382
0.00259197
-0.0165439
0.00141362
-0.0156859
-0.0151236
1.21193e-11
0.00614997
-0.0184105
0.00602513
-0.0183456
0.00587314
-0.0182567
0.00568034
-0.0181213
0.00542102
-0.0178985
0.0050319
-0.0174778
0.00439123
-0.0166975
0.00334168
-0.0154944
0.0018276
-0.0141719
-0.013296
1.46951e-11
0.00687139
-0.0186473
0.00705839
-0.0185326
0.00720474
-0.0184031
0.00727094
-0.0181875
0.00719749
-0.0178251
0.00686856
-0.0171488
0.00610028
-0.0159292
0.00468353
-0.0140776
0.00257267
-0.012061
-0.0107233
1.52072e-11
0.00619907
-0.0190446
0.00658915
-0.0189227
0.00697104
-0.018785
0.00728343
-0.0184999
0.00742224
-0.0179639
0.00722134
-0.0169479
0.0064543
-0.0151622
0.00492727
-0.0125506
0.00268759
-0.00982131
-0.00803575
2.51171e-11
0.00741785
-0.0204918
0.00888067
-0.0203855
0.0103148
-0.0202191
0.0115977
-0.0197827
0.0124909
-0.0188572
0.0126392
-0.0170962
0.0115325
-0.0140555
0.00880879
-0.00982691
0.00477057
-0.00578309
-0.00326518
5.7077e-11
0.00144452
-0.0217789
0.00291608
-0.0218571
0.00442876
-0.0217318
0.00594367
-0.0212976
0.00720425
-0.0201177
0.00789162
-0.0177836
0.00745586
-0.0136197
0.00550937
-0.00788042
0.00292457
-0.0031983
-0.000340605
5.29249e-11
0.0031234
-0.024747
0.00635542
-0.0250891
0.00961705
-0.0249934
0.0129036
-0.0245841
0.0158446
-0.0230588
0.0178322
-0.0197711
0.0177427
-0.0135303
0.0141643
-0.00430201
0.00699372
0.00397229
0.00665311
-5.17949e-11
-0.0229524
-0.0226984
-0.0223092
-0.0214105
-0.0191733
-0.0150142
-0.00884259
-0.0035236
-0.00178292
-5.70369e-11
7.50839e-05
0.0200152
5.94344e-05
0.0200156
4.41272e-05
0.0200153
2.92184e-05
0.0200149
1.58328e-05
0.0200134
3.99347e-06
0.0200118
-5.36046e-06
0.0200094
-1.10182e-05
0.0200057
-1.05867e-05
0.0199996
0.0199894
-8.4808e-05
0.0200129
-7.04242e-05
0.0200013
-5.04681e-05
0.0199954
-2.44482e-05
0.0199889
8.77523e-07
0.0199881
2.23151e-05
0.0199904
3.56596e-05
0.019996
3.81986e-05
0.0200031
2.82964e-05
0.0200095
0.0200177
-9.59928e-05
0.0200525
-0.000137488
0.0200428
-0.000172997
0.0200309
-0.000199175
0.0200151
-0.000209618
0.0199985
-0.000201876
0.0199827
-0.000176224
0.0199704
-0.000133848
0.0199607
-7.84124e-05
0.019954
0.0199393
-0.000411786
0.0200879
-0.000423245
0.0200542
-0.000423558
0.0200312
-0.000404789
0.0199963
-0.000371592
0.0199653
-0.000320805
0.0199319
-0.000253246
0.0199028
-0.000170808
0.0198783
-7.66014e-05
0.0198598
0.0198627
-0.000198388
0.0201693
-0.000272084
0.0201279
-0.000327917
0.020087
-0.00036586
0.0200342
-0.000377393
0.0199768
-0.000362494
0.019917
-0.000317228
0.0198575
-0.000242243
0.0198033
-0.000146267
0.0197639
0.0197164
-0.0010432
0.0203134
-0.00112379
0.0202085
-0.00115824
0.0201214
-0.00112876
0.0200048
-0.0010452
0.0198933
-0.00090408
0.0197759
-0.000716376
0.0196698
-0.000489045
0.019576
-0.000225864
0.0195007
0.0194906
-0.00109344
0.0205653
-0.00129929
0.0204144
-0.00145777
0.0202799
-0.0015594
0.0201064
-0.00157796
0.0199118
-0.00150207
0.0197
-0.0013073
0.0194751
-0.000991213
0.0192599
-0.00057902
0.0190885
0.0189115
-0.00266157
0.0210419
-0.0030288
0.0207816
-0.00328968
0.0205408
-0.00339421
0.0202109
-0.00333459
0.0198522
-0.00307242
0.0194378
-0.00260237
0.019005
-0.0018975
0.018555
-0.000976956
0.0181679
0.0179346
-0.00348075
0.0217307
-0.00408721
0.0213881
-0.00463087
0.0210845
-0.00507855
0.0206586
-0.00540437
0.020178
-0.00554205
0.0195755
-0.00530851
0.0187715
-0.00453375
0.0177803
-0.00295091
0.0165851
0.0149837
-0.00677462
-0.00806561
-0.00937951
-0.0105533
-0.0116097
-0.012127
-0.0120477
-0.0104601
-0.0075232
-0.0229524
0.024747
-0.0226984
0.0250891
-0.0223092
0.0249934
-0.0214105
0.0245841
-0.0191733
0.0230588
-0.0150142
0.0197711
-0.00884259
0.0135303
-0.0035236
0.00430201
-0.00178292
-0.00397229
-0.00665311
0.0031234
0.0217789
0.00635542
0.0218571
0.00961705
0.0217318
0.0129036
0.0212976
0.0158446
0.0201177
0.0178322
0.0177836
0.0177427
0.0136197
0.0141643
0.00788042
0.00699372
0.0031983
0.000340605
0.00144452
0.0204918
0.00291608
0.0203855
0.00442876
0.0202191
0.00594367
0.0197827
0.00720425
0.0188572
0.00789162
0.0170962
0.00745586
0.0140555
0.00550937
0.00982691
0.00292457
0.00578309
0.00326518
0.00741785
0.0190446
0.00888067
0.0189227
0.0103148
0.018785
0.0115977
0.0184999
0.0124909
0.0179639
0.0126392
0.0169479
0.0115325
0.0151622
0.00880879
0.0125506
0.00477057
0.00982131
0.00803575
0.00619907
0.0186473
0.00658915
0.0185326
0.00697104
0.0184031
0.00728343
0.0181875
0.00742224
0.0178251
0.00722134
0.0171488
0.0064543
0.0159292
0.00492727
0.0140776
0.00268759
0.012061
0.0107233
0.00687139
0.0184105
0.00705839
0.0183456
0.00720474
0.0182567
0.00727094
0.0181213
0.00719749
0.0178985
0.00686856
0.0174778
0.00610028
0.0166975
0.00468353
0.0154944
0.00257267
0.0141719
0.013296
0.00614997
0.0185112
0.00602513
0.0184705
0.00587314
0.0184087
0.00568034
0.0183141
0.00542102
0.0181578
0.0050319
0.0178669
0.00439123
0.0173382
0.00334168
0.0165439
0.0018276
0.0156859
0.0151236
0.00499016
0.0186312
0.00484958
0.0186111
0.00468863
0.0185697
0.00449992
0.0185028
0.00426546
0.0183923
0.00393728
0.0181951
0.00341949
0.017856
0.00259197
0.0173715
0.00141362
0.0168643
0.0165372
0.00395179
0.0187597
0.00381558
0.0187473
0.00366562
0.0187196
0.00349446
0.0186739
0.00328607
0.0186007
0.0030027
0.0184784
0.00257598
0.0182827
0.00192922
0.0180182
0.00104312
0.0177504
0.0175804
0.00207838
0.00201427
0.00194078
0.00185218
0.00173862
0.00158021
0.00134448
0.000998296
0.00053647
)
;

boundaryField
{
    inlet
    {
        type            calculated;
        value           uniform -0.02;
    }
    outlet
    {
        type            calculated;
        value           nonuniform List<scalar> 
20
(
0.0188169
0.0188114
0.0187931
0.0187625
0.0187143
0.0186368
0.0185184
0.0183644
0.0182122
0.0181168
0.0188169
0.0188114
0.0187931
0.0187625
0.0187143
0.0186368
0.0185184
0.0183644
0.0182122
0.0181168
)
;
    }
    polygon
    {
        type            calculated;
        value           uniform 0;
    }
    top
    {
        type            symmetryPlane;
        value           uniform 0;
    }
    bottom
    {
        type            symmetryPlane;
        value           uniform 0;
    }
    outside
    {
        type            calculated;
        value           nonuniform List<scalar> 
80
(
0.000724185
0.000738751
0.000752353
0.000764878
0.000776693
0.000786892
0.000797187
0.000804102
0.000814636
0.000815503
0.000588852
0.000605999
0.000621084
0.000635556
0.00064956
0.000662716
0.000675827
0.000687266
0.000700197
0.000708246
0.000708246
0.000700197
0.000687266
0.000675827
0.000662716
0.00064956
0.000635556
0.000621084
0.000605999
0.000588852
0.000815503
0.000814636
0.000804102
0.000797187
0.000786892
0.000776693
0.000764878
0.000752353
0.000738751
0.000724185
0.00547936
0.00279204
0.00218497
0.000841537
0.000899008
0.000117042
0.000376354
5.64081e-05
8.71248e-05
-9.02943e-05
-0.00213554
-0.00408034
-0.00511011
-0.00625067
-0.00663461
-0.00580175
-0.00597067
-0.000157383
-0.000155357
0.0234955
-9.02943e-05
8.71248e-05
5.64081e-05
0.000376354
0.000117042
0.000899008
0.000841537
0.00218497
0.00279204
0.00547936
0.0234955
-0.000155357
-0.000157383
-0.00597067
-0.00580175
-0.00663461
-0.00625067
-0.00511011
-0.00408034
-0.00213554
)
;
    }
}


// ************************************************************************* //
