/*--------------------------------*- C++ -*----------------------------------*\
  =========                 |
  \\      /  F ield         | OpenFOAM: The Open Source CFD Toolbox
   \\    /   O peration     | Website:  https://openfoam.org
    \\  /    A nd           | Version:  10
     \\/     M anipulation  |
\*---------------------------------------------------------------------------*/
FoamFile
{
    format      ascii;
    class       volVectorField;
    location    "10";
    object      U;
}
// * * * * * * * * * * * * * * * * * * * * * * * * * * * * * * * * * * * * * //

dimensions      [0 1 -1 0 0 0 0];

internalField   nonuniform List<vector> 
800
(
(1.21865 0.146004 -3.97261e-17)
(1.21535 0.179206 8.17838e-18)
(1.20937 0.192252 1.73366e-18)
(1.20589 0.218788 -1.67879e-17)
(1.20322 0.251187 3.03373e-17)
(1.20468 0.272717 5.40481e-18)
(1.20102 0.347974 2.08494e-17)
(1.23927 0.365116 -2.08701e-17)
(1.12974 0.433805 6.39505e-18)
(1.09755 0.278998 5.2859e-17)
(1.22487 0.148861 -5.83243e-17)
(1.22165 0.181601 3.86236e-18)
(1.21621 0.195353 -3.84079e-17)
(1.21332 0.222824 -1.39055e-17)
(1.21241 0.255471 2.44059e-17)
(1.21409 0.281265 -4.9988e-18)
(1.21373 0.349771 -3.28709e-17)
(1.23786 0.36623 -4.16853e-19)
(1.06691 0.410131 5.95758e-17)
(0.47843 0.214907 -3.3804e-17)
(1.23061 0.151535 -5.01464e-17)
(1.22747 0.183801 3.60514e-18)
(1.2228 0.198144 -7.03684e-18)
(1.22119 0.22639 4.4151e-18)
(1.22261 0.259137 2.01394e-17)
(1.22769 0.287371 -4.41649e-18)
(1.22693 0.346409 1.00281e-17)
(1.21145 0.349858 4.85503e-18)
(0.940007 0.35116 4.10861e-17)
(0.28175 0.0999032 -3.11342e-17)
(1.23593 0.153981 -3.59023e-17)
(1.23306 0.185776 3.34045e-18)
(1.22923 0.200522 -2.22142e-19)
(1.22901 0.22919 3.82177e-17)
(1.23174 0.261262 1.44765e-17)
(1.23776 0.289851 -3.97096e-19)
(1.22934 0.338253 7.11895e-18)
(1.16443 0.330494 1.08278e-17)
(0.756127 0.298698 3.09343e-17)
(0.0527256 0.0144965 -1.39276e-17)
(1.24109 0.156267 -3.97057e-17)
(1.23865 0.187497 3.03191e-18)
(1.23565 0.202488 -5.48022e-19)
(1.237 0.231544 1.82899e-17)
(1.24144 0.262925 8.50365e-18)
(1.24645 0.290037 -7.99311e-18)
(1.22192 0.325562 1.37599e-17)
(1.09468 0.308053 1.07525e-17)
(0.557513 0.238711 1.7947e-17)
(-0.0515503 -0.00375777 -4.95214e-18)
(1.24585 0.158214 -5.09135e-18)
(1.244 0.188946 2.4885e-18)
(1.24195 0.204071 4.4769e-18)
(1.24461 0.232993 4.56087e-17)
(1.24899 0.262431 6.75693e-18)
(1.2471 0.285632 1.22275e-17)
(1.19962 0.309155 1.86968e-18)
(1.00036 0.283124 1.22598e-17)
(0.375908 0.183001 9.06807e-18)
(-0.136614 0.0469372 -1.12882e-18)
(1.25066 0.160165 -6.65994e-18)
(1.2495 0.190124 4.64502e-18)
(1.24822 0.205164 1.0974e-18)
(1.25199 0.233952 3.4316e-17)
(1.25685 0.262025 -1.99862e-18)
(1.24803 0.280514 -2.50502e-17)
(1.17392 0.291922 2.06821e-17)
(0.887204 0.253321 8.19131e-18)
(0.22349 0.140615 -3.19232e-18)
(-0.175196 0.109606 -2.13085e-18)
(1.25465 0.161422 1.91832e-19)
(1.2543 0.190953 -7.25512e-19)
(1.2542 0.20604 1.77747e-17)
(1.25885 0.234035 3.86965e-17)
(1.26089 0.258324 -4.40855e-18)
(1.23515 0.268259 -9.1494e-18)
(1.12442 0.270865 -1.31477e-17)
(0.756883 0.223237 1.37425e-17)
(0.0984849 0.142934 -4.8405e-17)
(-0.201413 0.160424 -7.81784e-18)
(1.25939 0.163378 -1.38512e-17)
(1.25993 0.191645 9.59581e-18)
(1.26023 0.20618 -1.38471e-17)
(1.26471 0.233314 4.88705e-18)
(1.26444 0.25575 -6.05578e-18)
(1.22742 0.260224 -3.38013e-17)
(1.08581 0.254965 6.13574e-17)
(0.646908 0.196141 -1.17527e-17)
(-0.000781672 0.188418 -1.75124e-16)
(-0.22269 0.191689 -5.22859e-18)
(1.26194 0.163264 -3.66397e-17)
(1.26354 0.191611 -1.64687e-17)
(1.26549 0.206536 -1.03605e-17)
(1.27079 0.232443 2.85187e-18)
(1.26433 0.248728 -8.19891e-18)
(1.19991 0.239454 -2.57113e-17)
(1.00037 0.223754 1.55549e-18)
(0.508097 0.169507 -2.60589e-17)
(-0.0834733 0.229554 -2.09094e-16)
(-0.22374 0.202496 -1.06297e-17)
(1.15225 0.119719 -4.41171e-17)
(1.13537 0.161202 4.29585e-19)
(1.1208 0.176528 -3.40213e-18)
(1.09291 0.212299 -2.79427e-17)
(1.06299 0.242866 -1.37969e-19)
(1.00723 0.282607 -6.66493e-18)
(0.93816 0.331742 2.19493e-18)
(0.813616 0.373458 8.1485e-18)
(0.682168 0.441117 2.04787e-17)
(0.363955 0.306648 3.10551e-18)
(1.15965 0.12279 -3.555e-17)
(1.14391 0.164282 -1.03856e-18)
(1.13065 0.180031 -2.01305e-19)
(1.10481 0.216474 -2.1301e-17)
(1.07859 0.249251 -1.0104e-18)
(1.02774 0.291297 1.35423e-18)
(0.968203 0.347925 -1.2039e-18)
(0.855966 0.393382 6.76361e-18)
(0.739268 0.48206 1.52305e-17)
(0.42536 0.340395 4.37872e-18)
(1.16666 0.125782 -3.34684e-17)
(1.15253 0.167018 3.46219e-18)
(1.14078 0.182974 -6.61556e-18)
(1.11823 0.219567 -2.41162e-17)
(1.09673 0.253941 -1.82655e-18)
(1.05344 0.297112 -4.27966e-18)
(1.0032 0.360761 6.55547e-18)
(0.902399 0.410643 6.04927e-18)
(0.783081 0.51908 1.37152e-17)
(0.455021 0.370094 1.01599e-18)
(1.17314 0.128639 -1.80959e-17)
(1.1607 0.169372 -8.12536e-18)
(1.15023 0.18531 1.09742e-17)
(1.13089 0.221538 -4.85439e-18)
(1.1133 0.25701 -2.15482e-18)
(1.07742 0.30015 7.85909e-18)
(1.0341 0.370302 -1.30832e-17)
(0.949016 0.422441 3.71219e-18)
(0.832449 0.554393 3.78771e-18)
(0.50166 0.397452 1.65548e-18)
(1.17949 0.1314 3.30592e-18)
(1.16863 0.171442 1.82763e-17)
(1.15929 0.187222 8.25582e-18)
(1.14287 0.222766 -4.59421e-18)
(1.12886 0.258813 -1.39509e-18)
(1.1001 0.301268 5.81136e-18)
(1.06505 0.376376 1.10345e-17)
(0.997575 0.430011 2.40497e-18)
(0.887612 0.57785 1.57667e-17)
(0.544193 0.416675 2.09326e-18)
(1.18592 0.13399 4.342e-18)
(1.1766 0.173107 -3.64022e-18)
(1.16829 0.188508 7.98494e-18)
(1.15475 0.222783 -3.72094e-18)
(1.14408 0.258881 -8.86231e-19)
(1.12285 0.298677 5.32402e-18)
(1.09616 0.377645 -8.68346e-18)
(1.04913 0.428026 3.48398e-18)
(0.947197 0.605793 -9.55302e-19)
(0.627284 0.440606 2.69116e-18)
(1.19248 0.136568 1.0696e-18)
(1.18459 0.174659 -3.19435e-18)
(1.1772 0.18966 2.48394e-18)
(1.16631 0.222632 -2.51945e-18)
(1.15885 0.258373 -8.00357e-19)
(1.14382 0.295585 5.99084e-18)
(1.12685 0.376548 -7.29532e-18)
(1.09678 0.425381 -3.81625e-18)
(1.00898 0.604833 -4.91711e-18)
(0.662636 0.436616 -4.17466e-18)
(1.19902 0.138804 8.28322e-18)
(1.19263 0.175551 -5.84305e-19)
(1.18598 0.189757 1.13963e-17)
(1.17778 0.220383 -2.79995e-18)
(1.17244 0.255374 -7.33823e-19)
(1.16477 0.286183 2.89217e-18)
(1.15249 0.368324 -5.06018e-18)
(1.14722 0.404969 7.62616e-18)
(1.08391 0.625696 5.63002e-18)
(0.841141 0.467103 1.66946e-17)
(1.2056 0.141335 -1.022e-17)
(1.20044 0.176947 -4.93896e-18)
(1.19424 0.1908 -1.2192e-17)
(1.18808 0.220225 3.79174e-19)
(1.18453 0.254416 -7.26085e-19)
(1.18103 0.2829 4.47155e-18)
(1.17534 0.36372 -5.18549e-18)
(1.18724 0.395065 -1.98748e-17)
(1.128 0.578794 -1.08781e-17)
(0.855124 0.40939 -3.7113e-17)
(1.21199 0.142884 -2.97417e-17)
(1.20833 0.176641 6.77676e-18)
(1.20238 0.188983 -1.65726e-17)
(1.19865 0.214374 -1.07578e-17)
(1.19528 0.247143 -5.74004e-19)
(1.19964 0.263904 2.39383e-19)
(1.19126 0.342653 3.73462e-18)
(1.22998 0.352919 -1.72156e-17)
(1.21069 0.584662 1.43812e-17)
(1.22034 0.445911 -2.58474e-17)
(1.21199 -0.142884 -2.44658e-17)
(1.20833 -0.176641 -2.10499e-17)
(1.20238 -0.188983 2.85178e-18)
(1.19865 -0.214374 -1.32355e-17)
(1.19528 -0.247143 -9.44294e-18)
(1.19964 -0.263904 4.69309e-18)
(1.19126 -0.342653 -1.62496e-17)
(1.22998 -0.352919 1.91184e-18)
(1.21069 -0.584662 1.85364e-17)
(1.22034 -0.445911 -1.94116e-18)
(1.2056 -0.141335 -5.32044e-18)
(1.20044 -0.176947 -1.03276e-17)
(1.19424 -0.1908 -3.38164e-18)
(1.18808 -0.220225 -2.23421e-17)
(1.18453 -0.254416 -6.06696e-18)
(1.18103 -0.2829 -1.66194e-18)
(1.17534 -0.36372 -1.15889e-17)
(1.18724 -0.395065 -9.43753e-18)
(1.128 -0.578794 1.96064e-17)
(0.855124 -0.40939 -2.94424e-18)
(1.19902 -0.138804 -1.67457e-17)
(1.19263 -0.175551 -1.75971e-17)
(1.18598 -0.189757 -2.40858e-19)
(1.17778 -0.220383 -2.46781e-17)
(1.17244 -0.255374 2.28839e-17)
(1.16477 -0.286183 1.14721e-18)
(1.15249 -0.368324 -1.66296e-17)
(1.14722 -0.404969 -5.1723e-18)
(1.08391 -0.625696 2.62646e-17)
(0.841141 -0.467103 -6.12159e-18)
(1.19248 -0.136568 1.21942e-17)
(1.18459 -0.174659 -1.90354e-17)
(1.1772 -0.18966 -6.9744e-19)
(1.16631 -0.222632 -5.36355e-18)
(1.15885 -0.258373 1.80686e-17)
(1.14382 -0.295585 -1.26112e-18)
(1.12685 -0.376548 1.1047e-17)
(1.09678 -0.425381 -8.25139e-18)
(1.00898 -0.604833 -1.04838e-17)
(0.662636 -0.436616 -1.02158e-17)
(1.18592 -0.13399 1.27318e-18)
(1.1766 -0.173107 -2.41563e-17)
(1.16829 -0.188508 7.85203e-20)
(1.15475 -0.222783 6.74878e-18)
(1.14408 -0.258881 2.64573e-17)
(1.12285 -0.298677 -1.15972e-18)
(1.09616 -0.377645 -8.1305e-19)
(1.04913 -0.428026 8.94195e-18)
(0.947197 -0.605793 8.56805e-18)
(0.627284 -0.440606 -1.98236e-17)
(1.17949 -0.1314 7.42119e-18)
(1.16863 -0.171442 -2.84298e-17)
(1.15929 -0.187222 8.90716e-19)
(1.14287 -0.222766 3.87383e-18)
(1.12886 -0.258813 6.85761e-18)
(1.1001 -0.301268 1.5119e-17)
(1.06505 -0.376376 5.58737e-18)
(0.997575 -0.430011 3.08578e-18)
(0.887612 -0.57785 1.07427e-18)
(0.544193 -0.416675 -1.04587e-17)
(1.17314 -0.128639 6.53682e-18)
(1.1607 -0.169372 -1.3242e-17)
(1.15023 -0.18531 2.16113e-18)
(1.13089 -0.221538 6.19091e-18)
(1.1133 -0.25701 5.32766e-20)
(1.07742 -0.30015 -5.75974e-18)
(1.0341 -0.370302 -1.34712e-17)
(0.949016 -0.422441 6.16674e-18)
(0.832449 -0.554393 5.97815e-18)
(0.50166 -0.397452 1.77544e-17)
(1.16666 -0.125782 8.22295e-18)
(1.15253 -0.167018 -2.46972e-17)
(1.14078 -0.182974 2.10062e-18)
(1.11823 -0.219567 5.84871e-18)
(1.09673 -0.253941 2.79432e-18)
(1.05344 -0.297112 2.7655e-18)
(1.0032 -0.360761 4.50717e-18)
(0.902399 -0.410643 8.55598e-18)
(0.783081 -0.51908 6.42056e-18)
(0.455021 -0.370094 -3.56542e-17)
(1.15965 -0.12279 1.07596e-17)
(1.14391 -0.164282 -2.60126e-17)
(1.13065 -0.180031 2.92303e-18)
(1.10481 -0.216474 7.74396e-18)
(1.07859 -0.249251 2.07152e-18)
(1.02774 -0.291297 -4.49456e-19)
(0.968203 -0.347925 -3.20865e-18)
(0.855966 -0.393382 1.13099e-17)
(0.739268 -0.48206 8.20709e-18)
(0.42536 -0.340395 -5.41611e-17)
(1.15225 -0.119719 -5.84592e-18)
(1.13537 -0.161202 -4.87221e-17)
(1.1208 -0.176528 1.98919e-17)
(1.09291 -0.212299 -4.2912e-18)
(1.06299 -0.242866 2.83236e-18)
(1.00723 -0.282607 8.32978e-19)
(0.93816 -0.331742 -2.70015e-19)
(0.813616 -0.373458 7.03528e-19)
(0.682168 -0.441117 -1.48799e-17)
(0.363955 -0.306648 -5.03684e-18)
(1.26194 -0.163264 -7.59009e-18)
(1.26354 -0.191611 2.70957e-17)
(1.26549 -0.206536 1.98093e-18)
(1.27079 -0.232443 -1.55258e-17)
(1.26433 -0.248728 -1.22602e-17)
(1.19991 -0.239454 -1.45967e-18)
(1.00037 -0.223754 -1.43202e-17)
(0.508097 -0.169507 -3.96896e-17)
(-0.0834733 -0.229554 -4.82781e-18)
(-0.22374 -0.202496 -1.34276e-16)
(1.25939 -0.163378 -1.06007e-17)
(1.25993 -0.191645 5.03279e-18)
(1.26023 -0.20618 2.76341e-18)
(1.26471 -0.233314 -1.41885e-17)
(1.26444 -0.25575 1.65069e-17)
(1.22742 -0.260224 -5.92867e-18)
(1.08581 -0.254965 4.51767e-17)
(0.646908 -0.196141 -5.15485e-17)
(-0.000781673 -0.188418 1.79719e-17)
(-0.22269 -0.191689 1.3307e-17)
(1.25465 -0.161422 -1.34212e-17)
(1.2543 -0.190953 1.78123e-17)
(1.2542 -0.20604 6.5605e-18)
(1.25885 -0.234035 -2.09401e-17)
(1.26089 -0.258324 4.99038e-18)
(1.23515 -0.268259 -1.01318e-17)
(1.12442 -0.270865 -2.03697e-17)
(0.756883 -0.223237 2.94337e-17)
(0.0984849 -0.142934 4.29117e-17)
(-0.201413 -0.160424 3.34206e-18)
(1.25066 -0.160165 -1.74468e-17)
(1.2495 -0.190124 1.6125e-17)
(1.24822 -0.205164 8.80875e-18)
(1.25199 -0.233952 -2.32271e-17)
(1.25685 -0.262025 1.13028e-17)
(1.24803 -0.280514 -7.38587e-18)
(1.17392 -0.291922 -8.32796e-19)
(0.887204 -0.253321 6.37935e-18)
(0.22349 -0.140615 8.74387e-17)
(-0.175196 -0.109606 -8.05964e-17)
(1.24585 -0.158214 1.08366e-17)
(1.244 -0.188946 5.33458e-17)
(1.24195 -0.204071 -1.82521e-17)
(1.24461 -0.232993 4.07858e-18)
(1.24899 -0.262431 9.86531e-18)
(1.2471 -0.285632 -1.02297e-17)
(1.19962 -0.309155 -1.57467e-17)
(1.00036 -0.283124 -5.73129e-17)
(0.375908 -0.183001 8.1255e-18)
(-0.136614 -0.0469372 -1.33742e-17)
(1.24109 -0.156267 -4.19337e-18)
(1.23865 -0.187497 2.00651e-17)
(1.23565 -0.202488 -7.38945e-18)
(1.237 -0.231544 -1.07973e-17)
(1.24144 -0.262925 1.47188e-17)
(1.24645 -0.290037 -4.33179e-18)
(1.22192 -0.325562 -1.3286e-18)
(1.09468 -0.308053 -4.45211e-17)
(0.557513 -0.238711 -2.68228e-18)
(-0.0515503 0.00375777 9.13458e-17)
(1.23593 -0.153981 8.56321e-19)
(1.23306 -0.185776 4.33045e-17)
(1.22923 -0.200522 -1.29599e-17)
(1.22901 -0.22919 -8.8171e-18)
(1.23174 -0.261262 1.63139e-17)
(1.23776 -0.289851 -7.53585e-18)
(1.22934 -0.338253 -9.75949e-19)
(1.16443 -0.330494 -4.72166e-18)
(0.756127 -0.298698 -2.23704e-17)
(0.0527256 -0.0144965 3.18464e-17)
(1.23061 -0.151535 -5.57758e-18)
(1.22747 -0.183801 1.33022e-17)
(1.2228 -0.198144 -1.09281e-17)
(1.22119 -0.22639 -1.61904e-17)
(1.22261 -0.259137 1.98645e-17)
(1.22769 -0.287371 -6.50054e-18)
(1.22693 -0.346409 -3.11587e-18)
(1.21145 -0.349858 -1.88972e-17)
(0.940007 -0.35116 -3.21282e-17)
(0.28175 -0.0999032 1.24457e-17)
(1.22487 -0.148861 -4.77285e-18)
(1.22165 -0.181601 3.0638e-18)
(1.21621 -0.195353 -1.26678e-17)
(1.21332 -0.222824 -2.02861e-17)
(1.21241 -0.255471 -1.31512e-17)
(1.21409 -0.281265 -6.9005e-18)
(1.21373 -0.349771 1.8803e-18)
(1.23786 -0.36623 -5.04251e-18)
(1.06691 -0.410131 3.15008e-17)
(0.47843 -0.214907 -6.49228e-18)
(1.21865 -0.146004 -6.01041e-18)
(1.21535 -0.179206 1.10693e-17)
(1.20937 -0.192252 -1.24066e-17)
(1.20589 -0.218788 -2.22759e-17)
(1.20322 -0.251187 -2.10641e-18)
(1.20468 -0.272717 -1.06516e-17)
(1.20102 -0.347974 -3.27231e-19)
(1.23927 -0.365116 -2.0709e-17)
(1.12974 -0.433805 8.7941e-18)
(1.09755 -0.278998 1.6883e-18)
(1.10952 -0.101352 3.74742e-17)
(1.08944 -0.141723 2.82913e-17)
(1.0719 -0.154384 1.2656e-17)
(1.04509 -0.184643 1.71708e-17)
(1.01471 -0.201226 4.74303e-18)
(0.970501 -0.221043 -2.95976e-18)
(0.915511 -0.221669 -1.14229e-17)
(0.831935 -0.214955 3.71923e-17)
(0.748096 -0.166245 -8.53142e-18)
(0.575904 -0.10146 -7.82881e-17)
(1.06809 -0.051862 -2.25672e-17)
(1.05433 -0.0727135 3.24528e-18)
(1.04176 -0.0775467 -9.10777e-18)
(1.02507 -0.089612 -2.78545e-18)
(1.00718 -0.0960589 5.3488e-18)
(0.986861 -0.0994024 -7.96587e-19)
(0.964187 -0.103149 3.85957e-18)
(0.941703 -0.0881224 -5.24372e-18)
(0.916225 -0.0783183 2.06255e-18)
(0.916281 -0.0269659 1.67177e-17)
(1.0363 -0.0404889 4.93293e-18)
(1.02559 -0.0549125 1.95914e-18)
(1.01517 -0.0562836 2.38381e-18)
(1.00017 -0.0625957 4.54019e-18)
(0.983184 -0.0611693 5.66337e-18)
(0.963119 -0.060235 -9.3494e-18)
(0.942513 -0.0509311 1.45541e-17)
(0.920123 -0.0439822 3.8353e-18)
(0.904149 -0.0244678 1.15244e-18)
(0.87586 -0.0106619 2.26769e-17)
(1.02231 -0.0156978 -1.01876e-18)
(1.01707 -0.023313 -9.96021e-19)
(1.01335 -0.024531 -3.13409e-19)
(1.00905 -0.0279887 4.52646e-18)
(1.00584 -0.0290478 5.82517e-18)
(1.00356 -0.0279687 -6.79743e-18)
(1.00145 -0.0268882 7.38996e-18)
(1.00132 -0.0203142 1.25009e-17)
(1.00039 -0.0158944 7.34943e-19)
(1.01017 -0.00498113 1.01776e-17)
(1.01015 -0.0166331 1.94829e-18)
(1.00555 -0.0207913 -2.61839e-18)
(1.00083 -0.0204388 1.02183e-19)
(0.994015 -0.0214271 -6.51292e-19)
(0.986209 -0.0196835 -7.19809e-19)
(0.977114 -0.0183067 1.82413e-18)
(0.968351 -0.0144134 -9.87776e-18)
(0.959155 -0.0117079 -2.52264e-18)
(0.951884 -0.00595719 -1.00662e-18)
(0.940727 -0.00223465 -1.25165e-17)
(1.00728 -0.00221739 -6.16421e-20)
(1.00637 -0.00479915 1.56818e-19)
(1.00667 -0.00526715 1.41205e-19)
(1.0075 -0.00650482 7.82792e-19)
(1.0093 -0.00690765 1.40136e-18)
(1.01195 -0.00670756 6.40141e-18)
(1.01467 -0.00654537 -4.65592e-18)
(1.01816 -0.00491015 1.10326e-18)
(1.02151 -0.00394054 1.13683e-19)
(1.02784 -0.0013473 -5.00562e-18)
(1.00233 -0.00694028 3.11767e-20)
(1.0004 -0.00786774 -1.73873e-19)
(0.997919 -0.00763636 2.11182e-19)
(0.99396 -0.00768728 5.00655e-18)
(0.989138 -0.00703411 5.19722e-18)
(0.983356 -0.00647447 3.28826e-19)
(0.977686 -0.0051471 5.49071e-18)
(0.971831 -0.00407946 6.00432e-18)
(0.966544 -0.00210269 4.77597e-19)
(0.96049 -0.000685932 5.8645e-18)
(1.0026 -0.00106357 1.61443e-20)
(1.00285 -0.00234182 -1.37255e-19)
(1.00394 -0.00273326 -7.69844e-20)
(1.00593 -0.00349113 -7.04458e-19)
(1.00894 -0.00379755 -5.79349e-19)
(1.0129 -0.0037825 5.26282e-18)
(1.01725 -0.00358327 -6.62878e-18)
(1.02202 -0.00279775 -3.45155e-19)
(1.02661 -0.00208254 -2.60626e-19)
(1.03116 -0.000759073 -7.11497e-18)
(0.999553 -0.00160687 1.04121e-19)
(0.998488 -0.00144236 1.38798e-19)
(0.996913 -0.00113736 -5.83447e-20)
(0.994517 -0.000691834 1.78734e-19)
(0.991522 -0.000185761 1.21172e-19)
(0.987941 0.000216631 -6.63138e-19)
(0.984186 0.000605165 1.12722e-18)
(0.9802 0.000683933 5.16316e-18)
(0.97625 0.000714079 3.1461e-19)
(0.972542 0.000312205 8.01308e-19)
(1.0013 0.00161365 2.69812e-20)
(1.0022 0.00115939 1.68909e-20)
(1.00365 0.000974891 -5.66101e-20)
(1.00584 0.000648808 -3.92752e-20)
(1.00861 0.000403134 -3.48219e-20)
(1.01192 0.000180965 9.14384e-20)
(1.01538 -3.89301e-05 -1.13805e-19)
(1.01893 -0.000153087 -7.18435e-19)
(1.02226 -0.000249687 -1.21984e-19)
(1.02493 -0.000132351 -2.46509e-21)
(0.94085 0.0185107 1.85823e-20)
(0.940576 0.0177306 5.20746e-21)
(0.939662 0.0172477 5.01841e-20)
(0.938133 0.016528 8.36928e-19)
(0.935719 0.0156821 2.08396e-20)
(0.931849 0.0145602 -7.80111e-19)
(0.925928 0.0129299 -5.07317e-20)
(0.918226 0.0104577 -4.83597e-20)
(0.910617 0.006905 -7.06304e-19)
(0.905848 0.00242353 6.70292e-22)
(0.930409 0.0353348 -2.42967e-20)
(0.92955 0.033621 2.61364e-20)
(0.927689 0.0326125 4.32925e-20)
(0.924639 0.0311896 1.13743e-19)
(0.91972 0.0295897 -1.41654e-20)
(0.91136 0.0275762 -2.38968e-19)
(0.89771 0.0246751 -2.35664e-20)
(0.878972 0.0201574 -2.03914e-19)
(0.859812 0.0134253 -2.64031e-19)
(0.847588 0.00473515 2.03385e-19)
(0.938934 0.0442867 3.49286e-20)
(0.937658 0.0427207 8.17598e-19)
(0.935392 0.0415174 1.37086e-19)
(0.931769 0.0400438 1.93702e-18)
(0.925655 0.0382378 -4.91031e-20)
(0.914293 0.0359608 -2.62451e-18)
(0.894017 0.0325543 -4.03417e-19)
(0.864258 0.0269558 -1.08229e-18)
(0.832647 0.0181608 -2.35397e-18)
(0.812127 0.0064485 -3.76996e-19)
(0.904196 0.0541613 2.50843e-19)
(0.901524 0.0530241 1.0003e-17)
(0.897587 0.0517079 -9.49416e-20)
(0.891717 0.0504033 -4.24797e-19)
(0.88219 0.0484492 -1.11225e-18)
(0.864462 0.0458714 -1.11726e-17)
(0.831925 0.041739 -2.00944e-18)
(0.782381 0.0347264 -1.25582e-17)
(0.728348 0.023475 -1.29702e-17)
(0.692745 0.00835688 -1.97019e-18)
(0.946263 0.057892 1.32325e-19)
(0.942336 0.061218 -1.11819e-19)
(0.937428 0.0617899 -7.95138e-18)
(0.929799 0.0633385 -8.94941e-19)
(0.917089 0.063207 -8.86596e-18)
(0.892728 0.0619214 -4.20831e-19)
(0.84713 0.0576321 -8.73226e-18)
(0.776111 0.0485614 -1.12523e-18)
(0.697566 0.0330174 1.35393e-19)
(0.645347 0.0118024 -7.14834e-18)
(0.907509 0.0504993 3.14629e-19)
(0.899977 0.0568924 1.12787e-17)
(0.891833 0.0580879 -7.42434e-19)
(0.877773 0.0628142 -4.20664e-19)
(0.854165 0.0641601 -1.40935e-17)
(0.810923 0.0648207 -1.73791e-18)
(0.73479 0.0610673 -1.62091e-17)
(0.621168 0.0513826 -1.69441e-17)
(0.498742 0.0344574 -1.82246e-18)
(0.417712 0.0122459 -1.71679e-17)
(1.00838 0.0526616 -2.36701e-19)
(1.00388 0.0748369 -2.01016e-18)
(0.998421 0.0808734 -2.39708e-17)
(0.9842 0.0974628 -1.18527e-18)
(0.954341 0.104941 -2.4892e-17)
(0.895934 0.111672 -2.91266e-18)
(0.793096 0.108448 -2.6931e-17)
(0.644672 0.0922559 -2.13071e-18)
(0.493018 0.0614506 -8.67596e-19)
(0.394601 0.0217798 -2.40866e-17)
(1.02907 0.00146902 -2.45981e-19)
(1.02232 0.023035 -5.07699e-18)
(1.01075 0.0284372 9.42596e-19)
(0.980761 0.0477763 1.27359e-17)
(0.917737 0.0563641 1.6881e-18)
(0.800108 0.0682757 -3.88582e-18)
(0.599693 0.0697198 1.26754e-18)
(0.32716 0.0594699 3.47997e-18)
(0.0769118 0.0369179 -5.61598e-18)
(-0.074361 0.0135595 9.65388e-20)
(1.15732 0.00160443 -1.72779e-18)
(1.17375 0.0506955 -5.05653e-17)
(1.17331 0.0621775 -1.32453e-17)
(1.16105 0.102812 8.90535e-18)
(1.10654 0.123097 -1.83599e-17)
(0.990781 0.150617 6.9893e-17)
(0.773647 0.158479 -2.65193e-18)
(0.469593 0.150832 8.73428e-17)
(0.248368 0.0972569 1.01438e-16)
(0.110216 0.0255921 1.86258e-17)
(1.328 -0.202284 1.05779e-17)
(1.34507 -0.199361 8.57137e-17)
(1.33642 -0.194199 -8.36978e-17)
(1.30763 -0.193331 8.27201e-17)
(1.20967 -0.181072 -1.324e-16)
(0.995863 -0.151739 -1.35147e-16)
(0.585657 -0.111478 -1.31618e-16)
(-0.0359012 -0.0412388 -2.0968e-17)
(-0.642894 -0.0211361 -1.57792e-16)
(-0.769413 -0.00856033 -1.45679e-16)
(1.0013 -0.00161365 -3.86354e-18)
(1.0022 -0.00115939 -2.30703e-19)
(1.00365 -0.000974891 6.03208e-19)
(1.00584 -0.000648808 -9.96859e-20)
(1.00861 -0.000403134 4.73724e-19)
(1.01192 -0.000180965 -4.04053e-18)
(1.01538 3.89302e-05 -9.61476e-20)
(1.01893 0.000153087 5.89596e-19)
(1.02226 0.000249687 1.43756e-19)
(1.02493 0.000132351 6.56952e-19)
(0.999553 0.00160687 -5.2257e-18)
(0.998488 0.00144236 3.36543e-19)
(0.996913 0.00113736 -4.63078e-18)
(0.994517 0.000691833 2.67683e-19)
(0.991522 0.000185761 -5.10692e-18)
(0.987941 -0.000216631 -5.80871e-18)
(0.984186 -0.000605165 3.20085e-19)
(0.9802 -0.000683933 -5.091e-18)
(0.97625 -0.000714079 -5.95614e-19)
(0.972542 -0.000312205 -5.05472e-18)
(1.0026 0.00106357 -1.09912e-18)
(1.00285 0.00234182 -4.8977e-18)
(1.00394 0.00273326 -1.29361e-18)
(1.00593 0.00349113 -5.28948e-18)
(1.00894 0.00379755 -1.10038e-18)
(1.0129 0.0037825 -1.17139e-18)
(1.01725 0.00358327 -6.11806e-18)
(1.02202 0.00279775 -8.61864e-19)
(1.02661 0.00208254 7.89843e-19)
(1.03116 0.000759073 -9.01794e-19)
(1.00233 0.00694028 -5.88971e-20)
(1.0004 0.00786774 -6.98994e-20)
(0.997919 0.00763636 4.11174e-20)
(0.99396 0.00768728 -2.1525e-19)
(0.989138 0.00703411 -1.71957e-19)
(0.983356 0.00647447 -3.60563e-20)
(0.977686 0.0051471 -1.99682e-20)
(0.971831 0.00407946 -5.52126e-19)
(0.966544 0.00210269 -6.16408e-18)
(0.96049 0.000685932 -1.80281e-19)
(1.00728 0.00221739 -2.66191e-19)
(1.00637 0.00479915 -3.94386e-18)
(1.00667 0.00526715 -2.63644e-19)
(1.0075 0.00650482 -4.76508e-18)
(1.0093 0.00690765 -1.69369e-20)
(1.01195 0.00670756 -4.50684e-20)
(1.01467 0.00654537 -6.00841e-18)
(1.01816 0.00491015 1.75492e-19)
(1.02151 0.00394054 5.03791e-19)
(1.02784 0.0013473 3.80508e-19)
(1.01015 0.0166331 1.62572e-19)
(1.00555 0.0207913 -3.33003e-18)
(1.00083 0.0204388 -5.95268e-19)
(0.994015 0.0214271 -5.17673e-18)
(0.986209 0.0196835 -3.99034e-19)
(0.977114 0.0183067 -1.66859e-18)
(0.968351 0.0144134 -8.98481e-18)
(0.959155 0.0117079 -3.11541e-18)
(0.951884 0.00595719 -9.41799e-18)
(0.940727 0.00223465 -3.77274e-18)
(1.02231 0.0156978 -4.43147e-19)
(1.01707 0.023313 -4.59055e-19)
(1.01335 0.024531 2.25871e-18)
(1.00905 0.0279887 -7.03778e-19)
(1.00584 0.0290478 1.09259e-18)
(1.00356 0.0279687 7.71581e-18)
(1.00145 0.0268882 -2.64023e-19)
(1.00132 0.0203142 1.32069e-17)
(1.00039 0.0158944 7.57216e-19)
(1.01017 0.00498113 1.5717e-17)
(1.0363 0.0404889 -2.10862e-18)
(1.02559 0.0549125 1.85505e-19)
(1.01517 0.0562836 1.84925e-18)
(1.00017 0.0625957 2.4098e-19)
(0.983184 0.0611693 -4.98661e-18)
(0.963119 0.060235 8.86299e-18)
(0.942513 0.0509311 -7.74589e-19)
(0.920123 0.0439822 -3.06697e-18)
(0.904149 0.0244678 -4.80353e-18)
(0.87586 0.0106619 -3.58612e-18)
(1.06809 0.051862 -2.02365e-17)
(1.05433 0.0727135 -1.13957e-18)
(1.04176 0.0775467 -6.78712e-18)
(1.02507 0.089612 -3.17096e-18)
(1.00718 0.0960589 -1.09846e-18)
(0.986861 0.0994024 1.40309e-17)
(0.964187 0.103149 2.70513e-18)
(0.941703 0.0881224 2.97606e-17)
(0.916225 0.0783183 2.9701e-17)
(0.916281 0.0269659 4.57786e-17)
(1.10952 0.101352 1.61832e-17)
(1.08944 0.141723 2.5657e-20)
(1.0719 0.154384 2.0901e-18)
(1.04509 0.184643 1.46774e-17)
(1.01471 0.201226 7.04555e-18)
(0.970501 0.221043 5.83223e-18)
(0.915511 0.221669 1.57356e-18)
(0.831935 0.214955 1.43721e-17)
(0.748096 0.166245 6.11746e-17)
(0.575904 0.10146 4.81935e-19)
(1.328 0.202284 -9.22649e-18)
(1.34507 0.199361 -2.53682e-18)
(1.33642 0.194199 6.81188e-19)
(1.30763 0.193331 2.06197e-18)
(1.20967 0.181072 3.59307e-18)
(0.995863 0.151739 -4.32575e-18)
(0.585657 0.111478 1.07109e-18)
(-0.0359012 0.0412388 -1.85633e-18)
(-0.642894 0.0211361 6.40162e-18)
(-0.769413 0.00856033 -6.68237e-18)
(1.15732 -0.00160443 -1.03844e-18)
(1.17375 -0.0506955 -1.21535e-18)
(1.17331 -0.0621775 -3.73904e-20)
(1.16105 -0.102812 -1.61422e-20)
(1.10654 -0.123097 -7.79925e-17)
(0.990781 -0.150617 -1.0731e-17)
(0.773647 -0.158479 -1.48963e-18)
(0.469593 -0.150832 -2.13121e-18)
(0.248368 -0.0972569 8.82088e-17)
(0.110216 -0.0255921 7.41841e-18)
(1.02907 -0.00146902 -2.47767e-18)
(1.02232 -0.023035 1.45733e-18)
(1.01075 -0.0284372 -1.93383e-18)
(0.980761 -0.0477763 1.82738e-18)
(0.917737 -0.0563641 3.79799e-18)
(0.800108 -0.0682757 -2.60992e-18)
(0.599693 -0.0697198 1.06068e-18)
(0.32716 -0.0594699 -8.68802e-19)
(0.0769118 -0.0369179 9.41366e-18)
(-0.074361 -0.0135595 2.467e-19)
(1.00838 -0.0526616 2.21507e-17)
(1.00388 -0.0748369 -2.04698e-17)
(0.998421 -0.0808734 2.14038e-17)
(0.9842 -0.0974628 -2.28033e-17)
(0.954341 -0.104941 -3.09551e-18)
(0.895934 -0.111672 2.62675e-17)
(0.793096 -0.108448 -2.4077e-17)
(0.644672 -0.0922559 2.46351e-17)
(0.493018 -0.0614506 4.235e-18)
(0.394601 -0.0217798 2.55897e-17)
(0.907509 -0.0504993 1.41206e-18)
(0.899977 -0.0568924 -1.09537e-18)
(0.891833 -0.0580879 1.25216e-18)
(0.877773 -0.0628142 -1.09167e-18)
(0.854165 -0.0641601 1.18023e-17)
(0.810923 -0.0648207 2.79777e-18)
(0.73479 -0.0610673 -9.55605e-19)
(0.621168 -0.0513826 6.4725e-19)
(0.498742 -0.0344574 -1.53105e-17)
(0.417712 -0.0122459 -1.28599e-18)
(0.946263 -0.057892 9.25864e-18)
(0.942336 -0.061218 -7.57315e-18)
(0.937428 -0.0617899 7.86832e-18)
(0.929799 -0.0633385 -7.67076e-18)
(0.917089 -0.063207 8.14294e-18)
(0.892728 -0.0619214 9.13553e-18)
(0.84713 -0.0576321 -7.20525e-18)
(0.776111 -0.0485614 7.11631e-18)
(0.697566 -0.0330174 -6.84129e-18)
(0.645347 -0.0118024 6.53279e-18)
(0.904196 -0.0541613 -9.15615e-18)
(0.901524 -0.0530241 8.30107e-18)
(0.897587 -0.0517079 -8.6587e-18)
(0.891717 -0.0504033 8.75411e-18)
(0.88219 -0.0484492 1.03166e-18)
(0.864462 -0.0458714 -9.76306e-18)
(0.831925 -0.041739 9.81925e-18)
(0.782381 -0.0347264 -1.04329e-17)
(0.728348 -0.023475 -1.90098e-18)
(0.692745 -0.00835687 -1.19369e-17)
(0.938934 -0.0442867 -1.17618e-18)
(0.937658 -0.0427207 5.09781e-19)
(0.935392 -0.0415174 -9.69961e-19)
(0.931769 -0.0400438 6.68919e-19)
(0.925655 -0.0382378 1.60035e-18)
(0.914293 -0.0359608 -9.69092e-19)
(0.894017 -0.0325543 6.06411e-19)
(0.864258 -0.0269558 -1.04008e-18)
(0.832647 -0.0181608 1.10446e-18)
(0.812127 -0.0064485 -1.10562e-18)
(0.930409 -0.0353348 4.30087e-18)
(0.92955 -0.033621 4.51198e-19)
(0.927689 -0.0326125 4.20121e-18)
(0.924639 -0.0311896 5.59764e-19)
(0.91972 -0.0295897 4.95712e-18)
(0.91136 -0.0275762 4.89917e-18)
(0.89771 -0.0246751 4.8218e-19)
(0.878972 -0.0201574 4.87467e-18)
(0.859812 -0.0134253 6.88909e-19)
(0.847588 -0.00473515 4.99505e-18)
(0.94085 -0.0185107 3.22105e-19)
(0.940576 -0.0177306 5.14614e-20)
(0.939662 -0.0172477 3.50196e-19)
(0.938133 -0.016528 1.0249e-19)
(0.935719 -0.0156821 1.17754e-18)
(0.931849 -0.0145602 4.32549e-19)
(0.925928 -0.0129299 7.55299e-20)
(0.918226 -0.0104577 4.13659e-19)
(0.910617 -0.006905 7.93715e-19)
(0.905848 -0.00242353 3.8053e-19)
)
;

boundaryField
{
    inlet
    {
        type            uniformFixedValue;
        uniformValue    
        {
            type            constant;
            value           (1 0 0);
        }
        value           uniform (1 0 0);
    }
    outlet
    {
        type            pressureInletOutletVelocity;
        value           nonuniform List<vector> 
20
(
(0.94085 0.0185107 1.85823e-20)
(0.940576 0.0177306 5.20746e-21)
(0.939662 0.0172477 5.01841e-20)
(0.938133 0.016528 8.36928e-19)
(0.935719 0.0156821 2.08396e-20)
(0.931849 0.0145602 -7.80111e-19)
(0.925928 0.0129299 -5.07317e-20)
(0.918226 0.0104577 -4.83597e-20)
(0.910617 0.006905 -7.06304e-19)
(0.905848 0.00242353 6.70292e-22)
(0.94085 -0.0185107 3.22105e-19)
(0.940576 -0.0177306 5.14614e-20)
(0.939662 -0.0172477 3.50196e-19)
(0.938133 -0.016528 1.0249e-19)
(0.935719 -0.0156821 1.17754e-18)
(0.931849 -0.0145602 4.32549e-19)
(0.925928 -0.0129299 7.55299e-20)
(0.918226 -0.0104577 4.13659e-19)
(0.910617 -0.006905 7.93715e-19)
(0.905848 -0.00242353 3.8053e-19)
)
;
    }
    polygon
    {
        type            fixedValue;
        value           uniform (0 0 0);
    }
    top
    {
        type            symmetryPlane;
    }
    bottom
    {
        type            symmetryPlane;
    }
    outside
    {
        type            zeroGradient;
    }
}


// ************************************************************************* //
