/*--------------------------------*- C++ -*----------------------------------*\
  =========                 |
  \\      /  F ield         | OpenFOAM: The Open Source CFD Toolbox
   \\    /   O peration     | Website:  https://openfoam.org
    \\  /    A nd           | Version:  7
     \\/     M anipulation  |
\*---------------------------------------------------------------------------*/
FoamFile
{
    version     2.0;
    format      ascii;
    class       volVectorField;
    location    "84";
    object      U;
}
// * * * * * * * * * * * * * * * * * * * * * * * * * * * * * * * * * * * * * //

dimensions      [0 1 -1 0 0 0 0];

internalField   nonuniform List<vector> 
7360
(
(-0.318814 -1.90092e-05 4.65191e-20)
(-0.318891 -8.19303e-05 1.65184e-19)
(-0.319107 -0.000180479 2.29356e-19)
(-0.319499 -0.000263323 1.00019e-18)
(-0.320006 -0.000312814 -4.02714e-19)
(-0.320561 -0.000323202 9.72566e-19)
(-0.321103 -0.000294533 7.84666e-19)
(-0.32157 -0.000231266 -7.04223e-19)
(-0.321912 -0.000139592 1.74129e-18)
(-0.322091 -2.574e-05 2.61973e-18)
(-0.322078 0.00010252 2.54661e-19)
(-0.32185 0.000242617 1.94399e-18)
(-0.321393 0.000389264 2.02562e-18)
(-0.3207 0.000538771 2.90023e-18)
(-0.319772 0.000688273 6.02836e-19)
(-0.318608 0.000835403 2.90171e-18)
(-0.317217 0.000978262 6.74144e-18)
(-0.315604 0.00111533 -1.43782e-18)
(-0.313781 0.00124542 4.31997e-18)
(-0.311759 0.00136754 8.24746e-18)
(-0.309552 0.00148091 -7.7039e-19)
(-0.307174 0.00158485 5.49887e-19)
(-0.30464 0.00167881 5.72542e-18)
(-0.301966 0.00176228 -1.33598e-18)
(-0.299168 0.00183485 1.53056e-18)
(-0.296265 0.00189616 6.7024e-18)
(-0.293274 0.00194592 1.0572e-18)
(-0.290213 0.00198396 5.21024e-18)
(-0.287101 0.00201019 1.01822e-17)
(-0.283955 0.00202464 -5.09581e-19)
(-0.280795 0.00202748 3.01648e-18)
(-0.277638 0.00201899 2.11075e-18)
(-0.274502 0.0019996 -7.35373e-19)
(-0.271402 0.00196983 4.23131e-18)
(-0.268355 0.00193032 1.14656e-18)
(-0.265376 0.00188181 3.73778e-19)
(-0.262477 0.0018251 3.25985e-18)
(-0.259671 0.00176106 1.0413e-18)
(-0.256969 0.00169057 3.83069e-18)
(-0.254381 0.00161454 1.8117e-18)
(-0.251914 0.00153388 1.88462e-18)
(-0.249575 0.0014495 9.21132e-18)
(-0.24737 0.00136229 3.75973e-18)
(-0.245302 0.00127313 1.78992e-18)
(-0.243373 0.00118284 2.52458e-19)
(-0.241586 0.00109222 -3.86308e-18)
(-0.239941 0.00100203 7.12179e-18)
(-0.238435 0.000912978 3.53286e-19)
(-0.237067 0.000825719 -2.51192e-18)
(-0.235834 0.000740853 8.82233e-18)
(-0.234731 0.000658918 3.53683e-18)
(-0.233754 0.000580387 -2.21174e-18)
(-0.232897 0.000505667 -6.07526e-19)
(-0.232154 0.000435102 3.2725e-18)
(-0.231517 0.000368972 2.33505e-19)
(-0.23098 0.000307496 2.31473e-18)
(-0.230536 0.000250838 1.49417e-18)
(-0.230176 0.000199113 7.32558e-18)
(-0.229893 0.000152396 4.14489e-18)
(-0.229679 0.00011073 7.18659e-19)
(-0.229525 7.41514e-05 6.70843e-18)
(-0.229425 4.26555e-05 7.84711e-18)
(-0.22937 1.62743e-05 3.23698e-18)
(-0.229351 -7.85405e-06 -1.40574e-19)
(-0.229362 -2.77805e-05 -3.76131e-18)
(-0.229393 -4.04141e-05 -6.54612e-18)
(-0.229437 -4.79538e-05 -8.03232e-19)
(-0.229486 -5.07386e-05 1.26478e-18)
(-0.229531 -4.86273e-05 2.93062e-18)
(-0.229564 -4.07707e-05 -4.45155e-19)
(-0.229576 -2.32486e-05 -4.73593e-18)
(-0.229558 1.70011e-06 -3.7385e-18)
(-0.2295 2.8994e-05 -2.10143e-18)
(-0.229386 6.26706e-05 -6.3987e-18)
(-0.229209 0.00010515 1.91971e-18)
(-0.228952 0.000157324 -4.16016e-19)
(-0.228601 0.000220374 -3.7948e-18)
(-0.228138 0.000295821 -4.25757e-19)
(-0.227541 0.000385566 1.17801e-18)
(-0.226788 0.00049193 -2.00771e-18)
(-0.225851 0.00061778 -1.21679e-18)
(-0.224696 0.000766673 4.54359e-19)
(-0.223286 0.000943041 -1.08563e-17)
(-0.221573 0.00115247 -5.25237e-18)
(-0.219503 0.00140203 -5.21986e-18)
(-0.217008 0.00170084 1.0165e-18)
(-0.214003 0.0020607 -1.61774e-18)
(-0.21039 0.00249712 8.31085e-18)
(-0.206027 0.00303111 1.20632e-17)
(-0.200781 0.00368919 4.18327e-19)
(-0.194364 0.00451509 2.07938e-17)
(-0.186685 0.00554038 5.76607e-18)
(-0.176972 0.00690275 8.33146e-18)
(-0.165655 0.00850302 6.39919e-18)
(-0.15024 0.0109512 -3.05925e-18)
(-0.133277 0.0132029 -1.04002e-19)
(-0.108493 0.0177856 1.02388e-17)
(-0.0813503 0.0197751 -1.05243e-17)
(-0.0465202 0.0235502 1.447e-17)
(-0.0106307 0.0173667 -5.56661e-19)
(-0.322021 -6.01081e-06 -3.99016e-20)
(-0.322084 -2.6749e-05 7.64995e-20)
(-0.322277 -5.909e-05 -2.31624e-19)
(-0.322632 -8.65545e-05 -6.03801e-20)
(-0.323096 -0.000103149 2.64503e-20)
(-0.323608 -0.000106868 -9.68417e-19)
(-0.324105 -9.7628e-05 5.87522e-19)
(-0.324529 -7.68234e-05 -2.19328e-19)
(-0.32483 -4.64516e-05 1.32507e-18)
(-0.324969 -8.49363e-06 -2.41665e-19)
(-0.324917 3.42101e-05 1.84924e-19)
(-0.324651 8.0871e-05 -4.5318e-19)
(-0.324156 0.00012981 -4.22539e-19)
(-0.323427 0.000179788 -3.35834e-19)
(-0.32246 0.00022982 -1.22801e-18)
(-0.321259 0.000279092 -1.14135e-18)
(-0.319828 0.000326951 -1.10676e-18)
(-0.318176 0.000372879 -3.73486e-18)
(-0.316314 0.00041646 3.4939e-18)
(-0.314252 0.000457362 4.40439e-18)
(-0.312004 0.000495312 -1.1991e-18)
(-0.309585 0.000530081 1.19506e-18)
(-0.30701 0.000561475 1.26029e-18)
(-0.304295 0.000589328 1.11563e-18)
(-0.301457 0.000613496 -3.62577e-18)
(-0.298513 0.000633861 6.75459e-18)
(-0.295481 0.00065033 4.97949e-18)
(-0.29238 0.000662843 4.70731e-18)
(-0.289227 0.000671375 5.06481e-18)
(-0.286043 0.00067594 8.82863e-19)
(-0.282844 0.000676597 -6.82322e-19)
(-0.27965 0.000673444 -4.13911e-18)
(-0.276477 0.000666625 -1.35228e-18)
(-0.273342 0.000656321 3.91579e-18)
(-0.270261 0.000642749 6.78296e-18)
(-0.267248 0.00062616 -3.33634e-19)
(-0.264318 0.000606825 1.26752e-18)
(-0.261482 0.000585035 -1.16996e-18)
(-0.258752 0.000561091 -1.85068e-18)
(-0.256137 0.000535297 3.34741e-19)
(-0.253646 0.000507961 3.13827e-18)
(-0.251284 0.000479387 5.92958e-18)
(-0.249059 0.000449872 6.65692e-18)
(-0.246973 0.000419702 -1.72663e-19)
(-0.245029 0.000389154 -3.01432e-21)
(-0.24323 0.000358489 -5.00041e-18)
(-0.241574 0.000327953 3.96402e-18)
(-0.240061 0.000297777 -1.86404e-18)
(-0.238688 0.000268173 -1.25375e-18)
(-0.237454 0.000239336 2.75795e-18)
(-0.236353 0.000211435 8.8311e-19)
(-0.235381 0.000184621 -2.65633e-18)
(-0.234532 0.000159023 -5.6712e-18)
(-0.2338 0.00013475 6.24461e-18)
(-0.233178 0.000111892 6.81984e-18)
(-0.232659 9.05199e-05 6.32852e-18)
(-0.232236 7.0688e-05 1.90982e-18)
(-0.231901 5.24386e-05 8.74126e-18)
(-0.231646 3.58064e-05 -3.93423e-18)
(-0.231463 2.08218e-05 -4.79386e-18)
(-0.231344 7.53914e-06 5.81838e-18)
(-0.231281 -4.01491e-06 1.12624e-17)
(-0.231267 -1.39909e-05 4.22861e-18)
(-0.231293 -2.30464e-05 -6.95731e-18)
(-0.231351 -3.00032e-05 -4.19452e-18)
(-0.231433 -3.5941e-05 -3.92043e-18)
(-0.231531 -4.02572e-05 -9.77209e-18)
(-0.231637 -4.23665e-05 3.50972e-18)
(-0.231742 -4.22467e-05 2.38159e-18)
(-0.231838 -4.05396e-05 5.94278e-19)
(-0.231917 -3.84259e-05 -4.66136e-19)
(-0.231967 -3.43283e-05 -7.00696e-18)
(-0.231979 -2.47731e-05 -1.7654e-18)
(-0.231941 -1.49228e-05 -1.41272e-18)
(-0.231841 -2.31999e-06 -5.63525e-18)
(-0.231663 1.36933e-05 -6.57883e-18)
(-0.231394 3.3525e-05 -8.85934e-18)
(-0.231014 5.76968e-05 -6.75057e-19)
(-0.230504 8.68656e-05 1.29425e-18)
(-0.229838 0.000121833 -1.34781e-19)
(-0.228988 0.000163588 -4.87701e-19)
(-0.227922 0.000213356 8.6104e-18)
(-0.226599 0.000272661 -7.06992e-19)
(-0.224973 0.000343421 -9.08339e-18)
(-0.222987 0.000428069 -3.82828e-18)
(-0.22057 0.000529724 7.64827e-18)
(-0.217636 0.000652444 1.44362e-18)
(-0.214083 0.000801499 6.79686e-18)
(-0.209764 0.00098415 7.88099e-18)
(-0.204541 0.00120919 1.69243e-18)
(-0.198113 0.00149193 7.22611e-18)
(-0.190381 0.00184174 1.46339e-17)
(-0.18055 0.00230853 3.26958e-18)
(-0.169012 0.00285757 1.17721e-17)
(-0.153286 0.00370807 -5.18465e-18)
(-0.135719 0.00447767 -1.0431e-18)
(-0.11029 0.00604723 1.1057e-17)
(-0.0819922 0.00673004 -5.08877e-18)
(-0.0458511 0.0079475 -1.47606e-18)
(-0.0101158 0.00578615 -4.05784e-21)
(-0.303455 -6.40179e-05 -3.87429e-20)
(-0.303618 -0.000233657 5.3771e-19)
(-0.303964 -0.000492505 3.16113e-20)
(-0.304548 -0.000701978 1.17204e-18)
(-0.305268 -0.00082473 1.48469e-19)
(-0.306041 -0.000850627 4.63243e-20)
(-0.306796 -0.000782874 -6.5421e-19)
(-0.307467 -0.000634083 -2.58822e-18)
(-0.308005 -0.000419757 1.24801e-18)
(-0.308371 -0.000155424 8.48472e-19)
(-0.308539 0.000142918 -2.44018e-18)
(-0.30849 0.000465673 5.08082e-19)
(-0.30821 0.000802676 -2.22337e-18)
(-0.307695 0.00114568 3.21562e-18)
(-0.306944 0.00148825 -1.60258e-18)
(-0.305961 0.00182511 8.38935e-19)
(-0.304752 0.00215206 1.99224e-18)
(-0.303325 0.00246573 -4.38722e-18)
(-0.301689 0.00276347 3.01458e-18)
(-0.299858 0.00304312 -1.93691e-19)
(-0.297842 0.0033029 1.40683e-18)
(-0.295657 0.0035413 3.70489e-18)
(-0.293317 0.00375702 -7.26269e-19)
(-0.290837 0.00394894 -4.30551e-18)
(-0.288233 0.00411606 2.44211e-18)
(-0.285523 0.00425755 1.64384e-18)
(-0.282723 0.00437274 4.91467e-18)
(-0.279852 0.00446118 6.38371e-18)
(-0.276926 0.00452266 3.62145e-18)
(-0.273965 0.00455725 5.13337e-18)
(-0.270985 0.00456532 1.93674e-18)
(-0.268004 0.00454752 -2.44117e-18)
(-0.265039 0.00450479 -4.5019e-18)
(-0.262106 0.00443839 -8.66758e-19)
(-0.259219 0.00434978 4.60093e-18)
(-0.256393 0.00424066 9.3622e-19)
(-0.253641 0.00411291 4.13164e-18)
(-0.250974 0.00396852 2.00912e-18)
(-0.248403 0.00380955 3.59367e-19)
(-0.245936 0.00363809 1.10004e-18)
(-0.24358 0.00345626 -2.13526e-18)
(-0.241343 0.00326615 3.21864e-18)
(-0.239228 0.00306981 -2.28311e-19)
(-0.237239 0.00286925 1.24436e-18)
(-0.235378 0.00266639 -1.88585e-18)
(-0.233645 0.00246305 4.45409e-18)
(-0.23204 0.00226097 4.45239e-18)
(-0.230561 0.00206177 -6.83632e-19)
(-0.229206 0.00186695 5.94956e-18)
(-0.227971 0.00167787 -4.04644e-19)
(-0.226852 0.00149576 5.96994e-18)
(-0.225842 0.00132169 4.82558e-18)
(-0.224937 0.00115657 2.22353e-18)
(-0.22413 0.00100118 -4.27326e-19)
(-0.223414 0.000856129 1.93994e-18)
(-0.222781 0.000721912 8.50997e-19)
(-0.222224 0.000598881 6.05386e-18)
(-0.221735 0.000487278 -1.19263e-19)
(-0.221307 0.000387248 9.34692e-19)
(-0.220931 0.000298855 5.4337e-18)
(-0.2206 0.000222102 1.08408e-18)
(-0.220305 0.000156944 -3.3167e-19)
(-0.22004 0.000103325 -6.05959e-18)
(-0.219795 6.20175e-05 2.90186e-19)
(-0.219562 3.25695e-05 6.95273e-18)
(-0.219335 1.20587e-05 7.44986e-19)
(-0.219107 3.09071e-06 -1.98728e-18)
(-0.218869 6.28263e-06 5.59591e-18)
(-0.218612 2.20351e-05 1.41503e-18)
(-0.218326 5.13182e-05 1.45885e-18)
(-0.218003 8.97269e-05 8.57368e-18)
(-0.217636 0.000141907 8.2996e-18)
(-0.217214 0.000212719 9.12779e-18)
(-0.216726 0.000300723 6.30201e-18)
(-0.216159 0.000407788 1.6372e-18)
(-0.2155 0.000536507 1.12426e-17)
(-0.214735 0.00068984 1.11183e-17)
(-0.213846 0.00087132 5.321e-18)
(-0.212816 0.00108531 5.83466e-18)
(-0.211621 0.00133708 -4.07103e-19)
(-0.210236 0.00163313 -3.16685e-18)
(-0.208632 0.0019815 -8.2195e-19)
(-0.206775 0.00239217 -4.98175e-18)
(-0.204623 0.00287768 -3.71525e-18)
(-0.202128 0.00345388 -5.06586e-18)
(-0.199233 0.00414112 -4.71807e-18)
(-0.195865 0.00496564 4.34818e-18)
(-0.191944 0.00596196 8.03479e-18)
(-0.187352 0.00717612 1.47121e-18)
(-0.181987 0.0086681 8.31285e-18)
(-0.175616 0.010529 1.60037e-17)
(-0.168203 0.0128412 5.14546e-18)
(-0.159085 0.0158701 8.51317e-18)
(-0.148853 0.0194551 1.33022e-17)
(-0.13504 0.0248287 5.26406e-18)
(-0.121079 0.0297422 8.5226e-18)
(-0.0995598 0.0397848 8.24921e-18)
(-0.0784641 0.0432076 1.85293e-18)
(-0.0496323 0.0520427 4.84065e-19)
(-0.0128598 0.0352099 5.75406e-18)
(-0.312535 -3.73821e-05 -1.45517e-20)
(-0.312644 -0.000149636 4.84629e-19)
(-0.31291 -0.000323234 -3.01027e-19)
(-0.313377 -0.000467201 1.1807e-18)
(-0.313968 -0.000553025 8.0129e-19)
(-0.314612 -0.000571979 1.31815e-18)
(-0.31524 -0.000524984 1.45266e-18)
(-0.315791 -0.000420084 -2.11868e-18)
(-0.316214 -0.000267857 4.8724e-19)
(-0.31647 -7.89018e-05 2.74391e-18)
(-0.316531 0.000134527 -2.51228e-19)
(-0.316377 0.000366168 6.64595e-19)
(-0.315993 0.000608609 8.87994e-22)
(-0.315374 0.000855857 1.79001e-18)
(-0.314519 0.00110313 2.04669e-18)
(-0.31343 0.00134653 3.56384e-18)
(-0.312113 0.00158292 5.83385e-18)
(-0.310576 0.00180984 -3.62517e-18)
(-0.308831 0.00202529 4.20514e-18)
(-0.306887 0.00222769 2.89716e-18)
(-0.304759 0.00241572 3.24143e-18)
(-0.30246 0.00258826 1.79326e-18)
(-0.300005 0.00274437 -9.82937e-19)
(-0.297411 0.00288322 9.35374e-19)
(-0.294693 0.00300408 1.23461e-18)
(-0.29187 0.00310635 5.4335e-18)
(-0.288957 0.00318954 5.36325e-18)
(-0.285974 0.00325332 4.12516e-18)
(-0.282939 0.00329753 7.56199e-18)
(-0.27987 0.00332223 2.33819e-18)
(-0.276784 0.00332766 1.74848e-18)
(-0.2737 0.00331429 2.69769e-19)
(-0.270634 0.0032828 -1.67675e-18)
(-0.267603 0.00323405 7.20075e-19)
(-0.264623 0.00316913 4.81751e-18)
(-0.261707 0.00308924 1.08186e-18)
(-0.258869 0.00299572 -5.17819e-19)
(-0.256121 0.00289001 3.48198e-18)
(-0.253474 0.00277357 4.57654e-18)
(-0.250936 0.00264793 4.30188e-18)
(-0.248516 0.00251459 3.14218e-18)
(-0.246219 0.00237506 4.30053e-18)
(-0.244052 0.00223084 1.5496e-18)
(-0.242018 0.00208335 4.1787e-18)
(-0.240118 0.00193399 4.87396e-20)
(-0.238355 0.00178409 3.2749e-18)
(-0.236727 0.0016349 8.01956e-19)
(-0.235234 0.00148761 -1.04222e-19)
(-0.233873 0.00134331 4.25085e-18)
(-0.232641 0.00120299 6.20956e-18)
(-0.231533 0.00106757 6.9223e-18)
(-0.230545 0.00093782 4.98143e-18)
(-0.22967 0.000814435 4.51822e-18)
(-0.228902 0.00069799 4.78734e-18)
(-0.228235 0.000588956 4.81745e-18)
(-0.227661 0.000487707 1.51874e-18)
(-0.227173 0.000394523 2.47112e-18)
(-0.226762 0.000309603 2.40788e-18)
(-0.226422 0.000233077 1.7863e-18)
(-0.226144 0.00016502 6.02069e-18)
(-0.225921 0.00010547 3.22037e-18)
(-0.225743 5.43933e-05 -1.58786e-18)
(-0.225604 1.17991e-05 3.26784e-18)
(-0.225495 -2.2436e-05 4.73664e-18)
(-0.22541 -5.00755e-05 6.15763e-18)
(-0.22534 -7.1738e-05 -1.03784e-18)
(-0.225275 -8.38989e-05 -5.73833e-18)
(-0.225209 -8.60908e-05 1.3947e-18)
(-0.225133 -7.82138e-05 6.45834e-18)
(-0.225042 -6.0163e-05 -4.00173e-18)
(-0.224923 -3.62821e-05 7.22747e-19)
(-0.224765 -8.21523e-07 -3.90864e-18)
(-0.224559 4.28474e-05 -3.71811e-18)
(-0.224297 0.000100235 -3.60372e-19)
(-0.223965 0.000171967 -4.76825e-18)
(-0.223548 0.00025953 2.82606e-18)
(-0.223033 0.000365055 -3.57789e-18)
(-0.2224 0.000491135 9.93304e-19)
(-0.221631 0.000640971 2.26852e-18)
(-0.220702 0.000818447 -6.97592e-18)
(-0.219587 0.00102836 -1.92353e-18)
(-0.218254 0.00127663 -6.75312e-18)
(-0.216666 0.00157064 -1.27047e-17)
(-0.214779 0.00191968 -4.06329e-18)
(-0.212541 0.00233546 -1.10006e-17)
(-0.209887 0.00283306 -2.49277e-18)
(-0.206738 0.00343192 -6.9879e-18)
(-0.203003 0.00415752 -3.49023e-18)
(-0.198549 0.00504422 3.99074e-18)
(-0.193257 0.0061354 -4.88421e-18)
(-0.186858 0.00750115 1.09152e-17)
(-0.179286 0.00919553 -3.50644e-18)
(-0.169804 0.0114398 -3.12316e-18)
(-0.15891 0.0140841 5.60917e-18)
(-0.144121 0.0181139 -7.09198e-18)
(-0.12835 0.0217715 1.63181e-18)
(-0.104869 0.0292737 -2.17293e-18)
(-0.0801238 0.0321668 -1.0533e-17)
(-0.0479787 0.0383287 3.92239e-18)
(-0.0117228 0.0269318 -5.07719e-18)
(-0.278525 -0.000166069 -1.02731e-19)
(-0.278904 -0.000495636 2.25448e-19)
(-0.279522 -0.000969907 8.13875e-19)
(-0.280472 -0.00132896 7.4151e-19)
(-0.281567 -0.00152794 -7.14911e-19)
(-0.282705 -0.00156284 -6.71319e-19)
(-0.283804 -0.00144745 -1.7846e-19)
(-0.284798 -0.00120673 -2.02151e-18)
(-0.285641 -0.000867229 -2.52111e-19)
(-0.286298 -0.000453942 1.4e-18)
(-0.286747 1.39725e-05 -3.5602e-18)
(-0.286974 0.000507522 -1.35098e-19)
(-0.286971 0.00102284 2.36701e-20)
(-0.286734 0.00154606 -1.72986e-18)
(-0.286263 0.00206733 -3.47648e-18)
(-0.285564 0.00257901 9.6337e-20)
(-0.284643 0.00307503 -2.87239e-18)
(-0.283508 0.00355059 -4.54055e-18)
(-0.282169 0.00400185 -3.65191e-18)
(-0.280637 0.0044257 3.75987e-18)
(-0.278924 0.00481956 2.39259e-18)
(-0.277043 0.0051812 -1.99514e-18)
(-0.275008 0.0055087 -3.26421e-18)
(-0.272833 0.00580036 -2.18234e-18)
(-0.270534 0.00605465 -6.49938e-19)
(-0.268126 0.00627031 -3.7046e-18)
(-0.265626 0.00644629 1.27209e-18)
(-0.263051 0.00658191 2.62363e-18)
(-0.260417 0.00667683 6.17209e-19)
(-0.257741 0.0067312 5.77812e-18)
(-0.25504 0.00674563 1.54828e-18)
(-0.252331 0.00672119 9.72608e-19)
(-0.24963 0.00665938 -4.58465e-18)
(-0.24695 0.00656218 -1.69592e-18)
(-0.244307 0.00643194 3.3733e-19)
(-0.241714 0.00627131 2.06087e-19)
(-0.239182 0.00608321 1.39849e-18)
(-0.236722 0.00587066 6.8603e-19)
(-0.234343 0.00563679 -4.50185e-18)
(-0.232052 0.00538481 -2.73768e-18)
(-0.229857 0.00511793 -1.01842e-18)
(-0.227762 0.00483934 -8.5387e-19)
(-0.225771 0.00455217 -1.58966e-18)
(-0.223886 0.00425944 -2.8813e-19)
(-0.222107 0.00396407 2.25375e-18)
(-0.220436 0.00366883 1.38737e-18)
(-0.218869 0.00337632 1.13534e-18)
(-0.217406 0.00308898 -1.21231e-18)
(-0.216041 0.00280907 1.71871e-18)
(-0.214772 0.0025386 2.02946e-18)
(-0.213592 0.0022794 -1.43236e-19)
(-0.212496 0.00203301 -2.82836e-18)
(-0.211477 0.00180078 1.04116e-18)
(-0.210529 0.00158381 1.4603e-18)
(-0.209644 0.00138298 2.36435e-18)
(-0.208815 0.00119895 8.10442e-19)
(-0.208034 0.00103218 7.69385e-18)
(-0.207293 0.00088297 8.15469e-18)
(-0.206584 0.00075147 1.813e-18)
(-0.205899 0.000637701 1.53984e-18)
(-0.20523 0.000541594 -6.57569e-18)
(-0.20457 0.000463036 9.94369e-19)
(-0.203911 0.000401927 -7.54567e-18)
(-0.203244 0.00035841 -1.38363e-18)
(-0.202563 0.000332161 -1.73378e-19)
(-0.201859 0.000322737 -4.53553e-20)
(-0.201125 0.000330698 -4.15795e-19)
(-0.200353 0.000356942 1.18471e-19)
(-0.199535 0.000402123 1.86886e-18)
(-0.198662 0.000466633 9.53347e-18)
(-0.197725 0.000550958 5.54392e-18)
(-0.196717 0.000657065 4.78102e-18)
(-0.195627 0.000788016 4.71783e-18)
(-0.194444 0.000945564 6.18489e-18)
(-0.193159 0.00113255 5.67908e-18)
(-0.191757 0.00135259 1.38315e-17)
(-0.190226 0.00161009 1.54425e-17)
(-0.18855 0.00191033 7.62779e-18)
(-0.186713 0.00225983 1.74762e-17)
(-0.184697 0.00266637 3.89527e-18)
(-0.182479 0.00313953 9.55574e-19)
(-0.180037 0.00369108 -2.40955e-18)
(-0.177342 0.00433559 -9.95462e-18)
(-0.174364 0.00509121 -1.33605e-17)
(-0.171068 0.00598076 -1.19961e-17)
(-0.167412 0.00703331 -2.05442e-18)
(-0.163348 0.00828591 -9.5232e-18)
(-0.158826 0.00978714 3.35223e-18)
(-0.153778 0.0116001 -8.70804e-18)
(-0.148149 0.0138092 1.15938e-17)
(-0.141817 0.0165283 -2.58874e-18)
(-0.134825 0.0198964 1.09182e-17)
(-0.126755 0.0242091 -3.93014e-19)
(-0.118389 0.0293964 1.1715e-17)
(-0.107568 0.0367792 5.14285e-19)
(-0.0988017 0.0436217 8.3225e-18)
(-0.0832887 0.0570973 8.14074e-19)
(-0.0736357 0.0600402 -1.41564e-17)
(-0.0531031 0.0742025 -1.2203e-17)
(-0.0164127 0.0421441 -3.73733e-18)
(-0.291955 -0.000105379 -5.51715e-20)
(-0.292205 -0.000347677 4.70398e-19)
(-0.292668 -0.000707694 3.22549e-19)
(-0.293413 -0.000990544 6.91714e-19)
(-0.294303 -0.00115286 -8.58446e-19)
(-0.295243 -0.00118571 -1.27074e-18)
(-0.296158 -0.00109646 -3.93806e-19)
(-0.29698 -0.000903328 -1.55908e-18)
(-0.29766 -0.000627078 1.43582e-19)
(-0.298162 -0.000287929 -7.7296e-19)
(-0.298462 9.64044e-05 -2.11441e-18)
(-0.298543 0.000505453 1.72949e-18)
(-0.298392 0.00093284 -6.25258e-19)
(-0.298006 0.00136772 2.58323e-18)
(-0.297386 0.0018018 -1.32147e-18)
(-0.296536 0.00222845 1.34853e-19)
(-0.295461 0.00264242 -1.53847e-19)
(-0.29417 0.00303955 -2.94321e-18)
(-0.292672 0.00341654 -7.6782e-19)
(-0.29098 0.0037707 3.70507e-18)
(-0.289105 0.00409981 1.63084e-18)
(-0.287062 0.00440197 8.48037e-19)
(-0.284864 0.00467554 -3.81448e-18)
(-0.282526 0.00491909 -5.31667e-18)
(-0.280065 0.00513134 -4.31088e-20)
(-0.277496 0.00531122 -7.66156e-19)
(-0.274836 0.00545787 1.80299e-18)
(-0.272103 0.00557071 5.95237e-18)
(-0.269314 0.00564945 1.9698e-18)
(-0.266487 0.00569421 3.82326e-18)
(-0.263638 0.00570545 1.52146e-18)
(-0.260785 0.00568402 -1.74129e-19)
(-0.257943 0.00563113 -2.96034e-18)
(-0.25513 0.00554838 -1.1526e-18)
(-0.252358 0.00543767 1.38394e-18)
(-0.249642 0.00530116 4.32389e-19)
(-0.246995 0.00514124 4.70508e-18)
(-0.244426 0.00496043 1.56439e-18)
(-0.241946 0.00476135 -4.12967e-18)
(-0.239564 0.00454666 -1.0636e-18)
(-0.237286 0.00431905 -1.21072e-18)
(-0.235118 0.0040812 -2.24622e-18)
(-0.233064 0.00383572 -3.72636e-18)
(-0.231127 0.00358517 -1.79498e-19)
(-0.229308 0.00333198 3.04227e-18)
(-0.227607 0.00307849 2.26476e-18)
(-0.226025 0.00282691 2.08693e-18)
(-0.224558 0.00257927 -3.47332e-18)
(-0.223203 0.00233751 5.16323e-18)
(-0.221957 0.00210333 1.13841e-18)
(-0.220815 0.00187828 2.10592e-18)
(-0.219771 0.0016637 -2.39215e-18)
(-0.21882 0.00146074 7.42689e-19)
(-0.217953 0.00127036 3.9337e-18)
(-0.217166 0.00109332 1.79753e-18)
(-0.216449 0.000930195 5.92837e-19)
(-0.215795 0.000781413 4.54961e-18)
(-0.215197 0.000647236 6.76055e-18)
(-0.214646 0.000527799 1.61095e-18)
(-0.214135 0.000423121 -1.66405e-18)
(-0.213656 0.000333127 -1.7205e-18)
(-0.213201 0.000257662 5.6753e-21)
(-0.212763 0.000196462 -8.64115e-18)
(-0.212332 0.000149363 -1.16713e-18)
(-0.211903 0.000116491 1.94452e-18)
(-0.211466 9.91288e-05 6.41814e-19)
(-0.211015 9.56892e-05 -8.05876e-19)
(-0.21054 0.000106023 1.74518e-18)
(-0.210035 0.000130462 -3.87774e-18)
(-0.209491 0.000169864 8.27406e-18)
(-0.208898 0.000228513 1.05673e-17)
(-0.208248 0.000305647 1.06565e-17)
(-0.207531 0.000402128 1.13954e-17)
(-0.206736 0.000520272 -6.8946e-19)
(-0.205852 0.000662839 8.18722e-18)
(-0.204866 0.000832885 1.47652e-17)
(-0.203763 0.00103412 1.61601e-17)
(-0.202528 0.00127103 1.19391e-17)
(-0.201142 0.00154916 1.47222e-17)
(-0.199586 0.00187517 3.00746e-18)
(-0.197835 0.00225728 -7.28248e-18)
(-0.195863 0.0027056 5.39121e-18)
(-0.193638 0.00323269 -4.10612e-18)
(-0.191124 0.00385429 -5.69904e-18)
(-0.188279 0.00459021 -6.28261e-18)
(-0.185052 0.00546584 -1.00625e-17)
(-0.181382 0.00651375 -2.87772e-18)
(-0.177201 0.00777662 3.74462e-18)
(-0.172414 0.0093108 -2.23052e-18)
(-0.166942 0.01119 6.09716e-18)
(-0.160599 0.0135208 1.26939e-17)
(-0.153385 0.0164109 1.466e-17)
(-0.144735 0.0201578 3.99652e-18)
(-0.135334 0.0246272 8.30764e-18)
(-0.122853 0.0311936 -5.87251e-18)
(-0.11123 0.0371603 -2.90253e-18)
(-0.0923939 0.0493015 2.13487e-18)
(-0.0763497 0.0525741 -1.06956e-17)
(-0.051734 0.063652 -3.80175e-18)
(-0.0144807 0.039472 1.90629e-19)
(-0.24816 -0.000373014 -4.68627e-20)
(-0.248963 -0.000941604 1.18848e-19)
(-0.249999 -0.00167511 6.46448e-19)
(-0.251458 -0.00219019 6.10244e-19)
(-0.253036 -0.00244812 -1.87664e-18)
(-0.254615 -0.00247057 -5.08531e-19)
(-0.256117 -0.00229084 3.61997e-20)
(-0.257481 -0.00194878 -1.87495e-19)
(-0.25867 -0.00148248 1.67008e-19)
(-0.259657 -0.000924897 -1.53783e-18)
(-0.260425 -0.000302159 -2.78521e-18)
(-0.260967 0.000355205 -9.10184e-19)
(-0.261281 0.00102803 1.3286e-18)
(-0.261363 0.00170927 -3.05722e-18)
(-0.261216 0.00238684 -1.03696e-18)
(-0.260846 0.00305109 3.40635e-18)
(-0.260259 0.0036945 -2.66799e-18)
(-0.259463 0.00431116 -2.82052e-18)
(-0.258468 0.00489634 2.22478e-18)
(-0.257283 0.00544619 1.04273e-18)
(-0.25592 0.00595746 4.03448e-19)
(-0.25439 0.00642735 -2.49169e-19)
(-0.252707 0.00685339 -3.80407e-18)
(-0.250884 0.00723335 2.59648e-18)
(-0.248934 0.00756523 -3.13284e-18)
(-0.246872 0.00784734 -8.49929e-19)
(-0.244714 0.00807829 1.7647e-18)
(-0.242475 0.00825714 1.48141e-18)
(-0.24017 0.00838349 -2.89996e-18)
(-0.237816 0.00845746 2.30631e-18)
(-0.235428 0.00847983 1.18762e-18)
(-0.233021 0.00845213 4.7564e-18)
(-0.230611 0.00837647 2.91993e-18)
(-0.22821 0.00825548 -3.49634e-18)
(-0.225832 0.00809229 -6.07973e-20)
(-0.223488 0.00789048 4.31714e-19)
(-0.221189 0.00765394 -3.09661e-18)
(-0.218944 0.0073868 1.14349e-19)
(-0.216761 0.00709332 -2.72857e-19)
(-0.214646 0.00677779 -5.40565e-18)
(-0.212604 0.0064445 -7.48999e-19)
(-0.210638 0.00609768 -4.41989e-20)
(-0.208752 0.00574145 3.12312e-19)
(-0.206945 0.0053798 2.15915e-19)
(-0.205217 0.00501653 9.19488e-18)
(-0.203567 0.00465522 2.1798e-18)
(-0.201992 0.00429924 7.57084e-19)
(-0.200489 0.00395168 3.6478e-20)
(-0.199052 0.00361543 8.46911e-19)
(-0.197677 0.00329306 2.6479e-18)
(-0.196357 0.00298678 -4.67022e-19)
(-0.195086 0.00269851 -4.15093e-18)
(-0.193856 0.00242985 6.56961e-19)
(-0.19266 0.00218207 -2.03369e-18)
(-0.19149 0.00195614 1.74221e-18)
(-0.190339 0.00175277 9.2363e-19)
(-0.189197 0.00157241 3.74722e-18)
(-0.188057 0.00141529 2.69263e-18)
(-0.186911 0.00128147 1.46887e-18)
(-0.18575 0.00117087 3.17299e-18)
(-0.184566 0.00108331 -2.23125e-18)
(-0.183353 0.0010186 2.162e-18)
(-0.1821 0.000976589 -4.79404e-19)
(-0.180801 0.000957271 1.67864e-21)
(-0.179448 0.000960506 -5.51184e-18)
(-0.178033 0.000986325 -1.28856e-19)
(-0.176548 0.0010351 3.98238e-19)
(-0.174985 0.00110765 -5.68544e-18)
(-0.173335 0.00120488 -1.93102e-18)
(-0.171591 0.00132779 8.28416e-18)
(-0.169743 0.00147796 2.3003e-18)
(-0.167782 0.00165744 1.11395e-18)
(-0.165699 0.00186924 9.20954e-19)
(-0.163484 0.00211624 1.07513e-18)
(-0.161126 0.00240228 -3.77936e-18)
(-0.158614 0.00273206 1.00813e-17)
(-0.155935 0.00311121 4.63257e-18)
(-0.153077 0.00354654 1.11936e-17)
(-0.150025 0.0040464 1.57679e-17)
(-0.146765 0.00462064 3.02137e-18)
(-0.14328 0.0052814 4.13939e-18)
(-0.139554 0.00604348 3.82586e-18)
(-0.135569 0.00692508 -8.20508e-19)
(-0.131306 0.00794873 3.84929e-18)
(-0.126746 0.00914248 -1.29657e-18)
(-0.121871 0.0105418 2.50673e-18)
(-0.116665 0.0121912 -4.47554e-19)
(-0.111117 0.0141486 3.7561e-18)
(-0.105221 0.0164876 8.27603e-19)
(-0.0989966 0.0193057 1.24763e-17)
(-0.0924602 0.022723 4.22728e-19)
(-0.085763 0.0269129 -1.40804e-18)
(-0.0788215 0.0320637 -4.06031e-18)
(-0.0725654 0.0383157 1.63015e-18)
(-0.0655715 0.0463039 1.2531e-17)
(-0.063113 0.054281 2.09887e-18)
(-0.0557325 0.066863 6.16872e-19)
(-0.0624141 0.0692623 -3.30682e-18)
(-0.0512044 0.0828323 -3.76961e-18)
(-0.0329726 0.0363767 -3.98159e-18)
(-0.263723 -0.000254026 -5.49083e-20)
(-0.264286 -0.000694897 3.28192e-19)
(-0.265098 -0.00129557 9.13983e-19)
(-0.266289 -0.00173463 1.15803e-18)
(-0.267618 -0.00196697 -1.55284e-18)
(-0.268973 -0.0019993 -5.78878e-19)
(-0.270272 -0.00185413 -1.05134e-19)
(-0.27145 -0.00156373 -8.00151e-19)
(-0.272465 -0.00116055 -8.22261e-20)
(-0.273286 -0.000673856 -3.07175e-20)
(-0.273894 -0.000125996 -3.88542e-18)
(-0.274278 0.000449931 -7.73002e-19)
(-0.274433 0.00104589 4.34582e-19)
(-0.274354 0.0016506 -1.67796e-18)
(-0.274044 0.00225262 -1.72857e-18)
(-0.273508 0.00284326 1.10565e-18)
(-0.272752 0.00341567 -1.77122e-18)
(-0.271785 0.00396445 -2.74414e-18)
(-0.270616 0.00448528 -7.72868e-19)
(-0.269255 0.00497463 1.53185e-18)
(-0.267716 0.00542957 3.69228e-18)
(-0.266009 0.00584755 -2.9617e-19)
(-0.264149 0.00622634 -5.21585e-18)
(-0.262148 0.00656396 -2.93193e-19)
(-0.260023 0.00685863 -1.34968e-18)
(-0.257787 0.00710881 -1.75862e-18)
(-0.255458 0.00731329 3.59427e-18)
(-0.25305 0.0074712 1.74761e-18)
(-0.25058 0.00758215 -7.32194e-19)
(-0.248065 0.00764624 5.50741e-18)
(-0.245521 0.00766418 1.41803e-18)
(-0.242964 0.00763728 2.28836e-18)
(-0.240409 0.00756736 -3.11079e-18)
(-0.23787 0.00745672 -2.04398e-18)
(-0.235361 0.00730813 -1.44206e-19)
(-0.232895 0.00712482 1.82023e-19)
(-0.230482 0.00691025 -5.36801e-19)
(-0.228132 0.00666805 1.87978e-19)
(-0.225854 0.00640191 -1.57911e-18)
(-0.223655 0.00611558 -5.75209e-18)
(-0.221541 0.00581285 -1.2083e-18)
(-0.219516 0.00549743 -4.08926e-19)
(-0.217582 0.00517295 -4.4072e-19)
(-0.215742 0.00484294 -1.63343e-19)
(-0.213996 0.00451074 4.08472e-18)
(-0.212343 0.00417956 1.65291e-18)
(-0.210781 0.00385238 8.69368e-19)
(-0.209306 0.00353197 -2.41496e-19)
(-0.207916 0.00322091 8.17339e-19)
(-0.206604 0.00292148 4.9424e-18)
(-0.205366 0.0026357 -3.00629e-18)
(-0.204196 0.0023653 -5.95245e-18)
(-0.203085 0.00211175 3.68613e-18)
(-0.202028 0.00187623 -9.82581e-20)
(-0.201016 0.00165966 4.94117e-18)
(-0.200043 0.00146272 1.12857e-18)
(-0.199099 0.00128585 7.65103e-18)
(-0.198178 0.00112931 4.33191e-18)
(-0.19727 0.000993186 1.62601e-18)
(-0.196369 0.000877414 5.71452e-18)
(-0.195466 0.000781857 -6.43484e-18)
(-0.194553 0.000706329 4.67486e-18)
(-0.193622 0.000650641 -2.43246e-18)
(-0.192666 0.000614792 -7.58803e-19)
(-0.191677 0.000598784 -1.94795e-18)
(-0.190647 0.000602899 -5.48234e-20)
(-0.189569 0.000627123 -3.39969e-20)
(-0.188434 0.00067191 -1.77204e-18)
(-0.187235 0.000737963 -5.59049e-18)
(-0.185962 0.000826319 5.56316e-18)
(-0.184608 0.000938948 3.18821e-18)
(-0.183163 0.00107724 2.11634e-18)
(-0.181618 0.00124351 2.0369e-18)
(-0.179963 0.00144027 2.40001e-18)
(-0.178186 0.00167097 6.98206e-18)
(-0.176276 0.00193974 8.71987e-18)
(-0.17422 0.00225157 7.58121e-18)
(-0.172005 0.00261247 7.32769e-18)
(-0.169614 0.00302985 1.80204e-17)
(-0.167031 0.00351253 4.05906e-18)
(-0.164237 0.00407136 9.07742e-18)
(-0.161212 0.00471965 8.28284e-18)
(-0.157934 0.00547385 -2.99962e-18)
(-0.154376 0.00635442 -1.1329e-17)
(-0.150511 0.007387 -4.74079e-18)
(-0.146311 0.00860422 7.04721e-18)
(-0.141741 0.0100476 -2.26232e-18)
(-0.13677 0.0117715 1.03847e-17)
(-0.13136 0.0138464 -2.02464e-18)
(-0.125492 0.0163672 7.86086e-18)
(-0.119111 0.0194584 -3.9551e-19)
(-0.112315 0.0232847 -5.45039e-18)
(-0.104849 0.0281058 -9.50691e-18)
(-0.0975567 0.0338971 3.59997e-18)
(-0.0886564 0.041791 4.43559e-18)
(-0.0829992 0.0492983 3.39757e-18)
(-0.0714903 0.0630834 7.16861e-19)
(-0.0695729 0.0655577 -6.54338e-18)
(-0.0536548 0.0806027 -7.18923e-18)
(-0.0209869 0.0402818 -1.07906e-17)
(1.30258 0.174282 1.55171e-18)
(1.30146 0.18605 3.00818e-18)
(1.29975 0.192668 -1.36823e-18)
(1.29844 0.201758 4.43354e-18)
(1.29773 0.210378 4.00172e-18)
(1.29772 0.219626 -1.49829e-18)
(1.29856 0.229066 -2.77318e-18)
(1.30042 0.238823 1.7488e-18)
(1.30356 0.248809 -6.20581e-19)
(1.30827 0.258981 5.97396e-19)
(1.31473 0.269138 9.82414e-19)
(1.32239 0.278683 3.14001e-19)
(1.32787 0.285779 -1.44784e-18)
(1.31934 0.284636 3.81743e-18)
(1.26822 0.264089 1.4456e-18)
(1.12722 0.211571 2.24691e-18)
(0.843837 0.127771 1.59033e-17)
(0.422037 0.0337197 3.38984e-18)
(0.0662033 0.018995 1.97368e-17)
(-0.059801 0.0237914 6.94908e-18)
(1.30598 0.175961 2.82131e-18)
(1.30502 0.187471 2.48267e-18)
(1.30339 0.193985 6.71653e-19)
(1.30226 0.203021 2.38267e-18)
(1.3017 0.211537 3.07997e-18)
(1.3019 0.220691 -3.07295e-20)
(1.30299 0.229986 -6.8294e-19)