/*--------------------------------*- C++ -*----------------------------------*\
  =========                 |
  \\      /  F ield         | OpenFOAM: The Open Source CFD Toolbox
   \\    /   O peration     | Website:  https://openfoam.org
    \\  /    A nd           | Version:  7
     \\/     M anipulation  |
\*---------------------------------------------------------------------------*/
FoamFile
{
    version     2.0;
    format      ascii;
    class       volScalarField;
    location    "15";
    object      p;
}
// * * * * * * * * * * * * * * * * * * * * * * * * * * * * * * * * * * * * * //

dimensions      [0 2 -2 0 0 0 0];

internalField   nonuniform List<scalar> 
125
(
-0.285029
-0.372958
-0.477245
-0.70196
-0.286141
-0.376885
-0.477935
-0.709318
-0.286821
-0.379838
-0.47701
-0.71862
-0.287128
-0.382066
-0.475622
-0.730228
-0.287089
-0.38356
-0.473568
-0.744223
-0.286667
-0.384235
-0.470656
-0.760497
-0.285748
-0.383805
-0.466279
-0.780932
-0.28432
-0.382046
-0.460394
-0.811218
-0.282973
-0.379691
-0.455575
-0.852581
-0.282933
-0.378819
-0.456514
-0.882012
-0.233133
-0.273024
-0.349997
-0.49049
-0.624093
-0.234937
-0.27562
-0.352884
-0.491889
-0.623294
-0.236552
-0.277952
-0.355958
-0.493858
-0.622526
-0.237936
-0.279842
-0.358596
-0.494993
-0.624531
-0.239105
-0.281327
-0.360931
-0.495373
-0.628844
-0.282412
-0.362986
-0.494937
-0.635492
-0.282988
-0.364591
-0.493161
-0.644745
-0.282888
-0.365408
-0.489234
-0.659752
-0.282442
-0.365902
-0.483937
-0.685974
-0.283054
-0.368334
-0.480411
-0.711809
-0.170597
-0.128296
-0.171023
-0.128156
-0.171484
-0.128069
-0.171938
-0.127991
-0.172398
-0.127918
-0.172867
-0.127847
-0.17335
-0.127778
-0.173809
-0.127764
-0.174233
-0.127858
-0.175006
-0.127622
-0.128623
-0.128566
-0.128521
-0.128488
-0.128463
-0.128447
-0.128441
-0.128452
-0.128482
-0.128459
-0.183195
-0.120432
-0.171938
-0.132027
-0.174787
-0.157852
-0.160912
-0.163771
-0.156486
-0.167299
)
;

boundaryField
{
    inlet
    {
        type            zeroGradient;
    }
    outlet
    {
        type            fixedValue;
        value           nonuniform 0();
    }
    polygon
    {
        type            zeroGradient;
    }
    top
    {
        type            symmetryPlane;
    }
    bottom
    {
        type            symmetryPlane;
    }
    outside
    {
        type            slip;
    }
    procBoundary6to2
    {
        type            processor;
        value           nonuniform List<scalar> 
23
(
-0.243304
-0.244075
-0.24455
-0.244741
-0.244659
-0.24428
-0.243535
-0.242404
-0.241178
-0.24053
-0.202829
-0.203831
-0.204702
-0.205432
-0.206026
-0.240059
-0.240059
-0.240746
-0.241092
-0.24127
-0.24196
-0.142029
-0.164939
)
;
    }
    procBoundary6to3
    {
        type            processor;
        value           nonuniform List<scalar> 
11
(
-0.0360801
-0.0365036
-0.0369205
-0.0373393
-0.0378107
-0.038247
-0.0388171
-0.0385969
-0.0395793
-0.0390268
-0.0395056
)
;
    }
    procBoundary6to5
    {
        type            processor;
        value           nonuniform List<scalar> 4(-0.283699 -0.379303 -0.459377 -0.853252);
    }
    procBoundary6to7
    {
        type            processor;
        value           nonuniform List<scalar> 
15
(
-0.0343834
-0.170292
-0.0347733
-0.0352236
-0.0356552
-0.16862
-0.168804
-0.168933
-0.169097
-0.169269
-0.169453
-0.169649
-0.169858
-0.17007
-0.170292
)
;
    }
    procBoundary6to10
    {
        type            processor;
        value           uniform -0.128623;
    }
}


// ************************************************************************* //
