/*--------------------------------*- C++ -*----------------------------------*\
  =========                 |
  \\      /  F ield         | OpenFOAM: The Open Source CFD Toolbox
   \\    /   O peration     | Website:  https://openfoam.org
    \\  /    A nd           | Version:  10
     \\/     M anipulation  |
\*---------------------------------------------------------------------------*/
FoamFile
{
    format      ascii;
    class       volScalarField;
    location    "15";
    object      p;
}
// * * * * * * * * * * * * * * * * * * * * * * * * * * * * * * * * * * * * * //

dimensions      [0 2 -2 0 0 0 0];

internalField   nonuniform List<scalar> 
2000
(
0.00342073
0.00976997
0.00849623
0.0209344
-0.00454998
0.0186433
-0.0556078
-0.034174
-0.170292
-0.128459
0.00342582
0.00978903
0.00850249
0.0209748
-0.00453352
0.0187422
-0.0555169
-0.0340065
-0.17007
-0.128482
0.00343062
0.00980675
0.00851056
0.0210109
-0.00451282
0.0188267
-0.0554282
-0.033857
-0.169858
-0.128452
0.00343474
0.00982231
0.00851707
0.0210441
-0.00449457
0.0189089
-0.0553435
-0.0337018
-0.169649
-0.128441
0.0034381
0.00983558
0.00852162
0.0210743
-0.00447969
0.0189881
-0.0552637
-0.0335443
-0.169453
-0.128447
0.00344074
0.00984658
0.00852446
0.0211013
-0.00446772
0.019063
-0.0551889
-0.0333872
-0.169269
-0.128463
0.00344264
0.0098553
0.00852562
0.0211251
-0.00445851
0.0191335
-0.0551192
-0.0332312
-0.169097
-0.128488
0.00344377
0.00986169
0.00852493
0.0211461
-0.00445218
0.0192005
-0.0550538
-0.0330769
-0.168933
-0.128521
0.00344418
0.00986572
0.00852247
0.0211637
-0.00444912
0.0192649
-0.0549933
-0.0329198
-0.168804
-0.128566
0.0034443
0.00986758
0.00852009
0.0211735
-0.00444934
0.0193133
-0.0549557
-0.0327643
-0.16862
-0.128623
0.00336765
0.00953578
0.0084712
0.0202825
-0.00477662
0.0166623
-0.0573542
-0.038247
-0.175006
-0.127622
0.00337495
0.00956814
0.0084795
0.0203641
-0.00474041
0.0168888
-0.0571548
-0.0378107
-0.174233
-0.127858
0.00338115
0.00959507
0.00848297
0.0204424
-0.00471002
0.0171287
-0.0569423
-0.0373393
-0.173809
-0.127764
0.0033873
0.00962088
0.00848705
0.0205135
-0.00468254
0.017342
-0.0567541
-0.0369205
-0.17335
-0.127778
0.00339316
0.00964596
0.0084909
0.0205821
-0.00465631
0.0175478
-0.0565707
-0.0365036
-0.172867
-0.127847
0.00339859
0.0096699
0.00849377
0.0206491
-0.00463143
0.0177521
-0.0563862
-0.0360801
-0.172398
-0.127918
0.00340356
0.00969253
0.00849561
0.0207145
-0.0046079
0.017954
-0.0562015
-0.0356552
-0.171938
-0.127991
0.00340801
0.00971386
0.00849628
0.0207787
-0.00458547
0.0181559
-0.0560136
-0.0352236
-0.171484
-0.128069
0.00341195
0.00973366
0.00849532
0.0208405
-0.0045664
0.0183565
-0.055827
-0.0347733
-0.171023
-0.128156
0.00341586
0.00975154
0.00849368
0.020891
-0.00455794
0.0185206
-0.055692
-0.0343834
-0.170597
-0.128296
-0.157203
-0.164402
-0.172889
-0.187958
-0.207086
-0.24196
-0.283054
-0.368334
-0.480411
-0.711809
-0.157293
-0.164557
-0.172925
-0.187916
-0.206818
-0.24127
-0.282442
-0.365902
-0.483937
-0.685974
-0.157377
-0.164705
-0.173014
-0.187986
-0.206847
-0.241092
-0.282888
-0.365408
-0.489234
-0.659752
-0.157437
-0.164813
-0.173058
-0.187983
-0.206771
-0.240746
-0.282988
-0.364591
-0.493161
-0.644745
-0.157469
-0.164873
-0.17303
-0.187857
-0.206484
-0.240059
-0.282412
-0.362986
-0.494937
-0.635492
-0.157476
-0.164888
-0.172942
-0.187629
-0.206026
-0.239105
-0.281327
-0.360931
-0.495373
-0.628844
-0.157459
-0.164862
-0.1728
-0.187314
-0.205432
-0.237936
-0.279842
-0.358596
-0.494993
-0.624531
-0.157421
-0.164797
-0.172609
-0.186915
-0.204702
-0.236552
-0.277952
-0.355958
-0.493858
-0.622526
-0.157362
-0.164694
-0.172366
-0.186429
-0.203831
-0.234937
-0.27562
-0.352884
-0.491889
-0.623294
-0.157281
-0.16455
-0.172072
-0.185858
-0.202829
-0.233133
-0.273024
-0.349997
-0.49049
-0.624093
-0.153962
-0.159474
-0.169162
-0.183808
-0.204946
-0.24053
-0.282933
-0.378819
-0.456514
-0.882012
-0.154498
-0.160225
-0.169793
-0.184532
-0.205455
-0.241178
-0.282973
-0.379691
-0.455575
-0.852581
-0.154992
-0.160954
-0.170459
-0.185383
-0.206282
-0.242404
-0.28432
-0.382046
-0.460394
-0.811218
-0.155438
-0.161625
-0.171071
-0.186173
-0.207059
-0.243535
-0.285748
-0.383805
-0.466279
-0.780932
-0.155832
-0.162225
-0.171588
-0.186818
-0.207622
-0.24428
-0.286667
-0.384235
-0.470656
-0.760497
-0.156177
-0.162755
-0.172013
-0.187321
-0.207977
-0.244659
-0.287089
-0.38356
-0.473568
-0.744223
-0.156474
-0.163218
-0.172357
-0.187703
-0.208161
-0.244741
-0.287128
-0.382066
-0.475622
-0.730228
-0.156726
-0.163618
-0.172622
-0.18797
-0.208187
-0.24455
-0.286821
-0.379838
-0.47701
-0.71862
-0.156933
-0.163954
-0.172808
-0.188119
-0.208048
-0.244075
-0.286141
-0.376885
-0.477935
-0.709318
-0.157098
-0.164228
-0.172917
-0.18815
-0.20774
-0.243304
-0.285029
-0.372958
-0.477245
-0.70196
-0.145547
-0.148236
-0.158646
-0.171241
-0.192754
-0.223782
-0.26704
-0.33205
-0.429864
-0.739438
-0.146642
-0.149648
-0.159983
-0.17281
-0.194339
-0.225909
-0.269304
-0.338863
-0.431908
-0.744906
-0.147685
-0.151029
-0.161352
-0.174506
-0.196215
-0.228607
-0.272451
-0.347198
-0.4369
-0.736912
-0.148671
-0.152345
-0.162658
-0.176135
-0.19801
-0.231225
-0.275442
-0.355088
-0.442767
-0.740341
-0.149598
-0.153585
-0.163864
-0.17762
-0.199577
-0.233498
-0.277848
-0.361781
-0.448089
-0.752519
-0.150467
-0.154749
-0.164973
-0.178967
-0.200934
-0.235442
-0.279732
-0.367342
-0.452511
-0.767981
-0.151279
-0.155841
-0.165995
-0.180195
-0.202116
-0.237106
-0.281239
-0.371885
-0.456068
-0.785246
-0.152034
-0.156862
-0.166931
-0.181309
-0.203136
-0.238497
-0.282441
-0.375331
-0.458794
-0.804923
-0.152735
-0.157812
-0.167782
-0.182303
-0.203986
-0.23958
-0.283286
-0.377806
-0.460312
-0.827967
-0.15338
-0.15869
-0.168544
-0.183176
-0.204662
-0.240371
-0.283699
-0.379303
-0.459377
-0.853252
-0.13202
-0.131273
-0.141833
-0.151802
-0.172025
-0.19776
-0.228291
-0.254658
-0.283571
-0.162796
-0.135231
-0.135113
-0.14627
-0.156994
-0.178122
-0.205052
-0.237513
-0.265394
-0.305451
-0.192598
-0.136915
-0.137145
-0.148271
-0.159162
-0.180239
-0.207478
-0.241628
-0.273167
-0.329056
-0.239547
-0.137949
-0.138477
-0.149441
-0.160482
-0.181533
-0.209213
-0.245326
-0.281703
-0.350216
-0.289452
-0.139
-0.139855
-0.150731
-0.162034
-0.183252
-0.211585
-0.24965
-0.290655
-0.368729
-0.339634
-0.140153
-0.141347
-0.152183
-0.163777
-0.185203
-0.214185
-0.253916
-0.299159
-0.38538
-0.393027
-0.14131
-0.142831
-0.153622
-0.16548
-0.187049
-0.216583
-0.257652
-0.307033
-0.400228
-0.451406
-0.142418
-0.144249
-0.154973
-0.16706
-0.188704
-0.21871
-0.260831
-0.314359
-0.412723
-0.515237
-0.143475
-0.145601
-0.156243
-0.168532
-0.190205
-0.220631
-0.263519
-0.321135
-0.422291
-0.585266
-0.14449
-0.146897
-0.157445
-0.169915
-0.191566
-0.222353
-0.265674
-0.327147
-0.427865
-0.6602
0.0333579
0.0285157
0.0382669
0.0282126
0.0485248
0.0331184
0.0833233
0.0591218
0.231191
0.18547
0.0333515
0.0285189
0.0382381
0.028247
0.0484576
0.0332548
0.0830666
0.0595844
0.229356
0.174724
0.0333459
0.0285228
0.0382086
0.0282837
0.0483846
0.0334069
0.0827988
0.060114
0.227387
0.164785
0.0333388
0.0285252
0.038181
0.0283171
0.0483079
0.0335433
0.082508
0.060538
0.225164
0.154323
0.0333323
0.0285265
0.0381506
0.0283484
0.0482267
0.0336688
0.0821909
0.0608813
0.222648
0.143077
0.0333257
0.028527
0.0381192
0.028378
0.0481406
0.0337849
0.0818473
0.0611541
0.219832
0.131191
0.033319
0.0285264
0.0380865
0.0284055
0.0480501
0.0338897
0.0814762
0.0613456
0.216701
0.118726
0.0333123
0.0285245
0.0380535
0.0284305
0.0479578
0.0339859
0.0810875
0.061474
0.213374
0.10568
0.0333058
0.0285217
0.038022
0.0284559
0.0478622
0.0340935
0.0806988
0.0616388
0.209994
0.0919982
0.0332973
0.0285224
0.0379792
0.0284866
0.0477349
0.0341793
0.0801929
0.0615949
0.205105
0.077499
0.0333836
0.0285201
0.0384049
0.0280919
0.0489315
0.0326327
0.0850136
0.0580766
0.241966
0.245873
0.0333815
0.0285243
0.0383983
0.0281108
0.048924
0.0327106
0.0850209
0.0584819
0.242275
0.24463
0.0333796
0.0285274
0.0383909
0.0281261
0.0489087
0.0327782
0.0849811
0.0587878
0.242192
0.242423
0.0333775
0.0285292
0.0383814
0.02814
0.0488854
0.0328373
0.0848983
0.059016
0.241789
0.239191
0.0333752
0.02853
0.03837
0.0281526
0.0488541
0.0328899
0.0847737
0.0591775
0.24107
0.234899
0.0333727
0.0285298
0.0383568
0.0281638
0.0488149
0.0329358
0.0846073
0.0592704
0.240028
0.229542
0.0333701
0.0285285
0.0383418
0.0281737
0.0487679
0.0329748
0.0844004
0.0592959
0.238669
0.223124
0.0333673
0.028526
0.0383249
0.0281818
0.0487125
0.033005
0.0841509
0.0592467
0.236967
0.215688
0.0333644
0.0285222
0.0383061
0.0281873
0.0486487
0.0330235
0.0838497
0.0591006
0.234807
0.207261
0.0333613
0.0285182
0.0382855
0.0281943
0.0485811
0.0330494
0.0835288
0.0589588
0.232441
0.197313
0.0333613
0.0285182
0.0382856
0.0281943
0.0485811
0.0330494
0.0835288
0.0589588
0.232441
0.197313
0.0333644
0.0285222
0.0383061
0.0281873
0.0486487
0.0330235
0.0838497
0.0591006
0.234807
0.207261
0.0333673
0.028526
0.0383249
0.0281818
0.0487125
0.033005
0.0841509
0.0592467
0.236967
0.215688
0.0333701
0.0285285
0.0383418
0.0281737
0.0487679
0.0329748
0.0844004
0.0592959
0.238669
0.223124
0.0333727
0.0285298
0.0383568
0.0281638
0.0488149
0.0329358
0.0846073
0.0592704
0.240028
0.229542
0.0333752
0.02853
0.03837
0.0281526
0.0488541
0.0328899
0.0847737
0.0591775
0.24107
0.234899
0.0333775
0.0285292
0.0383814
0.02814
0.0488854
0.0328373
0.0848983
0.059016
0.241789
0.239191
0.0333796
0.0285274
0.0383909
0.0281261
0.0489087
0.0327782
0.0849811
0.0587878
0.242192
0.242423
0.0333815
0.0285243
0.0383983
0.0281108
0.048924
0.0327106
0.0850209
0.0584819
0.242275
0.24463
0.0333836
0.0285201
0.0384049
0.0280919
0.0489315
0.0326327
0.0850136
0.0580766
0.241966
0.245873
0.0332973
0.0285224
0.0379792
0.0284866
0.0477349
0.0341792
0.0801929
0.0615949
0.205105
0.077499
0.0333058
0.0285217
0.038022
0.0284559
0.0478622
0.0340934
0.0806988
0.0616389
0.209994
0.0919982
0.0333123
0.0285245
0.0380535
0.0284305
0.0479577
0.0339859
0.0810875
0.061474
0.213374
0.10568
0.033319
0.0285264
0.0380866
0.0284055
0.04805
0.0338897
0.0814762
0.0613456
0.216701
0.118726
0.0333257
0.028527
0.0381192
0.028378
0.0481406
0.0337849
0.0818473
0.0611541
0.219832
0.131191
0.0333323
0.0285265
0.0381506
0.0283484
0.0482267
0.0336687
0.0821909
0.0608813
0.222648
0.143077
0.0333388
0.0285252
0.038181
0.0283171
0.0483079
0.0335433
0.082508
0.0605381
0.225164
0.154323
0.0333458
0.0285228
0.0382087
0.0282837
0.0483846
0.0334069
0.0827988
0.0601141
0.227387
0.164785
0.0333515
0.0285189
0.0382381
0.028247
0.0484576
0.0332548
0.0830667
0.0595844
0.229356
0.174724
0.0333579
0.0285157
0.038267
0.0282127
0.0485248
0.0331184
0.0833233
0.0591218
0.231191
0.18547
-0.14449
-0.146897
-0.157445
-0.169915
-0.191566
-0.222353
-0.265674
-0.327147
-0.427865
-0.6602
-0.143475
-0.145601
-0.156243
-0.168532
-0.190205
-0.220631
-0.263519
-0.321135
-0.422291
-0.585266
-0.142418
-0.144249
-0.154973
-0.16706
-0.188704
-0.21871
-0.260831
-0.314359
-0.412723
-0.515237
-0.14131
-0.142831
-0.153622
-0.16548
-0.187049
-0.216583
-0.257652
-0.307033
-0.400228
-0.451406
-0.140153
-0.141347
-0.152183
-0.163777
-0.185203
-0.214185
-0.253916
-0.299159
-0.38538
-0.393027
-0.139
-0.139855
-0.150731
-0.162034
-0.183252
-0.211585
-0.24965
-0.290655
-0.368729
-0.339634
-0.137949
-0.138477
-0.149441
-0.160482
-0.181533
-0.209213
-0.245326
-0.281703
-0.350216
-0.289452
-0.136915
-0.137145
-0.148271
-0.159162
-0.180239
-0.207478
-0.241628
-0.273167
-0.329056
-0.239547
-0.135231
-0.135113
-0.14627
-0.156994
-0.178122
-0.205052
-0.237513
-0.265394
-0.305451
-0.192598
-0.13202
-0.131273
-0.141833
-0.151802
-0.172025
-0.19776
-0.228291
-0.254658
-0.283571
-0.162796
-0.15338
-0.15869
-0.168544
-0.183176
-0.204662
-0.240371
-0.283699
-0.379303
-0.459377
-0.853252
-0.152735
-0.157812
-0.167782
-0.182304
-0.203986
-0.23958
-0.283286
-0.377806
-0.460312
-0.827967
-0.152034
-0.156862
-0.166931
-0.181309
-0.203136
-0.238497
-0.282441
-0.375331
-0.458794
-0.804923
-0.151279
-0.155841
-0.165995
-0.180195
-0.202116
-0.237106
-0.281239
-0.371885
-0.456068
-0.785246
-0.150467
-0.154749
-0.164973
-0.178967
-0.200934
-0.235442
-0.279732
-0.367342
-0.452511
-0.767981
-0.149598
-0.153585
-0.163864
-0.17762
-0.199577
-0.233498
-0.277848
-0.361781
-0.448089
-0.752519
-0.148671
-0.152345
-0.162658
-0.176135
-0.19801
-0.231225
-0.275442
-0.355088
-0.442767
-0.740341
-0.147685
-0.151029
-0.161352
-0.174506
-0.196215
-0.228607
-0.272451
-0.347198
-0.4369
-0.736912
-0.146642
-0.149648
-0.159983
-0.17281
-0.194339
-0.225909
-0.269304
-0.338863
-0.431908
-0.744906
-0.145547
-0.148236
-0.158646
-0.171241
-0.192754
-0.223782
-0.26704
-0.33205
-0.429864
-0.739438
-0.157098
-0.164228
-0.172917
-0.18815
-0.20774
-0.243304
-0.285029
-0.372958
-0.477245
-0.70196
-0.156933
-0.163954
-0.172808
-0.188119
-0.208048
-0.244075
-0.286141
-0.376885
-0.477935
-0.709318
-0.156726
-0.163618
-0.172622
-0.18797
-0.208187
-0.24455
-0.286821
-0.379838
-0.47701
-0.71862
-0.156474
-0.163218
-0.172357
-0.187703
-0.208161
-0.244741
-0.287128
-0.382066
-0.475622
-0.730228
-0.156177
-0.162755
-0.172013
-0.187321
-0.207977
-0.244659
-0.287089
-0.38356
-0.473568
-0.744223
-0.155832
-0.162225
-0.171588
-0.186818
-0.207622
-0.24428
-0.286667
-0.384235
-0.470656
-0.760497
-0.155438
-0.161625
-0.171071
-0.186173
-0.207059
-0.243535
-0.285748
-0.383805
-0.466279
-0.780932
-0.154992
-0.160954
-0.170459
-0.185383
-0.206282
-0.242404
-0.28432
-0.382046
-0.460394
-0.811218
-0.154498
-0.160225
-0.169793
-0.184532
-0.205455
-0.241178
-0.282973
-0.379691
-0.455575
-0.852581
-0.153962
-0.159474
-0.169162
-0.183808
-0.204946
-0.24053
-0.282933
-0.378819
-0.456514
-0.882012
-0.157281
-0.16455
-0.172072
-0.185858
-0.202829
-0.233133
-0.273024
-0.349997
-0.49049
-0.624093
-0.157362
-0.164694
-0.172366
-0.186429
-0.203831
-0.234937
-0.27562
-0.352884
-0.491889
-0.623294
-0.157421
-0.164797
-0.172609
-0.186915
-0.204702
-0.236552
-0.277952
-0.355958
-0.493858
-0.622526
-0.157459
-0.164862
-0.1728
-0.187314
-0.205432
-0.237936
-0.279842
-0.358596
-0.494993
-0.624531
-0.157476
-0.164888
-0.172942
-0.187629
-0.206026
-0.239105
-0.281327
-0.360931
-0.495373
-0.628844
-0.157469
-0.164873
-0.17303
-0.187857
-0.206484
-0.240059
-0.282412
-0.362986
-0.494937
-0.635492
-0.157437
-0.164813
-0.173058
-0.187983
-0.206771
-0.240746
-0.282988
-0.364591
-0.493161
-0.644745
-0.157377
-0.164705
-0.173014
-0.187986
-0.206847
-0.241092
-0.282888
-0.365408
-0.489234
-0.659752
-0.157293
-0.164557
-0.172925
-0.187916
-0.206818
-0.24127
-0.282442
-0.365902
-0.483937
-0.685974
-0.157203
-0.164402
-0.172889
-0.187958
-0.207086
-0.24196
-0.283054
-0.368334
-0.480411
-0.711809
0.00341586
0.00975154
0.00849368
0.020891
-0.00455794
0.0185206
-0.055692
-0.0343834
-0.170597
-0.128296
0.00341195
0.00973366
0.00849532
0.0208405
-0.0045664
0.0183565
-0.055827
-0.0347733
-0.171023
-0.128156
0.00340801
0.00971386
0.00849628
0.0207787
-0.00458547
0.0181559
-0.0560136
-0.0352236
-0.171484
-0.128069
0.00340356
0.00969253
0.00849561
0.0207145
-0.0046079
0.017954
-0.0562015
-0.0356552
-0.171938
-0.127991
0.00339859
0.0096699
0.00849378
0.0206491
-0.00463143
0.0177521
-0.0563862
-0.0360801
-0.172398
-0.127918
0.00339316
0.00964596
0.0084909
0.0205821
-0.00465631
0.0175478
-0.0565707
-0.0365036
-0.172867
-0.127847
0.0033873
0.00962088
0.00848705
0.0205135
-0.00468254
0.0173419
-0.0567541
-0.0369205
-0.17335
-0.127778
0.00338115
0.00959507
0.00848297
0.0204424
-0.00471002
0.0171287
-0.0569423
-0.0373393
-0.173809
-0.127764
0.00337495
0.00956814
0.0084795
0.0203641
-0.00474041
0.0168888
-0.0571548
-0.0378107
-0.174233
-0.127858
0.00336765
0.00953578
0.0084712
0.0202825
-0.00477662
0.0166623
-0.0573542
-0.038247
-0.175006
-0.127622
0.0034443
0.00986758
0.00852009
0.0211735
-0.00444934
0.0193133
-0.0549557
-0.0327643
-0.16862
-0.128623
0.00344418
0.00986572
0.00852247
0.0211637
-0.00444912
0.0192649
-0.0549933
-0.0329198
-0.168804
-0.128566
0.00344377
0.00986169
0.00852493
0.0211461
-0.00445218
0.0192005
-0.0550538
-0.0330769
-0.168933
-0.128521
0.00344264
0.0098553
0.00852562
0.0211251
-0.00445851
0.0191335
-0.0551192
-0.0332312
-0.169097
-0.128488
0.00344074
0.00984658
0.00852446
0.0211013
-0.00446772
0.019063
-0.0551889
-0.0333872
-0.169269
-0.128463
0.0034381
0.00983558
0.00852162
0.0210743
-0.00447969
0.0189881
-0.0552637
-0.0335443
-0.169453
-0.128447
0.00343474
0.00982231
0.00851707
0.0210441
-0.00449457
0.0189089
-0.0553435
-0.0337018
-0.169649
-0.128441
0.00343062
0.00980675
0.00851056
0.0210109
-0.00451282
0.0188267
-0.0554282
-0.033857
-0.169858
-0.128452
0.00342582
0.00978903
0.00850249
0.0209748
-0.00453352
0.0187422
-0.0555169
-0.0340065
-0.17007
-0.128482
0.00342073
0.00976997
0.00849623
0.0209344
-0.00454998
0.0186433
-0.0556078
-0.034174
-0.170292
-0.128459
0.030792
0.0281405
0.030729
0.0253819
0.0255393
0.0168473
0.00583446
-0.00679562
-0.0493119
-0.0650471
0.0312924
0.0279205
0.0318351
0.0255558
0.0283957
0.019049
0.0132299
0.000634076
-0.0401549
-0.0500818
0.0315494
0.0279061
0.0325229
0.0257902
0.030167
0.0203026
0.0172887
0.00459011
-0.0328333
-0.0447916
0.0319208
0.0278765
0.0334681
0.0260939
0.0329222
0.0221329
0.0250909
0.0104789
-0.0209522
-0.0357804
0.0322382
0.0279074
0.034348
0.0264525
0.0354513
0.0239385
0.0324416
0.0160286
-0.00651064
-0.0307393
0.0325291
0.0279812
0.0352025
0.0268397
0.0382304
0.0258553
0.0414529
0.0222376
0.01392
-0.0272338
0.0328217
0.0280382
0.0360755
0.02723
0.0408289
0.0278579
0.0504535
0.0292738
0.0388831
-0.0226467
0.0329902
0.0282088
0.0366348
0.0277285
0.043165
0.0299074
0.0597405
0.0369218
0.0736561
-0.031679
0.0332205
0.0282396
0.0374766
0.0279257
0.0454464
0.0316176
0.0688764
0.0459386
0.11763
0.00134954
0.0332228
0.0285675
0.0375459
0.0286366
0.046809
0.0338812
0.0761359
0.0565547
0.160462
-0.00215538
0.0332228
0.0285675
0.0375459
0.0286366
0.046809
0.0338812
0.0761359
0.0565547
0.160462
-0.00215538
0.0332205
0.0282396
0.0374766
0.0279257
0.0454464
0.0316176
0.0688764
0.0459386
0.11763
0.00134954
0.0329903
0.0282088
0.0366348
0.0277285
0.043165
0.0299074
0.0597405
0.0369218
0.0736561
-0.031679
0.0328217
0.0280382
0.0360755
0.02723
0.0408289
0.0278579
0.0504535
0.0292738
0.0388831
-0.0226467
0.0325291
0.0279812
0.0352025
0.0268396
0.0382304
0.0258553
0.0414529
0.0222376
0.0139199
-0.0272338
0.0322382
0.0279074
0.034348
0.0264525
0.0354513
0.0239385
0.0324416
0.0160286
-0.00651065
-0.0307393
0.0319208
0.0278765
0.0334681
0.0260939
0.0329222
0.0221329
0.0250909
0.0104789
-0.0209522
-0.0357804
0.0315494
0.0279061
0.0325229
0.0257902
0.030167
0.0203026
0.0172887
0.00459011
-0.0328333
-0.0447916
0.0312924
0.0279205
0.0318351
0.0255558
0.0283957
0.019049
0.0132299
0.000634076
-0.0401549
-0.0500818
0.030792
0.0281405
0.030729
0.0253819
0.0255393
0.0168473
0.00583446
-0.00679562
-0.0493119
-0.0650471
0.00331671
0.00931963
0.00839212
0.0199087
-0.00493909
0.0160223
-0.0578441
-0.0388171
-0.183195
-0.120432
0.00316802
0.00894595
0.00807745
0.0193599
-0.00531598
0.0153267
-0.057692
-0.0385969
-0.171938
-0.132027
0.0029814
0.00853871
0.00776414
0.018661
-0.00563167
0.01418
-0.0572362
-0.0395793
-0.174787
-0.157852
0.00277591
0.00814312
0.00745611
0.0180052
-0.00584057
0.0132242
-0.0560575
-0.0390268
-0.160912
-0.163771
0.002561
0.00777306
0.00717435
0.0174075
-0.00593808
0.01237
-0.0546139
-0.0395056
-0.156486
-0.167299
0.0023424
0.00743288
0.00693436
0.0169056
-0.00589888
0.0117931
-0.0526809
-0.0378626
-0.142029
-0.164939
0.00212016
0.00712197
0.00673958
0.0165035
-0.00575415
0.0113813
-0.0508928
-0.0378342
-0.136842
-0.16177
0.00189649
0.00684422
0.00659484
0.0162203
-0.00543873
0.0113424
-0.048317
-0.0351672
-0.121545
-0.157891
0.00168847
0.00659329
0.00648291
0.0160207
-0.00517773
0.0112867
-0.0468614
-0.0349054
-0.11851
-0.154812
0.00136626
0.00629792
0.00644078
0.0159841
-0.00439432
0.0119335
-0.0430892
-0.0310874
-0.101352
-0.151308
0.00136626
0.00629792
0.00644077
0.0159841
-0.00439432
0.0119335
-0.0430892
-0.0310874
-0.101352
-0.151308
0.00168847
0.00659328
0.00648291
0.0160207
-0.00517773
0.0112867
-0.0468614
-0.0349053
-0.11851
-0.154812
0.00189649
0.00684421
0.00659484
0.0162203
-0.00543873
0.0113424
-0.048317
-0.0351672
-0.121545
-0.157891
0.00212015
0.00712196
0.00673958
0.0165035
-0.00575415
0.0113813
-0.0508928
-0.0378342
-0.136842
-0.16177
0.0023424
0.00743288
0.00693436
0.0169056
-0.00589888
0.0117931
-0.0526809
-0.0378626
-0.142029
-0.164939
0.002561
0.00777306
0.00717435
0.0174075
-0.00593808
0.01237
-0.0546139
-0.0395056
-0.156486
-0.167299
0.00277591
0.00814312
0.00745611
0.0180052
-0.00584057
0.0132242
-0.0560575
-0.0390268
-0.160912
-0.163771
0.0029814
0.0085387
0.00776414
0.018661
-0.00563167
0.01418
-0.0572362
-0.0395793
-0.174787
-0.157852
0.00316802
0.00894595
0.00807745
0.0193599
-0.00531598
0.0153267
-0.057692
-0.0385969
-0.171938
-0.132027
0.00331671
0.00931963
0.00839213
0.0199087
-0.00493909
0.0160223
-0.0578441
-0.0388171
-0.183195
-0.120432
)
;

boundaryField
{
    inlet
    {
        type            zeroGradient;
    }
    outlet
    {
        type            fixedValue;
        value           uniform 0;
    }
    polygon
    {
        type            zeroGradient;
    }
    top
    {
        type            symmetryPlane;
    }
    bottom
    {
        type            symmetryPlane;
    }
    outside
    {
        type            slip;
    }
}


// ************************************************************************* //
