/*--------------------------------*- C++ -*----------------------------------*\
  =========                 |
  \\      /  F ield         | OpenFOAM: The Open Source CFD Toolbox
   \\    /   O peration     | Website:  https://openfoam.org
    \\  /    A nd           | Version:  10
     \\/     M anipulation  |
\*---------------------------------------------------------------------------*/
FoamFile
{
    format      ascii;
    class       surfaceScalarField;
    location    "15";
    object      phi;
}
// * * * * * * * * * * * * * * * * * * * * * * * * * * * * * * * * * * * * * //

dimensions      [0 3 -1 0 0 0 0];

internalField   nonuniform List<scalar> 
3800
(
-0.00155305
0.000968491
-0.00107064
-0.00143209
0.00115127
-0.00127222
-0.00130707
0.00119355
-0.00131858
-0.00115782
0.00143316
-0.00158242
-0.000977268
0.00172523
-0.00190577
-0.000792725
0.00177753
-0.00196208
-0.0005259
0.0025201
-0.00278692
-0.000351872
0.00161359
-0.00178761
-0.000241697
0.000361374
-0.00047155
0.00201463
-0.00225633
-0.00154729
0.000864822
-0.00142438
0.00102837
-0.00129725
0.00106642
-0.00114518
0.00128109
-0.000961546
0.00154159
-0.00077331
0.0015893
-0.000502736
0.00224952
-0.000326949
0.0014378
-0.000236097
0.000270523
0.00177853
-0.00154208
0.00075978
-0.00141743
0.000903714
-0.00128838
0.000937372
-0.0011338
0.00112651
-0.000947339
0.00135513
-0.000755839
0.0013978
-0.00048189
0.00197557
-0.000304746
0.00126066
-0.00023137
0.000197146
0.00154716
-0.00153746
0.000653519
-0.00141126
0.00077751
-0.00128052
0.000806627
-0.00112372
0.000969716
-0.000934758
0.00116617
-0.000740379
0.00120342
-0.000463496
0.00169869
-0.000285279
0.00108244
-0.000227445
0.000139313
0.00131972
-0.00153346
0.000546205
-0.00140592
0.000649966
-0.0012737
0.000674416
-0.00111499
0.000811
-0.000923878
0.000975056
-0.00072702
0.00100656
-0.00044764
0.00141931
-0.000268574
0.000903372
-0.000224252
9.49916e-05
0.00109547
-0.00153009
0.000438008
-0.00140143
0.0005213
-0.00126799
0.000540979
-0.00110767
0.000650681
-0.000914764
0.00078215
-0.00071584
0.000807637
-0.000434397
0.00113787
-0.000254655
0.00072363
-0.000221734
6.20709e-05
0.000873732
-0.00152738
0.000329105
-0.00139782
0.000391737
-0.0012634
0.000406561
-0.00110181
0.000489085
-0.00090747
0.000587815
-0.000706909
0.000607077
-0.000423832
0.00085479
-0.000243542
0.00054334
-0.00021984
3.83695e-05
0.000653892
-0.00152534
0.000219678
-0.00139512
0.000261508
-0.00125997
0.000271419
-0.00109743
0.000326544
-0.000902042
0.000392424
-0.000700282
0.000405317
-0.000415997
0.000570504
-0.000235252
0.000362595
-0.000218533
2.16508e-05
0.000435358
-0.00152399
0.000109914
-0.00139333
0.00013085
-0.00125772
0.000135811
-0.00109458
0.000163401
-0.000898514
0.000196358
-0.000696002
0.000202804
-0.000410933
0.000285436
-0.000229798
0.000181461
-0.000217785
9.63751e-06
0.000217573
-0.00152333
8.62063e-12
-0.00139248
-3.66842e-12
-0.00125667
-1.46663e-11
-0.00109327
1.48484e-11
-0.000896911
3.44564e-11
-0.000694107
-2.45437e-11
-0.000408671
-4.36332e-11
-0.000227211
-3.40644e-11
-0.000217573
-3.20834e-12
3.0645e-11
-0.00137198
0.00179627
-0.00186925
-0.0012872
0.00212404
-0.00220882
-0.00120106
0.0021956
-0.00228174
-0.0011002
0.00261853
-0.0027194
-0.00097882
0.00316334
-0.00328472
-0.000856924
0.00323435
-0.00335625
-0.000679955
0.00463799
-0.00481495
-0.000575337
0.0029268
-0.00303141
-0.000273941
0.0022105
-0.00251189
0.0043115
-0.00458544
-0.00136555
0.00172163
-0.00127872
0.00203722
-0.00119
0.00210687
-0.00108642
0.00251496
-0.00096054
0.00303746
-0.000835258
0.00310907
-0.000650763
0.00445349
-0.000542169
0.0028182
-0.00026222
0.00193055
0.00404928
-0.00135927
0.0016454
-0.00127034
0.0019483
-0.00117929
0.00201582
-0.00107264
0.00240831
-0.000943037
0.00290786
-0.000813442
0.00297947
-0.00062301
0.00426306
-0.000508954
0.00270415
-0.000251898
0.00167349
0.00379738
-0.00135313
0.00156759
-0.00126217
0.00185733
-0.00116883
0.00192248
-0.00105916
0.00229864
-0.000925934
0.00277463
-0.000792129
0.00284567
-0.000596018
0.00406695
-0.000476906
0.00258503
-0.000242388
0.00143897
0.00355499
-0.00134717
0.00148826
-0.00125422
0.00176437
-0.00115866
0.00182693
-0.00104605
0.00218603
-0.000909297
0.00263788
-0.0007714
0.00270777
-0.000569882
0.00386543
-0.000446155
0.00246131
-0.000233688
0.00122651
0.0033213
-0.00134141
0.00140745
-0.00124652
0.00166948
-0.00114882
0.00172922
-0.00103336
0.00207057
-0.000893192
0.00249771
-0.000751339
0.00256592
-0.0005447
0.00365879
-0.000416778
0.00233339
-0.000225789
0.00103552
0.00309551
-0.00133586
0.00132522
-0.00123912
0.00157274
-0.00113934
0.00162944
-0.00102113
0.00195236
-0.000877685
0.00235427
-0.000732022
0.00242026
-0.000520552
0.00344732
-0.000388842
0.00220168
-0.000218663
0.000865338
0.00287685
-0.00133055
0.00124163
-0.00123203
0.00147423
-0.00113027
0.00152767
-0.00100942
0.00183151
-0.000862836
0.00220768
-0.000713525
0.00227095
-0.000497516
0.00323131
-0.00036241
0.00206657
-0.000212275
0.000715203
0.00266458
-0.0013255
0.00115675
-0.0012253
0.00137402
-0.00112163
0.00142401
-0.00099828
0.00170816
-0.000848713
0.00205812
-0.00069593
0.00211816
-0.000475678
0.00301106
-0.000337546
0.00192844
-0.000206602
0.000584259
0.00245798
-0.00132073
-0.00121893
-0.00111349
-0.000987747
-0.000835404
-0.000679319
-0.000455182
-0.000314358
-0.000201649
-0.00027895
0.0180836
-0.0179541
-0.00040971
0.0182254
-0.0180946
-0.000541483
0.0183211
-0.0181893
-0.000674902
0.0185268
-0.0183934
-0.000809816
0.0187653
-0.0186304
-0.00094534
0.0191524
-0.0190168
-0.00108327
0.0196373
-0.0194994
-0.00116084
0.0202603
-0.0201827
-0.00101789
0.0199235
-0.0200665
0.0127981
-0.013816
-0.000278153
0.0182127
-0.000408325
0.0183556
-0.000539364
0.0184522
-0.000671478
0.0186589
-0.000804381
0.0188982
-0.000936304
0.0192843
-0.00106618
0.0197672
-0.00112623
0.0203203
-0.000959419
0.0197567
0.0118387
-0.000277334
0.0183415
-0.000406951
0.0184852
-0.000537257
0.0185825
-0.000668142
0.0187898
-0.000799077
0.0190291
-0.000927595
0.0194128
-0.00104946
0.019889
-0.00109291
0.0203638
-0.00089745
0.0195612
0.0109412
-0.000276508
0.0184699
-0.000405571
0.0186142
-0.000535141
0.018712
-0.000664795
0.0189195
-0.000793745
0.0191581
-0.000918774
0.0195378
-0.00103245
0.0200027
-0.00106041
0.0203918
-0.000838654
0.0193395
0.0101026
-0.000275678
0.018598
-0.000404182
0.0187427
-0.000532999
0.0188408
-0.000661385
0.0190478
-0.000788249
0.0192849
-0.000909546
0.0196591
-0.00101452
0.0201077
-0.00102726
0.0204045
-0.000782916
0.0190951
0.00931966
-0.000274844
0.0187258
-0.000402787
0.0188707
-0.000530836
0.0189689
-0.000657915
0.0191749
-0.00078259
0.0194096
-0.000899902
0.0197764
-0.000995711
0.0202035
-0.000993184
0.020402
-0.000728523
0.0188305
0.00859114
-0.000274009
0.0188532
-0.000401389
0.0189981
-0.000528659
0.0190962
-0.000654402
0.0193007
-0.000776801
0.019532
-0.000889905
0.0198895
-0.000976197
0.0202898
-0.000958416
0.0203842
-0.00067524
0.0185473
0.0079159
-0.000273175
0.0189804
-0.000399991
0.0191249
-0.000526474
0.0192226
-0.000650855
0.019425
-0.000770902
0.0196521
-0.00087958
0.0199982
-0.000956023
0.0203662
-0.000922992
0.0203512
-0.000623186
0.0182475
0.00729272
-0.000272345
0.0191072
-0.000398597
0.0192511
-0.000524287
0.0193483
-0.000647282
0.019548
-0.000764909
0.0197697
-0.000868966
0.0201023
-0.000935322
0.0204326
-0.000886921
0.0203028
-0.000572609
0.0179332
0.00672011
-0.000271573
0.0192337
-0.000397269
0.0193768
-0.000522143
0.0194732
-0.000643684
0.0196696
-0.000758673
0.0198847
-0.000857465
0.0202011
-0.000912572
0.0204877
-0.000848798
0.020239
-0.000528032
0.0176124
0.00619207
-0.000234518
0.017504
-0.017451
-0.000290412
0.017629
-0.0175731
-0.000347309
0.0177228
-0.0176659
-0.000408024
0.0179146
-0.0178539
-0.00047132
0.0181552
-0.0180919
-0.000542495
0.0185361
-0.0184649
-0.000623724
0.0189963
-0.018915
-0.000720302
0.0199355
-0.0198389
-0.000739661
0.020537
-0.0205176
0.0185263
-0.019266
-0.000233549
0.0175564
-0.000288601
0.0176841
-0.000344497
0.0177787
-0.000403753
0.0179739
-0.000465002
0.0182164
-0.000532807
0.0186039
-0.000609318
0.0190728
-0.000689254
0.0200154
-0.000689793
0.0205375
0.0178365
-0.000232546
0.0176082
-0.000286763
0.0177383
-0.000341658
0.0178336
-0.000399446
0.0180316
-0.000458665
0.0182757
-0.000523032
0.0186683
-0.000594855
0.0191446
-0.000659424
0.02008
-0.000642715
0.0205208
0.0171938
-0.000231513
0.0176594
-0.000284895
0.0177917
-0.000338784
0.0178874
-0.000395085
0.0180879
-0.000452255
0.0183328
-0.000513103
0.0187291
-0.000580091
0.0192116
-0.000630828
0.0201307
-0.000599106
0.0204891
0.0165947
-0.00023045
0.0177099
-0.000283
0.0178442
-0.000335874
0.0179403
-0.000390661
0.0181427
-0.000445733
0.0183879
-0.000502972
0.0187864
-0.000564859
0.0192735
-0.000602787
0.0201686
-0.000557915
0.0204442
0.0160368
-0.000229363
0.0177599
-0.000281083
0.0178959
-0.000332935
0.0179922
-0.000386184
0.018196
-0.000439106
0.0184408
-0.000492667
0.0188399
-0.0005492
0.01933
-0.000574937
0.0201944
-0.000518346
0.0203876
0.0155184
-0.000228253
0.0178093
-0.000279148
0.0179468
-0.000329975
0.018043
-0.00038167
0.0182477
-0.000432401
0.0184916
-0.000482236
0.0188898
-0.000533215
0.019381
-0.000547187
0.0202083
-0.000480066
0.0203205
0.0150384
-0.000227125
0.0178581
-0.000277201
0.0179969
-0.000327002
0.0180928
-0.000377133
0.0182978
-0.000425642
0.0185401
-0.000471727
0.0189359
-0.000517
0.0194262
-0.000519538
0.0202109
-0.000442908
0.0202439
0.0145955
-0.000225981
0.0179064
-0.000275247
0.0180462
-0.000324024
0.0181416
-0.000372586
0.0183464
-0.000418844
0.0185863
-0.000461152
0.0189782
-0.000500513
0.0194656
-0.00049162
0.020202
-0.00040655
0.0201588
0.0141889
-0.000224822
-0.000273292
-0.000321057
-0.000368078
-0.000412115
-0.000450797
-0.000484542
-0.000465265
-0.000372912
-0.000154679
0.0177402
-0.0177684
-0.000130848
0.0178347
-0.0178585
-0.000107737
0.017926
-0.0179491
-8.99505e-05
0.0180858
-0.0181036
-7.62995e-05
0.0183132
-0.0183268
-7.52433e-05
0.0186243
-0.0186254
-8.64016e-05
0.0190218
-0.0190106
-0.000172405
0.0196345
-0.0195485
-0.000236648
0.0203417
-0.0202775
0.0197596
-0.0199962
-0.000153968
0.0177112
-0.000129052
0.0178098
-0.000104845
0.0179018
-8.55474e-05
0.0180665
-6.98393e-05
0.0182975
-6.60469e-05
0.0186206
-7.27681e-05
0.0190285
-0.000145648
0.0197074
-0.000199429
0.0203955
0.0195602
-0.000153191
0.0176814
-0.000127224
0.0177838
-0.00010186
0.0178764
-8.10031e-05
0.0180456
-6.31417e-05
0.0182796
-5.62881e-05
0.0186137
-5.83607e-05
0.0190306
-0.000118669
0.0197677
-0.000166193
0.020443
0.019394
-0.000152371
0.0176508
-0.000125353
0.0177568
-9.88141e-05
0.0178499
-7.63542e-05
0.0180232
-5.62767e-05
0.0182595
-4.61207e-05
0.0186035
-4.33055e-05
0.0190278
-9.16778e-05
0.0198161
-0.000132161
0.0204835
0.0192618
-0.000151508
0.0176194
-0.000123446
0.0177287
-9.57262e-05
0.0178221
-7.16399e-05
0.0179991
-4.93196e-05
0.0182372
-3.56796e-05
0.0185899
-2.81605e-05
0.0190202
-6.43303e-05
0.0198522
-9.67547e-05
0.0205159
0.019165
-0.000150608
0.0175872
-0.00012151
0.0176996
-9.26071e-05
0.0177932
-6.68802e-05
0.0179733
-4.23074e-05
0.0182126
-2.50132e-05
0.0185726
-1.31058e-05
0.0190083
-3.62754e-05
0.0198754
-6.04776e-05
0.0205401
0.0191046
-0.000149671
0.0175543
-0.000119547
0.0176695
-8.94632e-05
0.0177632
-6.20848e-05
0.017946
-3.52544e-05
0.0181858
-1.41204e-05
0.0185515
1.80186e-06
0.0189924
-6.72306e-06
0.0198839
-2.37806e-05
0.0205572
0.0190808
-0.000148701
0.0175206
-0.000117562
0.0176384
-8.62999e-05
0.0177319
-5.7263e-05
0.0179169
-2.81753e-05
0.0181567
-2.90005e-06
0.0185262
1.77623e-05
0.0189718
2.04822e-05
0.0198812
1.58417e-05
0.0205618
0.0190966
-0.0001477
0.0174862
-0.000115558
0.0176062
-8.31248e-05
0.0176995
-5.24293e-05
0.0178862
-2.11194e-05
0.0181254
7.72029e-06
0.0184974
3.35274e-05
0.0189459
4.80883e-05
0.0198667
6.09521e-05
0.020549
0.0191576
-0.000146666
-0.00011353
-7.99283e-05
-4.75695e-05
-1.40626e-05
1.83571e-05
4.92828e-05
7.70572e-05
0.000108385
-4.92564e-05
0.0187457
-0.0188496
4.93583e-05
0.018796
-0.0188946
0.000147147
0.0188916
-0.0189894
0.000239141
0.0190106
-0.0191026
0.00032614
0.0192108
-0.0192978
0.000401708
0.0194285
-0.019504
0.000447143
0.0196441
-0.0196895
0.000426804
0.0195865
-0.0195662
0.000295523
0.0196646
-0.0195333
0.0158767
-0.0155812
-4.81055e-05
0.01864
5.18092e-05
0.0186961
0.000152069
0.0187913
0.000246848
0.0189158
0.000337225
0.0191204
0.000416302
0.0193494
0.000465492
0.0195949
0.000445464
0.0196066
0.000317577
0.0197925
0.0161943
-4.7544e-05
0.0185335
5.35934e-05
0.0185949
0.000155052
0.0186899
0.000251507
0.0188194
0.000343859
0.0190281
0.000425244
0.019268
0.000478159
0.019542
0.000462171
0.0196225
0.000344448
0.0199102
0.0165387
-4.7038e-05
0.0184263
5.51405e-05
0.0184928
0.000157675
0.0185873
0.000255528
0.0187215
0.000349641
0.018934
0.000433301
0.0191844
0.000491174
0.0194841
0.000480471
0.0196333
0.000374784
0.0200159
0.0169135
-4.65238e-05
0.0183185
5.66568e-05
0.0183896
0.000160266
0.0184837
0.000259533
0.0186222
0.000355546
0.018838
0.000441755
0.0190981
0.000505259
0.0194206
0.000500144
0.0196384
0.000407465
0.0201086
0.0173209
-4.59755e-05
0.0182099
5.82183e-05
0.0182854
0.000162932
0.018379
0.000263683
0.0185215
0.00036173
0.0187399
0.000450664
0.0190092
0.000520049
0.0193512
0.000521161
0.0196373
0.0004436
0.0201862
0.0177645
-4.53972e-05
0.0181005
5.98147e-05
0.0181802
0.000165641
0.0182732
0.000267896
0.0184192
0.000368022
0.0186398
0.000459733
0.0189175
0.000535209
0.0192757
0.000543576
0.0196289
0.000484113
0.0202456
0.0182487
-4.47959e-05
0.0179905
6.14238e-05
0.018074
0.000168356
0.0181662
0.000272101
0.0183155
0.000374312
0.0185376
0.000468822
0.018823
0.000550619
0.0191939
0.000567373
0.0196121
0.000529514
0.0202835
0.0187782
-4.41752e-05
0.0178798
6.30384e-05
0.0179667
0.000171065
0.0180582
0.000276284
0.0182103
0.000380581
0.0184333
0.000477903
0.0187257
0.000566157
0.0191057
0.000592284
0.019586
0.000579737
0.020296
0.0193579
-4.35376e-05
6.46582e-05
0.00017378
0.000280487
0.000386932
0.000487201
0.000582265
0.000619759
0.000638317
0.00162167
-1.49221e-06
1.93638e-06
0.00162037
2.78795e-05
-2.65792e-05
0.00161931
-9.66181e-07
2.03108e-06
0.00161508
6.84874e-05
-6.42622e-05
0.00160471
8.61434e-05
-7.57662e-05
0.00157442
0.000422604
-0.000392324
0.00154238
0.000237955
-0.000205911
0.00139115
0.00198304
-0.0018318
0.00115293
0.0020652
-0.00182698
0.0158674
-0.0147145
0.00162155
-9.2328e-07
0.00162045
2.89773e-05
0.00161914
3.39627e-07
0.0016152
7.2429e-05
0.00160416
9.71816e-05
0.00157463
0.000452141
0.00154042
0.000272163
0.00139188
0.00213158
0.0011484
0.00230868
0.0170158
0.00162143
-2.33949e-07
0.00162052
2.98847e-05
0.001619
1.86223e-06
0.00161531
7.61148e-05
0.00160366
0.000108834
0.00157483
0.000480966
0.0015386
0.000308399
0.00139298
0.0022772
0.00114511
0.00255654
0.018161
0.00162131
5.77633e-07
0.00162059
3.0595e-05
0.00161885
3.60554e-06
0.00161543
7.95378e-05
0.00160316
0.000121101
0.00157507
0.000509061
0.00153684
0.000346626
0.0013944
0.00241963
0.00114262
0.00280833
0.0193036
0.00162118
1.51177e-06
0.00162067
3.11029e-05
0.00161871
5.57189e-06
0.00161555
8.26931e-05
0.00160267
0.000133981
0.00157532
0.000536418
0.00153516
0.000386786
0.00139614
0.00255865
0.00114064
0.00306383
0.0204442
0.00162106
2.56728e-06
0.00162076
3.14048e-05
0.00161857
7.76129e-06
0.00161569
8.55774e-05
0.00160221
0.000147462
0.0015756
0.000563027
0.0015336
0.000428782
0.00139823
0.00269402
0.00113921
0.00332285
0.0215834
0.00162094
3.74136e-06
0.00162085
3.14987e-05
0.00161844
1.01714e-05
0.00161583
8.81896e-05
0.00160176
0.000161526
0.0015759
0.000588888
0.0015322
0.000472479
0.00140066
0.00282557
0.00113843
0.00358508
0.0227218
0.00162083
5.02952e-06
0.00162094
3.13841e-05
0.00161832
1.27978e-05
0.00161598
9.0531e-05
0.00160135
0.000176151
0.00157623
0.000614005
0.001531
0.000517711
0.00140336
0.00295321
0.00113849
0.00384995
0.0238603
0.00162072
6.42556e-06
0.00162104
3.10623e-05
0.00161821
1.56339e-05
0.00161613
9.26024e-05
0.00160098
0.00019131
0.0015766
0.000638378
0.00153005
0.000564269
0.00140645
0.00307681
0.00114019
0.00411621
0.0250005
0.00162074
7.80529e-06
0.00162095
3.08528e-05
0.00161841
1.81679e-05
0.00161594
9.50728e-05
0.00160127
0.000205979
0.00157642
0.000663229
0.00153105
0.000609639
0.00140977
0.00319809
0.00114855
0.00437744
0.0261491
0.00191391
-4.93748e-07
4.24549e-12
0.0019108
3.10687e-06
2.88853e-12
0.00191153
-7.21086e-07
-3.27186e-12
0.00190445
7.07353e-06
-1.15586e-11
0.00189829
6.1651e-06
1.95423e-11
0.00185723
4.10529e-05
5.89042e-12
0.00184085
1.63799e-05
1.0853e-12
0.00165106
0.000189793
-1.618e-11
0.00147563
0.00017543
5.85299e-12
0.00147563
9.51105e-12
0.00191389
-9.67017e-07
0.00191081
6.18477e-06
0.0019115
-1.40375e-06
0.00190445
1.41139e-05
0.00189815
1.247e-05
0.00185718
8.20242e-05
0.00184023
3.33241e-05
0.00165046
0.000379565
0.00147184
0.000354048
0.00294748
0.00191385
-1.40124e-06
0.00191083
9.20573e-06
0.00191144
-2.01713e-06
0.00190448
2.10761e-05
0.00189796
1.89867e-05
0.00185721
0.000122781
0.00183954
5.09916e-05
0.0016504
0.000568701
0.00146922
0.000535235
0.00441669
0.00191379
-1.77837e-06
0.00191086
1.21424e-05
0.00191137
-2.5315e-06
0.00190453
2.79178e-05
0.00189773
2.57823e-05
0.00185731
0.000163201
0.00183878
6.95236e-05
0.00165081
0.000756676
0.0014677
0.000718342
0.00588439
0.00191372
-2.08111e-06
0.00191089
1.49684e-05
0.00191128
-2.9184e-06
0.0019046
3.45977e-05
0.00189746
3.29209e-05
0.0018575
0.000203164
0.00183797
8.90501e-05
0.00165168
0.000942971
0.00146726
0.000902762
0.00735165
0.00191363
-2.29307e-06
0.00191094
1.76583e-05
0.00191117
-3.151e-06
0.00190469
4.10766e-05
0.00189715
4.04625e-05
0.00185776
0.000242555
0.00183712
0.000109694
0.00165301
0.00112708
0.00146785
0.00108793
0.0088195
0.00191352
-2.39898e-06
0.00191099
2.01885e-05
0.00191105
-3.20445e-06
0.0019048
4.73185e-05
0.0018968
4.84627e-05
0.00185809
0.000281265
0.00183622
0.000131572
0.00165479
0.0013085
0.0014694
0.00127332
0.0102889
0.0019134
-2.38483e-06
0.00191105
2.25368e-05
0.00191091
-3.05623e-06
0.00190493
5.32909e-05
0.00189643
5.69715e-05
0.00185849
0.000319198
0.00183527
0.000154799
0.00165702
0.00148675
0.00147183
0.00145851
0.0117607
0.00191327
-2.23804e-06
0.00191112
2.46832e-05
0.00191075
-2.68637e-06
0.00190508
5.89659e-05
0.00189602
6.60331e-05
0.00185895
0.000356269
0.00183426
0.000179488
0.00165965
0.00166136
0.00147501
0.00164315
0.0132357
0.00191312
0.00191122
0.00191056
0.00190527
0.00189553
0.00185948
0.00183306
0.00166261
0.00147878
0.00191312
2.23803e-06
-1.93637e-06
0.00191122
-2.46832e-05
2.65792e-05
0.00191056
2.68638e-06
-2.03109e-06
0.00190527
-5.89659e-05
6.42621e-05
0.00189553
-6.60332e-05
7.57663e-05
0.00185948
-0.000356269
0.000392324
0.00183306
-0.000179488
0.000205911
0.00166261
-0.00166136
0.0018318
0.00147878
-0.00164315
0.00182698
-0.0132357
0.0147145
0.00191327
2.38482e-06
0.00191112
-2.25368e-05
0.00191075
3.05624e-06
0.00190508
-5.32909e-05
0.00189602
-5.69715e-05
0.00185895
-0.000319198
0.00183426
-0.000154799
0.00165965
-0.00148675
0.00147501
-0.00145851
-0.0117607
0.0019134
2.39897e-06
0.00191105
-2.01885e-05
0.00191091
3.20446e-06
0.00190493
-4.73185e-05
0.00189643
-4.84628e-05
0.00185849
-0.000281265
0.00183527
-0.000131572
0.00165702
-0.0013085
0.00147183
-0.00127332
-0.0102889
0.00191352
2.29306e-06
0.00191099
-1.76583e-05
0.00191105
3.151e-06
0.0019048
-4.10766e-05
0.0018968
-4.04626e-05
0.00185809
-0.000242555
0.00183622
-0.000109694
0.00165479
-0.00112708
0.0014694
-0.00108793
-0.0088195
0.00191363
2.0811e-06
0.00191094
-1.49684e-05
0.00191117
2.91841e-06
0.00190469
-3.45976e-05
0.00189715
-3.29209e-05
0.00185776
-0.000203164
0.00183712
-8.90501e-05
0.00165301
-0.000942971
0.00146785
-0.000902762
-0.00735165
0.00191372
1.77836e-06
0.00191089
-1.21424e-05
0.00191128
2.53151e-06
0.0019046
-2.79177e-05
0.00189746
-2.57823e-05
0.0018575
-0.000163201
0.00183797
-6.95236e-05
0.00165168
-0.000756676
0.00146726
-0.000718342
-0.00588439
0.00191379
1.40123e-06
0.00191086
-9.20573e-06
0.00191137
2.01714e-06
0.00190453
-2.10761e-05
0.00189773
-1.89867e-05
0.00185731
-0.000122781
0.00183878
-5.09916e-05
0.00165081
-0.000568701
0.0014677
-0.000535235
-0.00441669
0.00191385
9.67009e-07
0.00191083
-6.18478e-06
0.00191144
1.40376e-06
0.00190448
-1.41138e-05
0.00189796
-1.24701e-05
0.00185721
-8.20242e-05
0.00183954
-3.33241e-05
0.0016504
-0.000379565
0.00146922
-0.000354048
-0.00294748
0.00191389
4.9374e-07
0.00191081
-3.10687e-06
0.0019115
7.21092e-07
0.00190445
-7.07351e-06
0.00189815
-6.16514e-06
0.00185718
-4.10529e-05
0.00184023
-1.63799e-05
0.00165046
-0.000189793
0.00147184
-0.00017543
-0.00147563
0.00191391
0.0019108
0.00191153
0.00190445
0.00189829
0.00185723
0.00184085
0.00165106
0.00147563
0.00162074
-6.42557e-06
7.8053e-06
0.00162095
-3.10623e-05
3.08528e-05
0.00161841
-1.56339e-05
1.81679e-05
0.00161594
-9.26024e-05
9.50728e-05
0.00160127
-0.00019131
0.000205979
0.00157642
-0.000638378
0.000663229
0.00153105
-0.000564269
0.000609639
0.00140977
-0.00307681
0.00319809
0.00114855
-0.00411621
0.00437744
-0.0250005
0.0261491
0.00162072
-5.02953e-06
0.00162104
-3.13841e-05
0.00161821
-1.27978e-05
0.00161613
-9.05309e-05
0.00160098
-0.000176151
0.0015766
-0.000614005
0.00153005
-0.000517711
0.00140645
-0.00295321
0.00114019
-0.00384995
-0.0238603
0.00162083
-3.74137e-06
0.00162094
-3.14987e-05
0.00161832
-1.01714e-05
0.00161598
-8.81896e-05
0.00160135
-0.000161526
0.00157623
-0.000588888
0.001531
-0.000472479
0.00140336
-0.00282557
0.00113849
-0.00358508
-0.0227218
0.00162094
-2.56729e-06
0.00162085
-3.14048e-05
0.00161844
-7.76128e-06
0.00161583
-8.55773e-05
0.00160176
-0.000147462
0.0015759
-0.000563027
0.0015322
-0.000428782
0.00140066
-0.00269402
0.00113843
-0.00332285
-0.0215834
0.00162106
-1.51178e-06
0.00162076
-3.11029e-05
0.00161857
-5.57188e-06
0.00161569
-8.26931e-05
0.00160221
-0.000133981
0.0015756
-0.000536418
0.0015336
-0.000386786
0.00139823
-0.00255865
0.00113921
-0.00306383
-0.0204442
0.00162118
-5.77645e-07
0.00162067
-3.0595e-05
0.00161871
-3.60553e-06
0.00161555
-7.95378e-05
0.00160267
-0.000121101
0.00157532
-0.000509061
0.00153516
-0.000346626
0.00139614
-0.00241963
0.00114064
-0.00280833
-0.0193036
0.00162131
2.33937e-07
0.00162059
-2.98847e-05
0.00161885
-1.86222e-06
0.00161543
-7.61147e-05
0.00160316
-0.000108834
0.00157507
-0.000480966
0.00153684
-0.0003084
0.0013944
-0.0022772
0.00114262
-0.00255654
-0.018161
0.00162143
9.23269e-07
0.00162052
-2.89773e-05
0.001619
-3.39617e-07
0.00161531
-7.2429e-05
0.00160366
-9.71816e-05
0.00157483
-0.000452141
0.0015386
-0.000272163
0.00139298
-0.00213158
0.00114511
-0.00230868
-0.0170158
0.00162155
1.4922e-06
0.00162045
-2.78795e-05
0.00161914
9.6619e-07
0.0016152
-6.84874e-05
0.00160416
-8.61434e-05
0.00157463
-0.000422604
0.00154042
-0.000237955
0.00139188
-0.00198304
0.0011484
-0.0020652
-0.0158674
0.00162167
0.00162037
0.00161931
0.00161508
0.00160471
0.00157442
0.00154238
0.00139115
0.00115293
-4.35377e-05
-0.0178798
0.0177684
6.46582e-05
-0.0179667
0.0178585
0.00017378
-0.0180582
0.0179491
0.000280487
-0.0182103
0.0181036
0.000386932
-0.0184333
0.0183268
0.000487201
-0.0187257
0.0186254
0.000582265
-0.0191057
0.0190106
0.000619759
-0.019586
0.0195485
0.000638317
-0.020296
0.0202775
-0.0193579
0.0199962
-4.41752e-05
-0.0179905
6.30384e-05
-0.018074
0.000171065
-0.0181662
0.000276284
-0.0183155
0.000380581
-0.0185376
0.000477903
-0.018823
0.000566157
-0.0191939
0.000592284
-0.0196121
0.000579737
-0.0202835
-0.0187782
-4.4796e-05
-0.0181005
6.14239e-05
-0.0181802
0.000168356
-0.0182732
0.000272101
-0.0184192
0.000374312
-0.0186398
0.000468822
-0.0189175
0.000550619
-0.0192757
0.000567373
-0.0196289
0.000529514
-0.0202456
-0.0182487
-4.53971e-05
-0.0182099
5.98146e-05
-0.0182854
0.000165641
-0.018379
0.000267896
-0.0185215
0.000368022
-0.0187399
0.000459733
-0.0190092
0.000535209
-0.0193512
0.000543576
-0.0196373
0.000484113
-0.0201862
-0.0177645
-4.59756e-05
-0.0183185
5.82184e-05
-0.0183896
0.000162932
-0.0184837
0.000263683
-0.0186222
0.00036173
-0.018838
0.000450664
-0.0190981
0.000520049
-0.0194206
0.000521161
-0.0196384
0.0004436
-0.0201086
-0.0173209
-4.65238e-05
-0.0184263
5.66567e-05
-0.0184928
0.000160266
-0.0185873
0.000259533
-0.0187215
0.000355546
-0.018934
0.000441755
-0.0191844
0.000505259
-0.0194841
0.000500144
-0.0196333
0.000407465
-0.0200159
-0.0169135
-4.7038e-05
-0.0185335
5.51406e-05
-0.0185949
0.000157675
-0.0186899
0.000255528
-0.0188194
0.000349642
-0.0190281
0.000433301
-0.019268
0.000491174
-0.019542
0.000480471
-0.0196225
0.000374784
-0.0199102
-0.0165387
-4.75439e-05
-0.01864
5.35933e-05
-0.0186961
0.000155052
-0.0187913
0.000251507
-0.0189158
0.000343858
-0.0191204
0.000425244
-0.0193494
0.000478159
-0.0195949
0.000462171
-0.0196066
0.000344448
-0.0197925
-0.0161943
-4.81055e-05
-0.0187457
5.18093e-05
-0.018796
0.000152068
-0.0188916
0.000246848
-0.0190106
0.000337225
-0.0192108
0.000416303
-0.0194285
0.000465492
-0.0196441
0.000445464
-0.0195865
0.000317577
-0.0196646
-0.0158767
-4.92564e-05
-0.0188496
4.93583e-05
-0.0188946
0.000147147
-0.0189894
0.000239141
-0.0191026
0.00032614
-0.0192978
0.000401708
-0.019504
0.000447143
-0.0196895
0.000426804
-0.0195662
0.000295523
-0.0195333
-0.0155812
-0.000146666
-0.0174862
0.017451
-0.00011353
-0.0176062
0.0175731
-7.99283e-05
-0.0176995
0.0176659
-4.75695e-05
-0.0178862
0.0178539
-1.40626e-05
-0.0181254
0.0180919
1.83571e-05
-0.0184974
0.0184649
4.92828e-05
-0.0189459
0.018915
7.70572e-05
-0.0198667
0.0198389
0.000108385
-0.020549
0.0205176
-0.0191576
0.019266
-0.0001477
-0.0175206
-0.000115558
-0.0176384
-8.31248e-05
-0.0177319
-5.24294e-05
-0.0179169
-2.11193e-05
-0.0181567
7.72029e-06
-0.0185262
3.35274e-05
-0.0189718
4.80883e-05
-0.0198812
6.09521e-05
-0.0205618
-0.0190966
-0.000148701
-0.0175543
-0.000117562
-0.0176695
-8.62999e-05
-0.0177632
-5.72629e-05
-0.017946
-2.81753e-05
-0.0181858
-2.90004e-06
-0.0185515
1.77623e-05
-0.0189924
2.04822e-05
-0.0198839
1.58417e-05
-0.0205572
-0.0190808
-0.000149671
-0.0175872
-0.000119547
-0.0176996
-8.94632e-05
-0.0177932
-6.20848e-05
-0.0179733
-3.52544e-05
-0.0182126
-1.41204e-05
-0.0185726
1.80186e-06
-0.0190083
-6.72306e-06
-0.0198754
-2.37806e-05
-0.0205401
-0.0191046
-0.000150608
-0.0176194
-0.00012151
-0.0177287
-9.26071e-05
-0.0178221
-6.68803e-05
-0.0179991
-4.23073e-05
-0.0182372
-2.50132e-05
-0.0185899
-1.31058e-05
-0.0190202
-3.62754e-05
-0.0198522
-6.04776e-05
-0.0205159
-0.019165
-0.000151508
-0.0176508
-0.000123446
-0.0177568
-9.57262e-05
-0.0178499
-7.16399e-05
-0.0180232
-4.93197e-05
-0.0182595
-3.56796e-05
-0.0186035
-2.81605e-05
-0.0190278
-6.43303e-05
-0.0198161
-9.67547e-05
-0.0204835
-0.0192618
-0.000152371
-0.0176814
-0.000125353
-0.0177838
-9.88141e-05
-0.0178764
-7.63542e-05
-0.0180456
-5.62767e-05
-0.0182796
-4.61207e-05
-0.0186137
-4.33055e-05
-0.0190306
-9.16778e-05
-0.0197677
-0.000132161
-0.020443
-0.019394
-0.000153191
-0.0177112
-0.000127224
-0.0178098
-0.00010186
-0.0179018
-8.10032e-05
-0.0180665
-6.31416e-05
-0.0182975
-5.62881e-05
-0.0186206
-5.83607e-05
-0.0190285
-0.000118669
-0.0197074
-0.000166193
-0.0203955
-0.0195602
-0.000153968
-0.0177402
-0.000129052
-0.0178347
-0.000104845
-0.017926
-8.55474e-05
-0.0180858
-6.98393e-05
-0.0183132
-6.60469e-05
-0.0186243
-7.27681e-05
-0.0190218
-0.000145648
-0.0196345
-0.000199429
-0.0203417
-0.0197596
-0.000154679
-0.000130848
-0.000107737
-8.99505e-05
-7.62995e-05
-7.52433e-05
-8.64016e-05
-0.000172405
-0.000236648
-0.000224822
-0.0179064
0.0179541
-0.000273292
-0.0180462
0.0180946
-0.000321057
-0.0181416
0.0181893
-0.000368078
-0.0183464
0.0183934
-0.000412115
-0.0185863
0.0186304
-0.000450797
-0.0189782
0.0190168
-0.000484542
-0.0194656
0.0194994
-0.000465265
-0.020202
0.0201827
-0.000372912
-0.0201588
0.0200665
-0.0141889
0.013816
-0.000225981
-0.0178581
-0.000275247
-0.0179969
-0.000324024
-0.0180928
-0.000372586
-0.0182978
-0.000418844
-0.0185401
-0.000461152
-0.0189359
-0.000500513
-0.0194262
-0.00049162
-0.0202109
-0.00040655
-0.0202439
-0.0145955
-0.000227125
-0.0178093
-0.000277201
-0.0179468
-0.000327002
-0.018043
-0.000377133
-0.0182477
-0.000425642
-0.0184916
-0.000471727
-0.0188898
-0.000517
-0.019381
-0.000519538
-0.0202083
-0.000442908
-0.0203205
-0.0150384
-0.000228253
-0.0177599
-0.000279148
-0.0178959
-0.000329975
-0.0179922
-0.00038167
-0.018196
-0.000432401
-0.0184408
-0.000482236
-0.0188399
-0.000533215
-0.01933
-0.000547187
-0.0201944
-0.000480066
-0.0203876
-0.0155184
-0.000229363
-0.0177099
-0.000281083
-0.0178442
-0.000332935
-0.0179403
-0.000386184
-0.0181427
-0.000439106
-0.0183879
-0.000492667
-0.0187864
-0.0005492
-0.0192735
-0.000574937
-0.0201686
-0.000518346
-0.0204442
-0.0160368
-0.00023045
-0.0176594
-0.000283
-0.0177917
-0.000335874
-0.0178874
-0.000390661
-0.0180879
-0.000445733
-0.0183328
-0.000502972
-0.0187291
-0.000564859
-0.0192116
-0.000602787
-0.0201307
-0.000557915
-0.0204891
-0.0165947
-0.000231513
-0.0176082
-0.000284895
-0.0177383
-0.000338784
-0.0178336
-0.000395085
-0.0180316
-0.000452255
-0.0182757
-0.000513103
-0.0186683
-0.000580091
-0.0191446
-0.000630828
-0.02008
-0.000599106
-0.0205208
-0.0171938
-0.000232546
-0.0175564
-0.000286763
-0.0176841
-0.000341658
-0.0177787
-0.000399446
-0.0179739
-0.000458665
-0.0182164
-0.000523032
-0.0186039
-0.000594855
-0.0190728
-0.000659424
-0.0200154
-0.000642715
-0.0205375
-0.0178365
-0.000233548
-0.017504
-0.000288601
-0.017629
-0.000344497
-0.0177228
-0.000403753
-0.0179146
-0.000465002
-0.0181552
-0.000532807
-0.0185361
-0.000609318
-0.0189963
-0.000689254
-0.0199355
-0.000689793
-0.020537
-0.0185263
-0.000234518
-0.000290412
-0.000347309
-0.000408024
-0.00047132
-0.000542495
-0.000623724
-0.000720302
-0.000739661
-0.000271573
-0.0191072
0.0192337
-0.000397269
-0.0192511
0.0193768
-0.000522143
-0.0193483
0.0194732
-0.000643684
-0.019548
0.0196696
-0.000758673
-0.0197697
0.0198847
-0.000857465
-0.0201023
0.0202011
-0.000912572
-0.0204326
0.0204877
-0.000848798
-0.0203028
0.020239
-0.000528032
-0.0179332
0.0176124
-0.00672011
0.00619207
-0.000272345
-0.0189804
-0.000398597
-0.0191249
-0.000524287
-0.0192226
-0.000647282
-0.019425
-0.000764909
-0.0196521
-0.000868966
-0.0199982