/*--------------------------------*- C++ -*----------------------------------*\
  =========                 |
  \\      /  F ield         | OpenFOAM: The Open Source CFD Toolbox
   \\    /   O peration     | Website:  https://openfoam.org
    \\  /    A nd           | Version:  10
     \\/     M anipulation  |
\*---------------------------------------------------------------------------*/
FoamFile
{
    format      ascii;
    class       volVectorField;
    location    "15";
    object      U;
}
// * * * * * * * * * * * * * * * * * * * * * * * * * * * * * * * * * * * * * //

dimensions      [0 1 -1 0 0 0 0];

internalField   nonuniform List<vector> 
2000
(
(0.865047 -0.00884051 -9.47476e-20)
(0.758608 -0.0105078 -7.91592e-19)
(0.739299 -0.0108873 -1.32091e-18)
(0.627966 -0.0130856 -2.70487e-18)
(0.585177 -0.0157415 2.56867e-19)
(0.438436 -0.0162584 -7.54322e-19)
(0.396258 -0.0230518 -1.04786e-17)
(0.156981 -0.0148522 -2.39984e-18)
(0.215948 -0.00361266 -2.6237e-18)
(0.0392176 -0.0184601 -2.20578e-17)
(0.86283 -0.00795099 1.46086e-19)
(0.754762 -0.00945392 -7.81563e-19)
(0.735007 -0.00979887 -1.47689e-18)
(0.62184 -0.0117829 -2.52153e-18)
(0.577894 -0.0141706 4.52127e-19)
(0.428935 -0.014646 -7.76495e-19)
(0.385029 -0.0207299 -1.03793e-17)
(0.143431 -0.013337 -1.86236e-18)
(0.203065 -0.00275828 8.86039e-19)
(0.0457248 -0.016408 -2.75139e-17)
(0.860828 -0.00704798 2.20595e-19)
(0.751284 -0.00838273 -8.30126e-19)
(0.731128 -0.00868958 -1.79458e-18)
(0.616299 -0.0104567 -2.7141e-18)
(0.571307 -0.0125674 5.36165e-19)
(0.420348 -0.0130068 -8.67759e-19)
(0.374877 -0.0183734 -8.63477e-18)
(0.131259 -0.0118147 -1.74441e-18)
(0.191648 -0.00204869 -5.03506e-18)
(0.0517163 -0.0143645 -2.96786e-17)
(0.859051 -0.00613317 3.41216e-19)
(0.748195 -0.00729663 -9.81648e-19)
(0.727683 -0.00756453 -1.82044e-18)
(0.611375 -0.0091087 -2.09463e-18)
(0.565454 -0.0109413 5.33282e-19)
(0.412722 -0.011336 -1.01781e-18)
(0.365858 -0.0159881 -4.91523e-18)
(0.120511 -0.0102735 -1.88204e-18)
(0.181686 -0.00147729 -1.99176e-18)
(0.0571196 -0.0123774 -2.13697e-17)
(0.85751 -0.00520794 3.29831e-19)
(0.745511 -0.00619734 -6.86563e-19)
(0.724692 -0.00642537 -1.55656e-18)
(0.607096 -0.00774164 -1.72727e-18)
(0.56037 -0.00929474 4.34732e-19)
(0.4061 -0.00963978 -1.27349e-18)
(0.358025 -0.0135777 -5.19147e-18)
(0.111224 -0.00872151 -2.45769e-18)
(0.173171 -0.00103289 1.10055e-17)
(0.0618707 -0.0104259 -1.62161e-17)
(0.856211 -0.00427368 3.6641e-19)
(0.743249 -0.00508662 -4.66066e-19)
(0.722172 -0.00527377 -9.90302e-19)
(0.603489 -0.00635833 -1.61643e-18)
(0.556084 -0.00762993 2.17417e-19)
(0.400521 -0.00792259 -1.60776e-18)
(0.351423 -0.0111457 -6.15753e-18)
(0.103431 -0.00716166 -3.52938e-18)
(0.166091 -0.000696483 2.56128e-17)
(0.0659142 -0.00849673 -1.36339e-17)
(0.855163 -0.00333189 4.65437e-19)
(0.741423 -0.00396638 -2.82728e-19)
(0.720137 -0.0041118 -5.26508e-19)
(0.600576 -0.00496154 -1.72182e-18)
(0.552623 -0.00594996 1.02399e-19)
(0.396016 -0.00618763 -2.18815e-18)
(0.346092 -0.00869546 -5.00142e-18)
(0.097162 -0.00559415 -3.29534e-18)
(0.160438 -0.000448734 3.41796e-17)
(0.0692036 -0.00658532 -5.45829e-18)
(0.854372 -0.00238408 4.33299e-19)
(0.740042 -0.00283857 -1.05933e-19)
(0.7186 -0.0029415 -9.7759e-20)
(0.598374 -0.00355449 -2.08429e-18)
(0.550009 -0.00425811 4.81821e-20)
(0.392614 -0.00443894 -1.86889e-18)
(0.342065 -0.00623187 -4.55656e-18)
(0.092439 -0.0040183 -1.96312e-18)
(0.156202 -0.00027523 3.84407e-17)
(0.0717017 -0.00468796 1.76586e-18)
(0.853841 -0.00143182 4.79253e-19)
(0.739117 -0.0017052 5.17416e-20)
(0.71757 -0.00176491 -1.63594e-19)
(0.596898 -0.00214035 -2.69109e-18)
(0.548256 -0.00255731 2.68878e-20)
(0.390333 -0.00268242 -1.74769e-18)
(0.339366 -0.00376018 -1.80455e-18)
(0.0892801 -0.00243767 -1.01729e-18)
(0.15338 -0.000139491 3.8263e-17)
(0.0733813 -0.00279761 9.3494e-18)
(0.853575 -0.000477176 3.82749e-19)
(0.738652 -0.000568467 8.04056e-19)
(0.717053 -0.000585959 2.94024e-19)
(0.596157 -0.000717687 -3.66407e-18)
(0.547377 -0.00085026 1.04688e-20)
(0.389189 -0.000911929 -2.94269e-18)
(0.338012 -0.00126788 -2.46347e-18)
(0.0876978 -0.000856199 -4.0811e-19)
(0.151968 -6.52397e-05 3.38425e-17)
(0.0742243 -0.000904111 1.10716e-17)
(0.890788 -0.0157444 3.4211e-19)
(0.803042 -0.0186132 -7.35502e-20)
(0.789281 -0.0192202 -2.80344e-19)
(0.699575 -0.0229713 -4.29505e-20)
(0.671316 -0.0277079 -4.68452e-19)
(0.552947 -0.0284885 -2.54373e-18)
(0.53335 -0.0407962 6.26523e-18)
(0.333816 -0.0260011 1.91624e-18)
(0.404181 -0.0203974 1.47956e-17)
(-0.0331632 -0.0382492 -8.10014e-19)
(0.887842 -0.0151249 2.64732e-19)
(0.797992 -0.0178916 -5.26865e-20)
(0.783598 -0.0184876 -2.42448e-19)
(0.691476 -0.0221016 -7.85483e-20)
(0.661585 -0.0266618 -2.95191e-19)
(0.53997 -0.0274068 -2.29982e-18)
(0.517849 -0.0392188 4.69277e-18)
(0.313085 -0.0250106 2.1585e-18)
(0.380751 -0.0178284 8.32339e-18)
(-0.0264258 -0.0359132 -9.14029e-19)
(0.884957 -0.0144902 2.11871e-19)
(0.793038 -0.0171531 -3.50326e-20)
(0.778024 -0.0177334 -2.38309e-19)
(0.683519 -0.0212136 -1.24037e-19)
(0.652019 -0.0255869 -1.53782e-19)
(0.527224 -0.0263139 -1.36614e-18)
(0.502617 -0.0376192 3.53677e-18)
(0.292886 -0.0240332 5.79539e-19)
(0.358223 -0.0156319 2.94892e-18)
(-0.0193611 -0.0335802 -1.10085e-18)
(0.882143 -0.0138402 1.97818e-20)
(0.788197 -0.0163946 -4.64966e-21)
(0.772576 -0.0169558 -2.55381e-19)
(0.675732 -0.0203024 -2.10631e-19)
(0.642654 -0.024479 -1.61803e-20)
(0.514753 -0.0252057 -1.52932e-18)
(0.487706 -0.0359912 2.88677e-18)
(0.273282 -0.0230558 -1.01095e-18)
(0.336656 -0.0135366 -2.62894e-18)
(-0.0120548 -0.031482 -1.16653e-18)
(0.879409 -0.0131756 -1.81261e-19)
(0.783486 -0.0156168 -4.68532e-19)
(0.767274 -0.0161569 -3.18669e-19)
(0.668143 -0.0193634 -1.38744e-18)
(0.633524 -0.0233375 1.37022e-19)
(0.502601 -0.0240594 -1.78345e-18)
(0.473168 -0.0343118 2.42514e-18)
(0.254331 -0.02203 -8.79838e-19)
(0.316101 -0.0116108 -8.78195e-18)
(-0.00458912 -0.0294808 -1.09255e-18)
(0.876766 -0.0124967 -2.26183e-19)
(0.778923 -0.0148207 -5.12349e-19)
(0.762139 -0.0153378 -4.16127e-19)
(0.660782 -0.0183971 -1.67765e-18)
(0.624664 -0.0221638 1.01057e-19)
(0.490814 -0.0228735 -1.32673e-18)
(0.459053 -0.0325807 2.19968e-18)
(0.236087 -0.0209598 -6.51832e-19)
(0.296604 -0.00987647 -1.59807e-17)
(0.00295677 -0.0275325 6.10496e-18)
(0.874223 -0.0118041 -3.02173e-19)
(0.774525 -0.0140067 -6.13381e-19)
(0.757189 -0.014499 -5.64007e-19)
(0.653677 -0.0174047 -2.18524e-18)
(0.616107 -0.020959 8.05818e-20)
(0.479435 -0.0216511 -1.03223e-18)
(0.445416 -0.0308026 2.42229e-18)
(0.218605 -0.0198516 -5.20999e-19)
(0.278201 -0.00832159 -1.56487e-17)
(0.0105061 -0.0256415 6.94216e-18)
(0.871788 -0.0110981 -2.31607e-19)
(0.770308 -0.0131756 -7.7034e-19)
(0.752444 -0.0136411 -7.35329e-19)
(0.646857 -0.016388 -2.90919e-18)
(0.60789 -0.0197252 8.18065e-20)
(0.46851 -0.0203968 -8.68702e-19)
(0.432305 -0.0289852 -5.86618e-20)
(0.201934 -0.0187117 -2.33344e-18)
(0.26092 -0.00693865 -1.72175e-17)
(0.0179848 -0.023811 7.22511e-19)
(0.869472 -0.0103792 -1.7756e-19)
(0.766291 -0.0123278 -1.01016e-18)
(0.747922 -0.0127641 -9.85643e-19)
(0.64035 -0.0153484 -2.89702e-18)
(0.600045 -0.0184628 1.08784e-19)
(0.458082 -0.0191164 -7.84589e-19)
(0.419773 -0.0271357 -2.89138e-18)
(0.186121 -0.0175626 -2.62649e-18)
(0.244784 -0.00573339 -1.12104e-17)
(0.025322 -0.0220364 -5.75837e-18)
(0.867283 -0.00964811 -1.33031e-19)
(0.762488 -0.0114637 -8.72294e-19)
(0.743643 -0.0118688 -1.31571e-18)
(0.634183 -0.014279 -3.17736e-18)
(0.592607 -0.0171641 1.58767e-19)
(0.448194 -0.0177841 -7.64568e-19)
(0.407869 -0.0252129 -6.13369e-18)
(0.171213 -0.0163654 -3.28014e-18)
(0.22981 -0.00468197 -6.56148e-18)
(0.0324503 -0.0202634 -1.30169e-17)
(1.1674 0.0918801 -8.33531e-19)
(1.17651 0.0957095 -4.29689e-19)
(1.18258 0.0939477 8.6989e-18)
(1.1957 0.0969831 1.23006e-18)
(1.21076 0.0911392 -8.30035e-18)
(1.23536 0.0897949 -2.17384e-17)
(1.26561 0.069791 -7.85982e-18)
(1.30628 0.0601269 1.59537e-17)
(1.28865 -0.0241016 -8.55574e-18)
(0.860976 -0.00386657 -4.48153e-17)
(1.16758 0.0915942 -7.81484e-19)
(1.17669 0.0949763 3.39698e-18)
(1.18275 0.0929416 8.04687e-18)
(1.19584 0.0953476 9.82653e-19)
(1.2108 0.0886604 -8.66501e-18)
(1.23511 0.0858648 -2.58445e-17)
(1.26499 0.0637356 -6.08725e-18)
(1.30077 0.0487943 1.52046e-17)
(1.26925 -0.0386132 -9.18348e-18)
(0.787597 -0.0159459 -4.07131e-17)
(1.16773 0.0913011 -6.38343e-19)
(1.17684 0.0942424 3.23707e-18)
(1.18293 0.0919308 7.3683e-18)
(1.19599 0.0937007 4.44098e-19)
(1.21091 0.086159 -8.7297e-18)
(1.23498 0.0818603 -2.44102e-17)
(1.26451 0.0575276 -5.24081e-18)
(1.29531 0.037201 1.39134e-17)
(1.24972 -0.0520786 -1.00415e-17)
(0.719724 -0.0265615 -3.36097e-17)
(1.16786 0.0910017 -5.2649e-19)
(1.17696 0.0935088 6.48288e-18)
(1.18305 0.090917 3.27913e-18)
(1.19605 0.092045 4.4016e-18)
(1.21088 0.083638 -4.87086e-18)
(1.2346 0.0777899 -2.29658e-17)
(1.26343 0.0511749 -3.85118e-18)
(1.2888 0.0254078 1.3435e-17)
(1.22843 -0.0649817 -1.03644e-17)
(0.660902 -0.0364046 -1.10702e-17)
(1.16797 0.0906971 -4.35138e-19)
(1.17704 0.0927772 6.18796e-18)
(1.18311 0.0899034 3.09507e-18)
(1.19602 0.0903864 4.04628e-18)
(1.21067 0.0811065 -5.01187e-18)
(1.23393 0.0736723 -2.14267e-17)
(1.26169 0.0447006 -3.72048e-18)
(1.28117 0.0134882 4.36229e-18)
(1.20535 -0.07761 -1.05174e-17)
(0.606681 -0.0459354 -6.35376e-18)
(1.16805 0.0903884 -8.99442e-21)
(1.17708 0.0920492 5.82846e-18)
(1.18312 0.0888925 2.96519e-18)
(1.1959 0.0887297 7.60528e-18)
(1.21033 0.0785711 -9.73348e-18)
(1.23301 0.0695208 -1.98164e-17)
(1.25938 0.0381172 -3.53895e-18)
(1.27268 0.00148373 4.25125e-18)
(1.18112 -0.0901067 -9.81022e-18)
(0.555814 -0.0553969 8.94856e-18)
(1.16812 0.0900766 -1.19433e-19)
(1.17708 0.091326 5.48701e-18)
(1.18309 0.0878863 3.07742e-18)
(1.1957 0.0870785 6.90898e-18)
(1.20986 0.0760368 -9.25596e-18)
(1.23186 0.0653452 -1.89201e-17)
(1.25654 0.0314328 -2.96349e-18)
(1.26342 -0.0105871 4.01327e-18)
(1.15606 -0.102603 -9.37047e-18)
(0.508787 -0.0649214 -1.0206e-17)
(1.16816 0.0897626 -3.52021e-18)
(1.17705 0.0906088 5.24202e-18)
(1.18301 0.0868868 6.60737e-18)
(1.19542 0.0854363 1.00001e-17)
(1.20925 0.0735091 -1.3561e-17)
(1.23047 0.0611553 -1.23275e-17)
(1.25315 0.0246545 -2.53758e-18)
(1.25332 -0.0227157 -3.97205e-18)
(1.1302 -0.115232 -8.20336e-18)
(0.465795 -0.0743846 -8.96178e-18)
(1.16818 0.0894484 -3.40117e-18)
(1.17699 0.0898996 5.14731e-18)
(1.18288 0.0858967 9.79593e-18)
(1.19507 0.083807 8.42502e-18)
(1.20852 0.0709941 -1.33901e-17)
(1.22885 0.0569671 -1.19029e-17)
(1.24928 0.0178168 -2.00175e-18)
(1.24274 -0.0348496 3.80973e-18)
(1.1042 -0.128146 -7.89126e-18)
(0.425135 -0.0830277 -7.40279e-18)
(1.16816 0.0891696 -3.10031e-18)
(1.17686 0.0892344 8.23899e-18)
(1.18268 0.0849501 5.69372e-18)
(1.19463 0.082213 1.13707e-17)
(1.20767 0.0684779 -1.24208e-17)
(1.22701 0.0526532 -6.27122e-18)
(1.24466 0.0105207 -1.36073e-18)
(1.22992 -0.0477364 2.94873e-18)
(1.07347 -0.140945 -1.9321e-17)
(0.38551 -0.0886691 -7.51993e-18)
(1.1637 0.0945658 -3.04841e-18)
(1.17192 0.104207 5.31356e-18)
(1.1781 0.105858 2.3489e-18)
(1.19072 0.115785 -1.49547e-18)
(1.20658 0.119566 -1.18623e-17)
(1.23159 0.131058 -2.26931e-18)
(1.26166 0.135948 -3.69169e-18)
(1.32357 0.159455 -1.23257e-17)
(1.36472 0.151897 6.07041e-18)
(1.2632 0.173052 -1.95478e-17)
(1.16425 0.0943772 -2.91159e-18)
(1.17262 0.103387 4.98811e-18)
(1.17881 0.104698 6.09921e-18)
(1.19157 0.11395 -1.29383e-18)
(1.20743 0.116792 -1.60941e-17)
(1.23269 0.127162 3.54425e-18)
(1.26288 0.129479 3.0138e-18)
(1.32493 0.1509 -1.22616e-17)
(1.35898 0.129837 4.9913e-18)
(1.21093 0.150061 -3.77371e-17)
(1.16477 0.094167 -2.55472e-18)
(1.17328 0.102554 4.73849e-18)
(1.17952 0.103522 9.5407e-18)
(1.19246 0.112091 -1.62308e-18)
(1.2084 0.113978 -1.50172e-17)
(1.23402 0.123191 3.26522e-18)
(1.26468 0.122895 2.7605e-18)
(1.32655 0.141945 -2.92104e-18)
(1.35544 0.109732 4.94823e-18)
(1.15666 0.12906 -3.45224e-17)
(1.16524 0.0939357 -2.41774e-18)
(1.17389 0.10171 4.78766e-18)
(1.18016 0.10233 8.84113e-18)
(1.19326 0.110209 -1.86179e-18)
(1.20927 0.111124 -1.34987e-17)
(1.23516 0.119135 2.84725e-18)
(1.26628 0.116215 2.31483e-18)
(1.32728 0.132582 -2.35297e-18)
(1.35139 0.0910661 -7.68279e-18)
(1.11088 0.109657 -5.0512e-17)
(1.16567 0.0936848 -2.39852e-18)
(1.17444 0.100855 3.19813e-19)
(1.18072 0.101126 8.04698e-18)
(1.19394 0.10831 -2.04064e-18)
(1.20995 0.108244 -1.22621e-17)
(1.23598 0.115012 2.36308e-18)
(1.26742 0.109483 1.86456e-18)
(1.32689 0.122895 -3.43438e-18)
(1.3459 0.0732984 -7.22751e-18)
(1.07103 0.0913132 -4.61651e-17)
(1.16606 0.0934158 -2.16994e-18)
(1.17493 0.0999934 3.68729e-18)
(1.18121 0.099913 7.37845e-18)
(1.1945 0.106399 -2.67611e-18)
(1.21047 0.105348 -1.1554e-17)
(1.23652 0.11084 2.3752e-18)
(1.26813 0.102733 1.6611e-18)
(1.32558 0.112957 5.30798e-18)
(1.33925 0.0561843 -8.3574e-18)
(1.03387 0.0737888 -4.19279e-17)
(1.1664 0.0931299 -1.89112e-18)
(1.17536 0.099126 7.53039e-18)
(1.18163 0.0986951 6.54839e-18)
(1.19496 0.104482 2.02199e-18)
(1.21084 0.102445 -1.08221e-17)
(1.23682 0.10663 2.62756e-18)
(1.26849 0.0959902 1.20857e-18)
(1.3235 0.102813 2.89839e-18)
(1.33183 0.0395905 -8.11081e-18)
(0.998834 0.0569717 -4.10614e-17)
(1.16671 0.0928284 -1.14221e-18)
(1.17573 0.0982549 7.29514e-18)
(1.18198 0.097475 1.0417e-17)
(1.19531 0.102564 -2.72065e-18)
(1.21107 0.0995446 -9.92653e-18)
(1.23687 0.102395 -2.37605e-18)
(1.26848 0.0892774 2.70458e-18)
(1.32073 0.0925025 1.10766e-17)
(1.32399 0.0233897 -1.80065e-17)
(0.966171 0.0407397 -3.69094e-17)
(1.16698 0.0925128 -4.98967e-18)
(1.17606 0.097382 3.12364e-18)
(1.18226 0.0962555 5.35327e-18)
(1.19557 0.100649 -2.93885e-18)
(1.21116 0.0966523 -9.5917e-18)
(1.23669 0.0981402 -1.27582e-17)
(1.26811 0.082597 -2.96651e-18)
(1.3171 0.08197 9.33276e-18)
(1.31481 0.00737033 -1.88836e-17)
(0.936235 0.024991 -5.11532e-17)
(1.16721 0.0921835 -1.03051e-18)
(1.17631 0.0965096 -8.03004e-19)
(1.18244 0.0950407 9.06358e-18)
(1.19566 0.0987508 1.51483e-18)
(1.21099 0.0938019 -9.06269e-18)
(1.23607 0.093959 -1.74385e-17)
(1.2671 0.0761372 -9.41982e-18)
(1.313 0.071826 1.6666e-17)
(1.30917 -0.00794796 -7.55876e-18)
(0.915786 0.0099342 -4.78876e-17)
(1.15578 0.0954524 -6.0548e-18)
(1.16182 0.112033 -2.0875e-18)
(1.16779 0.117603 1.28674e-17)
(1.17813 0.13455 -9.99635e-18)
(1.19298 0.147898 -2.27313e-17)
(1.2131 0.170757 -2.62827e-17)
(1.23906 0.199809 6.52761e-18)
(1.27745 0.239708 -6.27512e-18)
(1.32742 0.34941 -9.04562e-18)
(1.30885 0.379124 -4.51426e-17)
(1.15678 0.0954734 -5.67166e-18)
(1.1631 0.11133 1.79942e-18)
(1.1691 0.116511 1.57415e-17)
(1.17975 0.132783 -5.67664e-18)
(1.1948 0.145261 -2.12299e-17)
(1.21564 0.167039 -1.96816e-17)
(1.24221 0.194349 5.88209e-18)
(1.28482 0.232642 -4.19509e-18)
(1.33273 0.330327 -8.13377e-18)
(1.2938 0.359068 -3.90991e-17)
(1.15774 0.0954677 -5.38641e-18)
(1.16434 0.110604 1.67619e-18)
(1.17041 0.115393 1.07302e-17)
(1.1814 0.130978 -4.95306e-18)
(1.19673 0.142558 -1.99074e-17)
(1.2184 0.163232 -1.23357e-17)
(1.24575 0.188582 5.5789e-18)
(1.29261 0.225338 -1.20658e-17)
(1.33922 0.312053 -6.88963e-18)
(1.27701 0.339732 -5.36346e-17)
(1.15865 0.0954355 -5.01107e-18)
(1.16551 0.109857 5.27907e-18)
(1.17164 0.114249 9.9435e-18)
(1.18296 0.129137 -8.56808e-18)
(1.19854 0.139788 -1.84658e-17)
(1.22099 0.159339 -1.66838e-17)
(1.24904 0.182524 4.36421e-18)
(1.2997 0.217759 -1.93424e-17)
(1.34572 0.294032 -1.74487e-17)
(1.2685 0.320633 -4.89786e-17)
(1.15951 0.0953776 -4.3249e-18)
(1.16662 0.10909 4.7399e-18)
(1.1728 0.113083 9.14978e-18)
(1.1844 0.127264 -7.62966e-18)
(1.20016 0.136964 -1.24162e-17)
(1.2233 0.155376 -1.5564e-17)
(1.2519 0.17622 3.87852e-18)
(1.30581 0.209912 -1.89546e-17)
(1.35167 0.275775 -1.50136e-17)
(1.26515 0.301326 -4.49087e-17)
(1.16032 0.0952951 -4.0555e-18)
(1.16766 0.108305 8.1698e-18)
(1.17387 0.111897 8.53403e-18)
(1.18573 0.125367 -1.12923e-17)
(1.20162 0.134094 -1.20404e-17)
(1.22534 0.151359 -1.49532e-17)
(1.25441 0.169711 3.42918e-18)
(1.31103 0.201824 -9.03769e-18)
(1.35702 0.257076 -2.38892e-17)
(1.264 0.281634 -5.67075e-17)
(1.16109 0.0951887 8.26744e-20)
(1.16864 0.107505 7.26806e-18)
(1.17487 0.110696 7.8116e-18)
(1.18695 0.12345 -1.07407e-17)
(1.20294 0.131187 -1.13417e-17)
(1.22715 0.1473 -8.78827e-18)
(1.25664 0.163037 3.75517e-18)
(1.31537 0.193525 -7.27612e-18)
(1.36185 0.23782 -2.30505e-17)
(1.26461 0.261471 -7.00911e-17)
(1.16181 0.0950593 3.40636e-19)
(1.16956 0.106689 1.07743e-17)
(1.1758 0.10948 3.15931e-18)
(1.18807 0.121517 -1.05651e-17)
(1.20412 0.128253 -1.47822e-17)
(1.2287 0.143204 -2.60235e-18)
(1.2586 0.156238 -3.46582e-18)
(1.31886 0.185048 -1.57673e-17)
(1.3662 0.21786 -1.17229e-17)
(1.26768 0.240726 -6.62832e-17)
(1.16248 0.0949078 -3.46904e-18)
(1.17041 0.105861 6.16977e-18)
(1.17666 0.108253 2.90354e-18)
(1.18909 0.119574 -5.71358e-18)
(1.20516 0.125302 -1.39837e-17)
(1.23002 0.139087 -2.16595e-18)
(1.26026 0.149358 -3.12768e-18)
(1.3216 0.176448 -1.43046e-17)
(1.36932 0.19702 -1.18413e-17)
(1.27272 0.219249 -4.45216e-17)
(1.16311 0.0947336 -3.32139e-18)
(1.17119 0.10502 5.62092e-18)
(1.17742 0.10701 2.88585e-18)
(1.18995 0.117612 -6.29154e-19)
(1.20596 0.122321 -1.24693e-17)
(1.23093 0.134922 -2.22002e-18)
(1.26126 0.142339 -3.04977e-18)
(1.32315 0.167732 -1.31843e-17)
(1.37241 0.174966 -2.87174e-18)
(1.28356 0.196672 -2.20872e-17)
(1.14469 0.0946375 -1.02614e-17)
(1.14762 0.11794 -6.53057e-18)
(1.15341 0.127721 2.54197e-17)
(1.16075 0.151131 -1.73327e-18)
(1.17325 0.172794 -2.75411e-17)
(1.18678 0.205916 -3.79805e-17)
(1.19981 0.245445 2.74791e-17)
(1.19643 0.310696 2.58681e-18)
(1.19229 0.429503 2.59906e-18)
(0.959825 0.480613 2.29866e-18)
(1.14681 0.0947947 -1.24601e-17)
(1.15021 0.117411 -8.83948e-18)
(1.15629 0.126752 2.38008e-17)
(1.16413 0.149539 -4.85848e-18)
(1.17716 0.170415 -2.56392e-17)
(1.19156 0.202784 -4.08875e-17)
(1.20629 0.24194 1.99336e-17)
(1.20558 0.306121 -2.66645e-18)
(1.20956 0.430393 1.92494e-18)
(0.981827 0.476967 1.71401e-18)
(1.14801 0.0949334 -1.19448e-17)
(1.15174 0.116865 -8.27321e-18)
(1.15778 0.125772 2.20419e-17)
(1.16588 0.147936 -7.51484e-18)
(1.17904 0.168018 -2.41868e-17)
(1.19397 0.199556 -4.25302e-17)
(1.21042 0.238197 1.81594e-17)
(1.21399 0.300677 -1.51567e-18)
(1.22728 0.429539 9.35762e-18)
(1.01286 0.472307 2.1261e-18)
(1.14895 0.0950555 -1.40368e-17)
(1.15299 0.11631 -7.55539e-18)
(1.15898 0.124788 1.77108e-17)
(1.16735 0.146322 -1.01445e-17)
(1.18074 0.165598 -2.28409e-17)
(1.19636 0.196217 -3.98042e-17)
(1.21467 0.23416 1.63041e-17)
(1.22309 0.294451 -1.68364e-18)
(1.24366 0.426875 6.02199e-19)
(1.04456 0.466439 1.84677e-18)
(1.14994 0.0951597 -1.32655e-17)
(1.1543 0.115741 -6.99318e-18)
(1.1603 0.123791 1.63683e-17)
(1.16901 0.144685 -9.38678e-18)
(1.18271 0.163138 -1.72865e-17)
(1.19914 0.192761 -4.22977e-17)
(1.21922 0.22984 2.02034e-17)
(1.2323 0.287586 -1.76476e-18)
(1.25897 0.422446 7.87366e-19)
(1.07689 0.45931 -5.98389e-18)
(1.15098 0.0952452 -1.25235e-17)
(1.15566 0.115155 -6.66073e-18)
(1.16167 0.122778 1.54676e-17)
(1.17073 0.143021 -8.56412e-18)
(1.18475 0.160637 -1.61996e-17)
(1.20193 0.189198 -4.01547e-17)
(1.22356 0.225267 1.83057e-17)
(1.24115 0.280164 -8.51062e-19)
(1.27368 0.41614 2.5359e-19)
(1.11186 0.450783 -6.33535e-18)
(1.15199 0.0953122 -1.20888e-17)
(1.15698 0.114554 -6.39759e-18)
(1.16301 0.121751 1.75903e-17)
(1.17237 0.141335 -8.02367e-18)
(1.18665 0.1581 -1.92734e-17)
(1.20453 0.185549 -3.81891e-17)
(1.2275 0.220462 1.6588e-17)
(1.24957 0.272247 -7.09271e-18)
(1.28774 0.407768 3.12311e-20)
(1.1502 0.440669 -5.63605e-18)
(1.15297 0.0953614 -1.13958e-17)
(1.15825 0.113938 -6.01042e-18)
(1.16427 0.120711 1.64806e-17)
(1.17392 0.139629 -7.31178e-18)
(1.18841 0.155536 -1.81087e-17)
(1.20694 0.181829 -3.65592e-17)
(1.23103 0.215442 1.52845e-17)
(1.25755 0.263919 -7.37846e-18)
(1.30088 0.397115 8.21577e-20)
(1.19215 0.428755 -4.89424e-18)
(1.15391 0.0953932 -1.07955e-17)
(1.15946 0.113309 -2.52548e-18)
(1.16548 0.11966 1.52546e-17)
(1.17537 0.137909 -6.88845e-18)
(1.19005 0.152949 -1.6938e-17)
(1.20917 0.178057 -3.47608e-17)
(1.23417 0.210228 1.46644e-17)
(1.26498 0.255325 3.89029e-19)
(1.31251 0.384045 -1.85916e-19)
(1.23707 0.414912 -2.74192e-18)
(1.15482 0.0954092 -1.00731e-17)
(1.16061 0.112668 -2.08462e-18)
(1.16661 0.118599 1.44459e-17)
(1.17673 0.136167 -1.01992e-17)
(1.19152 0.150312 -1.98298e-17)
(1.21118 0.174173 -2.79992e-17)
(1.2368 0.204677 7.2699e-18)
(1.27158 0.246196 9.70602e-19)
(1.32312 0.36733 8.27747e-19)
(1.28523 0.397859 -3.13661e-17)
(1.03593 -3.3411e-05 -5.9467e-19)
(0.963318 0.000500941 1.22063e-18)
(1.03501 -3.18603e-05 -4.66337e-18)
(0.961134 0.00122654 2.39793e-18)
(1.03174 0.00145989 -7.23689e-18)
(0.948434 0.00748401 -2.43652e-19)
(0.999173 0.00406305 7.63529e-18)
(0.916899 0.035094 -1.43946e-17)
(0.840858 0.0356256 2.16332e-17)
(0.758968 0.276407 -8.04967e-18)
(1.03607 -2.37868e-05 -1.88452e-18)
(0.963032 0.000521254 9.6183e-19)
(1.03538 -7.63935e-06 -3.81072e-18)
(0.960608 0.00129684 2.3485e-18)
(1.03245 0.00165262 -7.7862e-18)
(0.947352 0.00800867 -1.72303e-18)
(1.0009 0.00467126 6.28899e-18)
(0.914445 0.0377454 -1.28161e-17)
(0.847935 0.0400362 2.29943e-17)
(0.761462 0.297333 1.51873e-18)
(1.03622 -1.16976e-05 -1.64601e-18)
(0.962743 0.000537774 6.91149e-19)
(1.03576 1.7412e-05 -3.2926e-18)
(0.960072 0.00136173 2.48854e-18)
(1.03318 0.0018549 -6.59523e-18)
(0.946245 0.00851104 -1.20784e-18)
(1.00268 0.00529946 5.33293e-18)
(0.91195 0.0402832 -1.22537e-17)
(0.8554 0.044357 2.70819e-17)
(0.76429 0.317085 3.07161e-18)
(1.03636 1.87844e-06 -1.57319e-18)
(0.962456 0.000551297 4.64218e-19)
(1.03614 4.4871e-05 -3.00145e-18)
(0.959531 0.00142316 1.32808e-18)
(1.03393 0.0020664 -6.20996e-18)
(0.945128 0.00900618 -2.33499e-18)
(1.00451 0.00596084 1.91982e-19)
(0.909463 0.0427957 -1.27974e-17)
(0.86322 0.0487285 2.18288e-17)
(0.767446 0.336867 5.60611e-18)
(1.03649 1.6772e-05 -1.7115e-18)
(0.962175 0.000561194 3.4692e-19)
(1.03653 7.76176e-05 -2.96183e-18)
(0.958994 0.00147957 -1.26472e-18)
(1.03469 0.002288 -6.43984e-18)
(0.944016 0.00948673 -3.63079e-18)
(1.00637 0.00665592 -8.89358e-19)
(0.907034 0.0452406 -1.07386e-17)
(0.871363 0.053159 1.89815e-17)
(0.770943 0.356687 1.11664e-17)
(1.03661 3.4205e-05 -3.48916e-19)
(0.961905 0.00056737 1.88364e-19)
(1.0369 0.000114203 -1.33377e-18)
(0.958467 0.00153085 -2.56239e-18)
(1.03545 0.00251942 -4.78239e-18)
(0.942925 0.00995142 -3.26577e-18)
(1.00824 0.00738167 -1.94787e-18)
(0.904719 0.0476082 -9.58041e-18)
(0.879787 0.0576272 1.87423e-17)
(0.774832 0.376398 1.18442e-17)
(1.03672 5.37575e-05 9.37561e-19)
(0.96165 0.000569834 1.52723e-19)
(1.03727 0.000154461 1.07687e-19)
(0.957958 0.00157697 -4.22092e-18)
(1.0362 0.00276025 -3.59125e-18)
(0.94187 0.0103992 -3.19859e-18)
(1.01012 0.00813333 -3.45384e-18)
(0.90258 0.0498896 -8.87399e-18)
(0.888442 0.0620976 2.19377e-17)
(0.779252 0.395988 1.49498e-17)
(1.03682 7.54122e-05 7.35249e-19)
(0.961415 0.000568299 8.97502e-22)
(1.03763 0.00019873 1.47323e-18)
(0.957474 0.00161739 -4.83834e-18)
(1.03693 0.00301262 -2.79932e-18)
(0.940866 0.0108301 -3.36716e-18)
(1.01199 0.0089133 -5.45629e-18)
(0.900681 0.0520839 -8.47351e-18)
(0.897272 0.0666456 1.54423e-17)
(0.784573 0.415511 1.36619e-17)
(1.0369 9.93397e-05 5.82391e-19)
(0.961204 0.000562606 -8.71738e-20)
(1.03796 0.000249678 2.83456e-18)
(0.957022 0.00165365 -4.45542e-18)
(1.03765 0.00327954 -2.1844e-18)
(0.93993 0.0112643 -3.91569e-18)
(1.01384 0.00974768 -3.6479e-18)
(0.899099 0.0543042 -8.62441e-18)
(0.906211 0.0716314 1.09715e-17)
(0.791759 0.43499 1.29989e-17)
(1.03696 0.000124052 3.83541e-19)
(0.961023 0.000556599 -6.21568e-20)
(1.03828 0.00030094 2.41363e-18)
(0.956611 0.00169396 -4.68096e-18)
(1.03835 0.00353867 -1.70248e-18)
(0.939077 0.011712 -3.25653e-18)
(1.01568 0.0105745 -2.46871e-18)
(0.897923 0.0565441 -9.53624e-18)
(0.915199 0.0761776 7.83137e-18)
(0.803392 0.454088 1.41782e-17)
(1.03483 -5.18357e-06 1.51539e-18)
(0.965374 3.06903e-05 -2.30511e-18)
(1.03246 -7.97613e-06 1.53984e-18)
(0.964746 7.18141e-05 -2.81682e-18)
(1.02698 5.60104e-05 -1.53918e-18)
(0.955566 0.000408179 9.51279e-19)
(0.988101 0.000164281 1.9094e-17)
(0.931921 0.00190555 5.06691e-18)
(0.800188 0.00178636 1.14696e-17)
(0.742067 0.0133224 1.66902e-17)
(1.03485 -1.39719e-05 2.11515e-18)
(0.96533 8.70349e-05 -1.54853e-18)
(1.03251 -2.05891e-05 1.97355e-18)
(0.964669 0.000199839 -3.5802e-18)
(1.02708 0.000169215 -3.7641e-18)
(0.955415 0.00115451 2.02636e-18)
(0.988317 0.00046576 2.3656e-17)
(0.931594 0.00535736 4.1361e-18)
(0.801 0.00498759 2.18898e-17)
(0.742459 0.0402342 8.66646e-18)
(1.0349 -2.24226e-05 2.9156e-18)
(0.965243 0.000142779 -9.38472e-19)
(1.03262 -3.28388e-05 2.38505e-19)
(0.964517 0.000328407 -3.20528e-18)
(1.02728 0.000285185 -3.20283e-18)
(0.955117 0.00190141 2.13417e-18)
(0.988757 0.000782802 2.64913e-17)
(0.930962 0.00882675 3.38326e-18)
(0.802607 0.00829546 2.08264e-17)
(0.74322 0.0669062 1.17187e-18)
(1.03497 -2.99241e-05 2.12619e-18)
(0.965113 0.000197127 -5.76682e-19)
(1.03278 -4.33229e-05 -1.50773e-18)
(0.964293 0.000454592 -3.28882e-18)
(1.02757 0.000405498 -2.94484e-18)
(0.954676 0.00264153 1.29521e-18)
(0.989419 0.00111302 2.78397e-17)
(0.930042 0.0122689 2.90867e-18)
(0.804993 0.0116248 2.30826e-17)
(0.744337 0.0934854 -7.48384e-18)
(1.03506 -3.61867e-05 1.75068e-18)
(0.964944 0.000249517 -3.98311e-19)
(1.03298 -5.16766e-05 -1.16616e-18)
(0.963999 0.000577659 -2.18877e-18)
(1.02795 0.000531326 1.01274e-19)
(0.9541 0.00337172 1.63e-18)
(0.9903 0.00145879 2.27576e-17)
(0.92885 0.0156713 -1.19127e-18)
(0.808139 0.0149664 2.9578e-17)
(0.745794 0.12002 -2.01174e-17)
(1.03518 -4.09254e-05 1.53162e-18)
(0.964738 0.000299546 1.42775e-18)
(1.03324 -5.74282e-05 -1.03132e-18)
(0.96364 0.000697116 -1.20975e-18)
(1.02842 0.000663802 8.36935e-20)
(0.953395 0.00409081 2.78049e-18)
(0.991388 0.00182285 1.56963e-17)
(0.927403 0.0190298 -5.40453e-18)
(0.812022 0.0183154 2.44633e-17)
(0.747569 0.146517 -2.49621e-17)
(1.03531 -4.38587e-05 1.56709e-18)
(0.964499 0.000346814 1.52152e-18)
(1.03353 -6.01075e-05 -3.56393e-18)
(0.963222 0.000812422 -3.12101e-19)
(1.02897 0.000804003 -2.63311e-18)
(0.952574 0.00479749 2.60467e-18)
(0.99267 0.00220834 1.06557e-17)
(0.925714 0.0223391 -1.07118e-17)
(0.816613 0.0216724 2.22454e-17)
(0.749631 0.172982 -2.04475e-17)
(1.03545 -4.47282e-05 -5.89532e-20)
(0.96423 0.000390855 -3.25539e-20)
(1.03387 -5.9279e-05 -6.61292e-18)
(0.962751 0.000922838 5.42779e-19)
(1.02959 0.000952384 -5.4177e-18)
(0.951647 0.00548899 1.16201e-18)
(0.994125 0.00261656 6.56995e-18)
(0.923797 0.0255877 -1.36821e-17)
(0.821871 0.0250275 2.31453e-17)
(0.75193 0.199481 -1.86475e-17)
(1.03561 -4.32647e-05 2.83599e-19)
(0.963936 0.000431056 3.9718e-20)
(1.03423 -5.46377e-05 -8.07471e-18)
(0.962234 0.00102653 1.5043e-18)
(1.03028 0.00110853 -6.13187e-18)
(0.950627 0.00615845 1.19602e-19)
(0.99573 0.00303692 7.83002e-18)
(0.921665 0.0287325 -1.47827e-17)
(0.82775 0.0282431 2.82387e-17)
(0.754381 0.226205 -2.13951e-17)
(1.03577 -3.92405e-05 6.72589e-19)
(0.963622 0.000467706 1.50242e-18)
(1.03463 -4.59423e-05 -5.96895e-18)
(0.961678 0.00112481 2.65848e-18)
(1.03101 0.00127593 -7.61904e-18)
(0.949529 0.00681459 1.54452e-18)
(0.997454 0.00347865 9.8151e-18)
(0.919326 0.0318027 -1.38562e-17)
(0.834188 0.0313267 2.29834e-17)
(0.756836 0.25286 -1.47944e-17)
(1.03577 3.92403e-05 -3.08327e-19)
(0.963622 -0.000467706 -7.6223e-19)
(1.03463 4.59425e-05 -1.83092e-18)
(0.961678 -0.00112481 -5.21707e-18)
(1.03101 -0.00127593 -4.06832e-18)
(0.949529 -0.00681459 -2.40235e-18)
(0.997454 -0.00347865 -7.87218e-18)
(0.919326 -0.0318027 4.56231e-18)
(0.834188 -0.0313267 5.03563e-18)
(0.756836 -0.25286 -4.50459e-18)
(1.03561 4.32646e-05 1.32079e-19)
(0.963936 -0.000431056 -1.36471e-19)
(1.03423 5.46378e-05 -4.12963e-19)
(0.962234 -0.00102653 -6.67484e-18)
(1.03028 -0.00110854 -4.32604e-18)
(0.950627 -0.00615845 -1.54479e-18)
(0.99573 -0.00303692 -9.61511e-18)
(0.921665 -0.0287325 6.04211e-18)
(0.82775 -0.0282431 6.06103e-18)
(0.754381 -0.226205 4.44239e-18)
(1.03545 4.47281e-05 -1.37e-18)
(0.96423 -0.000390856 -1.38744e-18)
(1.03387 5.92791e-05 7.06625e-19)
(0.962751 -0.000922837 -7.43555e-18)
(1.02959 -0.000952384 -5.17496e-18)
(0.951647 -0.00548899 -1.08359e-18)
(0.994125 -0.00261656 -7.61956e-18)
(0.923797 -0.0255877 5.2403e-18)
(0.821871 -0.0250275 7.57477e-18)
(0.75193 -0.199481 3.2691e-19)
(1.03531 4.38585e-05 -1.07282e-18)
(0.964499 -0.000346814 -9.55812e-19)
(1.03353 6.01076e-05 -5.38703e-19)
(0.963222 -0.000812422 -5.91209e-18)
(1.02897 -0.000804004 -3.4827e-18)
(0.952574 -0.00479749 1.13541e-18)
(0.99267 -0.00220834 -6.20997e-18)
(0.925714 -0.0223391 5.84542e-18)
(0.816613 -0.0216724 -4.84463e-18)
(0.749631 -0.172982 8.28209e-18)
(1.03518 4.09253e-05 -1.10602e-18)
(0.964738 -0.000299546 -6.54476e-19)
(1.03324 5.74284e-05 3.23046e-19)
(0.96364 -0.000697115 -3.41786e-18)
(1.02842 -0.000663803 -5.16093e-18)
(0.953395 -0.00409081 3.41639e-18)
(0.991388 -0.00182285 -5.56833e-18)
(0.927403 -0.0190298 7.36219e-18)
(0.812022 -0.0183154 -1.86243e-18)
(0.747569 -0.146517 1.47593e-17)
(1.03506 3.61865e-05 -1.33191e-18)
(0.964944 -0.000249517 -3.72318e-19)
(1.03298 5.16768e-05 1.06489e-18)
(0.963999 -0.000577659 -1.57275e-18)
(1.02795 -0.000531327 -4.24937e-18)
(0.9541 -0.00337172 4.11988e-18)
(0.9903 -0.00145879 -5.64956e-18)
(0.92885 -0.0156713 2.9524e-18)
(0.808139 -0.0149664 -1.48772e-17)
(0.745794 -0.12002 9.55485e-18)
(1.03497 2.99239e-05 -1.71146e-18)
(0.965113 -0.000197127 -9.57395e-20)
(1.03278 4.3323e-05 -3.95379e-19)
(0.964293 -0.000454591 -5.2366e-20)
(1.02757 -0.000405499 -3.77405e-18)
(0.954676 -0.00264153 3.29216e-18)
(0.989419 -0.00111302 -1.54031e-18)
(0.930042 -0.0122689 2.29649e-18)
(0.804993 -0.0116248 -1.43086e-17)
(0.744337 -0.0934854 7.52256e-18)
(1.0349 2.24224e-05 -2.35941e-18)
(0.965243 -0.000142779 -1.48749e-18)
(1.03262 3.28389e-05 -1.8454e-18)
(0.964517 -0.000328406 -4.24784e-19)
(1.02728 -0.000285186 -5.08616e-19)
(0.955117 -0.00190141 9.47839e-19)
(0.988757 -0.000782802 2.55517e-18)
(0.930962 -0.00882675 1.70929e-18)
(0.802607 -0.00829546 -1.57479e-17)
(0.74322 -0.0669062 7.67997e-18)