/*--------------------------------*- C++ -*----------------------------------*\
  =========                 |
  \\      /  F ield         | OpenFOAM: The Open Source CFD Toolbox
   \\    /   O peration     | Website:  https://openfoam.org
    \\  /    A nd           | Version:  7
     \\/     M anipulation  |
\*---------------------------------------------------------------------------*/
FoamFile
{
    version     2.0;
    format      ascii;
    class       surfaceScalarField;
    location    "20";
    object      phi;
}
// * * * * * * * * * * * * * * * * * * * * * * * * * * * * * * * * * * * * * //

dimensions      [0 3 -1 0 0 0 0];

internalField   nonuniform List<scalar> 
415
(
-0.000656697
-0.00102158
0.000979042
-0.000625906
-0.000752353
0.000721561
-0.000577298
-0.00116941
0.00112081
-0.000550257
-0.000672006
0.000644965
-0.000498723
-0.00125582
0.00120429
-0.000472232
-0.000680076
0.000653585
-0.000396801
-0.00186233
0.0017869
-0.000369528
-0.00078805
0.000760778
-0.00254552
0.00239549
-0.000658387
-0.00106388
-0.000627852
-0.000782887
-0.000579538
-0.00121773
-0.000552805
-0.000698739
-0.000501696
-0.00130693
-0.000475687
-0.000706084
-0.000401049
-0.00193697
-0.000374812
-0.000814288
-0.00270038
-0.000660141
-0.00110593
-0.000629866
-0.000813162
-0.000581863
-0.00126573
-0.000555441
-0.00072516
-0.000504782
-0.00135759
-0.000479263
-0.000731603
-0.000405456
-0.00201078
-0.000380275
-0.000839469
-0.00286016
-0.000661953
-0.00114773
-0.000631947
-0.000843168
-0.000584266
-0.00131341
-0.000558166
-0.00075126
-0.000507972
-0.00140779
-0.00048296
-0.000756615
-0.000410011
-0.00208373
-0.00038591
-0.000863571
-0.000663823
-0.00118925
-0.000634095
-0.000586746
-0.000560978
-0.000511265
-0.000486773
-0.000414709
-0.000697446
-0.000554364
0.000506202
-0.00066191
-0.000410897
0.000375361
-0.00060676
-0.000634947
0.000579797
-0.000574955
-0.00036919
0.000337385
-0.00051563
-0.000685031
0.000625707
-0.000483247
-0.000378512
0.000346129
-0.000395131
-0.00102054
0.000932426
-0.00035719
-0.000455608
0.000417667
-0.00117484
0.00105913
-0.000698574
-0.00060237
-0.000663207
-0.000446264
-0.000608243
-0.00068991
-0.000576631
-0.000400803
-0.000517568
-0.000744095
-0.000485485
-0.000410595
-0.000397849
-0.00110818
-0.000360571
-0.000492886
-0.00129397
-0.000699798
-0.000650202
-0.000664611
-0.000481452
-0.000609855
-0.000744667
-0.000578447
-0.00043221
-0.000519674
-0.000802868
-0.000487912
-0.000442357
-0.000400804
-0.00119529
-0.000364243
-0.000529446
-0.00141676
-0.000701116
-0.000697847
-0.000666122
-0.000516446
-0.00061159
-0.000799199
-0.000580404
-0.000463395
-0.000521944
-0.000861328
-0.000490529
-0.000473772
-0.000403989
-0.00128183
-0.000368201
-0.000565234
-0.00154341
-0.000702525
-0.000745292
-0.000667739
-0.000551231
-0.000613447
-0.000853491
-0.000582499
-0.000494343
-0.000524375
-0.000919453
-0.000493332
-0.000504815
-0.000407402
-0.00136776
-0.000372441
-0.000600196
-0.00167414
-0.000704025
-0.000792522
-0.00066946
-0.000585796
-0.000615425
-0.000907527
-0.00058473
-0.000525038
-0.000526964
-0.000977219
-0.000496318
-0.00053546
-0.000411038
-0.00145304
-0.000376956
-0.000634278
-0.00180915
-0.000705613
-0.000839525
-0.000671284
-0.000620124
-0.00061752
-0.000961291
-0.000587095
-0.000555463
-0.000529708
-0.00103461
-0.000499484
-0.000565684
-0.000414892
-0.00153763
-0.000381742
-0.000667428
-0.00194862
-0.000707288
-0.000886287
-0.000673207
-0.000654205
-0.000619731
-0.00101477
-0.00058959
-0.000585604
-0.000532604
-0.00109159
-0.000502825
-0.000595464
-0.000418961
-0.00162149
-0.000386792
-0.000699596
-0.00209273
-0.000709048
-0.000932796
-0.000675229
-0.000688023
-0.000622056
-0.00106794
-0.000592213
-0.000615447
-0.00053565
-0.00114816
-0.000506338
-0.000624776
-0.000423239
-0.00170459
-0.000392102
-0.000730733
-0.00224164
-0.000710888
-0.000677351
-0.000624486
-0.000594968
-0.000538835
-0.000510026
-0.000427715
-0.00039767
-0.000719205
-5.08821e-05
-0.000681397
-3.78088e-05
-0.000623108
-5.82888e-05
-0.000589064
-3.40425e-05
-0.000526068
-6.29964e-05
-0.000490983
-3.50847e-05
-0.000396975
-9.40087e-05
-0.000354154
-4.28212e-05
-0.000100224
-0.000719316
-0.000101752
-0.000681521
-7.56037e-05
-0.000623249
-0.000116561
-0.000589221
-6.80707e-05
-0.000526247
-0.00012597
-0.000491182
-7.015e-05
-0.000397216
-0.000187975
-0.000354452
-8.55856e-05
-0.000200857
-0.000719543
-0.000152591
-0.000681779
-0.000113367
-0.000623543
-0.000174798
-0.000589549
-0.000102064
-0.000526626
-0.000188893
-0.000491613
-0.000105163
-0.000397736
-0.000281851
-0.000355097
-0.000128225
-0.000302229
-0.000719884
-0.000203383
-0.000682169
-0.000151082
-0.000623988
-0.000232979
-0.00059005
-0.000136002
-0.000527203
-0.00025174
-0.000492275
-0.000140092
-0.000398536
-0.000375589
-0.000356088
-0.000170673
-0.000404663
-0.000720339
-0.000254111
-0.000682691
-0.00018873
-0.000624586
-0.000291084
-0.000590722
-0.000169866
-0.000527979
-0.000314482
-0.000493167
-0.000174904
-0.000399615
-0.000469141
-0.000357423
-0.000212865
-0.000508481
-0.000720908
-0.000304757
-0.000683344
-0.000226295
-0.000625334
-0.000349094
-0.000591564
-0.000203636
-0.000528953
-0.000377094
-0.000494287
-0.00020957
-0.000400971
-0.000562458
-0.000359101
-0.000254734
-0.000613997
-0.000721591
-0.000355306
-0.000684128
-0.000263757
-0.000626233
-0.000406989
-0.000592576
-0.000237293
-0.000530122
-0.000439548
-0.000495636
-0.000244056
-0.000402602
-0.000655491
-0.000361121
-0.000296215
-0.000721521
-0.000722385
-0.00040574
-0.000685041
-0.000301101
-0.00062728
-0.00046475
-0.000593756
-0.000270817
-0.000531486
-0.000501818
-0.000497209
-0.000278333
-0.000404507
-0.000748194
-0.000363479
-0.000337243
-0.000831355
-0.000723291
-0.000456044
-0.000686083
-0.000338309
-0.000628475
-0.000522358
-0.000595103
-0.000304189
-0.000533044
-0.000563878
-0.000499007
-0.00031237
-0.000406683
-0.000840519
-0.000366174
-0.000377751
-0.000943794
-0.000724306
-0.000687254
-0.000629814
-0.000596619
-0.000534789
-0.000501031
-0.000409123
-0.000369207
)
;

boundaryField
{
    inlet
    {
        type            calculated;
        value           nonuniform 0();
    }
    outlet
    {
        type            calculated;
        value           nonuniform List<scalar> 
26
(
0.000699238
0.000700689
0.000702192
0.000703745
0.000705346
0.000706994
0.000745608
0.000746579
0.000747631
0.000748761
0.00074997
0.000751255
0.000752616
0.00075405
0.000755557
0.000757134
0.000770088
0.000770186
0.000770382
0.000770676
0.000771067
0.000771555
0.00077214
0.00077282
0.000773595
0.000774463
)
;
    }
    polygon
    {
        type            calculated;
        value           nonuniform 0();
    }
    top
    {
        type            symmetryPlane;
        value           uniform 0;
    }
    bottom
    {
        type            symmetryPlane;
        value           uniform 0;
    }
    outside
    {
        type            calculated;
        value           nonuniform 0();
    }
    procBoundary7to3
    {
        type            processor;
        value           nonuniform List<scalar> 
11
(
-0.00302493
-0.000872897
-0.00136076
-0.000777028
-0.0014575
-0.000781106
-0.00215579
-0.000391707
-0.000886572
-0.000665748
-0.0012305
)
;
    }
    procBoundary7to6
    {
        type            processor;
        value           nonuniform List<scalar> 
24
(
-0.000219501
-0.000219953
-0.000220499
-0.000221139
-0.000241473
-0.000241438
-0.000241462
-0.000241551
-0.00024171
-0.000241947
-0.000242268
-0.000242681
-0.000243193
-0.000243817
-0.00025393
-0.000253819
-0.000253725
-0.000253654
-0.000253606
-0.000253585
-0.000253597
-0.000253644
-0.000253736
-0.000253876
)
;
    }
    procBoundary7to11
    {
        type            processor;
        value           nonuniform List<scalar> 9(-7.3579e-10 3.80364e-10 -1.37367e-10 -7.83016e-10 -1.0956e-10 -3.12871e-10 8.69592e-10 3.74608e-10 -2.08377e-10);
    }
}


// ************************************************************************* //
