/*--------------------------------*- C++ -*----------------------------------*\
  =========                 |
  \\      /  F ield         | OpenFOAM: The Open Source CFD Toolbox
   \\    /   O peration     | Website:  https://openfoam.org
    \\  /    A nd           | Version:  7
     \\/     M anipulation  |
\*---------------------------------------------------------------------------*/
FoamFile
{
    version     2.0;
    format      ascii;
    class       volScalarField;
    location    "10";
    object      p;
}
// * * * * * * * * * * * * * * * * * * * * * * * * * * * * * * * * * * * * * //

dimensions      [0 2 -2 0 0 0 0];

internalField   nonuniform List<scalar> 
50
(
-0.342991
-0.376272
-0.468089
-0.507846
-0.562144
-0.441326
-0.332241
-0.361353
-0.445844
-0.473536
-0.532732
-0.469717
-0.349722
-0.428785
-0.464349
-0.506155
-0.482147
-0.33506
-0.404387
-0.459168
-0.475692
-0.491859
-0.320517
-0.381663
-0.451501
-0.450899
-0.490945
-0.303997
-0.358472
-0.431105
-0.439872
-0.487608
-0.286965
-0.336519
-0.400331
-0.447416
-0.449106
-0.267903
-0.312007
-0.365466
-0.453347
-0.474836
-0.288005
-0.331527
-0.409857
-0.382287
-0.274178
-0.291909
-0.333903
-0.910795
)
;

boundaryField
{
    inlet
    {
        type            zeroGradient;
    }
    outlet
    {
        type            fixedValue;
        value           nonuniform 0();
    }
    polygon
    {
        type            zeroGradient;
    }
    top
    {
        type            symmetryPlane;
    }
    bottom
    {
        type            symmetryPlane;
    }
    outside
    {
        type            slip;
    }
    procBoundary6to2
    {
        type            processor;
        value           nonuniform List<scalar> 
12
(
-0.314161
-0.305283
-0.321385
-0.321385
-0.309608
-0.297651
-0.28526
-0.273044
-0.260644
-0.248519
-0.248519
-0.234183
)
;
    }
    procBoundary6to3
    {
        type            processor;
        value           uniform -0.450998;
    }
    procBoundary6to5
    {
        type            processor;
        value           nonuniform List<scalar> 4(-0.26583 -0.260877 -0.347949 -0.482461);
    }
    procBoundary6to7
    {
        type            processor;
        value           nonuniform List<scalar> 5(-0.48567 -0.519152 -0.536055 -0.543227 -0.524165);
    }
}


// ************************************************************************* //
