/*--------------------------------*- C++ -*----------------------------------*\
  =========                 |
  \\      /  F ield         | OpenFOAM: The Open Source CFD Toolbox
   \\    /   O peration     | Website:  https://openfoam.org
    \\  /    A nd           | Version:  7
     \\/     M anipulation  |
\*---------------------------------------------------------------------------*/
FoamFile
{
    version     2.0;
    format      ascii;
    class       surfaceScalarField;
    location    "10";
    object      phi;
}
// * * * * * * * * * * * * * * * * * * * * * * * * * * * * * * * * * * * * * //

dimensions      [0 3 -1 0 0 0 0];

internalField   nonuniform List<scalar> 
84
(
-0.0043015
-0.0247172
-0.00442044
-0.0238113
-0.00361151
-0.0205108
-0.00179947
-0.011433
-0.000407625
0.00083977
0.00446257
-0.00440019
-0.0047069
-0.0235046
-0.00413824
-0.0210795
-0.00219938
-0.0133719
-0.000462051
-0.000897564
0.00400052
-0.00483763
-0.0230959
-0.0045119
-0.0214052
-0.00258239
-0.0153014
-0.000525369
-0.00295458
0.00347515
-0.00501688
-0.0225533
-0.0049322
-0.0214899
-0.00317664
-0.017057
-0.000716325
-0.00541489
0.00275883
-0.00511468
-0.0219125
-0.00527579
-0.0213288
-0.00391463
-0.0184181
-0.00108781
-0.00824171
0.00167102
-0.00520041
-0.0211861
-0.00557428
-0.0209549
-0.00468487
-0.0193076
-0.00169345
-0.0112331
-2.24315e-05
-0.00522683
-0.0204053
-0.00580061
-0.0203811
-0.0053743
-0.0197339
-0.0026255
-0.0139819
-0.00264793
-0.00521873
-0.00595758
-0.0196423
-0.00598199
-0.0197095
-0.00383195
-0.016132
-0.00647988
-0.00603243
-0.0187844
-0.00643892
-0.019303
-0.00517622
-0.0173947
-0.0116561
-0.00601392
-0.00685151
-0.00666082
)
;

boundaryField
{
    inlet
    {
        type            calculated;
        value           nonuniform 0();
    }
    outlet
    {
        type            calculated;
        value           nonuniform 0();
    }
    polygon
    {
        type            calculated;
        value           uniform 0;
    }
    top
    {
        type            symmetryPlane;
        value           uniform 0;
    }
    bottom
    {
        type            symmetryPlane;
        value           uniform 0;
    }
    outside
    {
        type            calculated;
        value           nonuniform 0();
    }
    procBoundary6to2
    {
        type            processor;
        value           nonuniform List<scalar> 
12
(
0.00372268
0.00373045
-0.0240474
0.00442891
0.00447431
0.00447386
0.00447406
0.004446
0.00441085
-0.0195974
0.0051745
0.005117
)
;
    }
    procBoundary6to3
    {
        type            processor;
        value           uniform 0.025296;
    }
    procBoundary6to5
    {
        type            processor;
        value           nonuniform List<scalar> 4(-0.0178874 -0.0184654 -0.0175853 -0.0183169);
    }
    procBoundary6to7
    {
        type            processor;
        value           nonuniform List<scalar> 5(0.0239303 0.0197019 0.009621 -0.00223161 -0.0048702);
    }
}


// ************************************************************************* //
