/*--------------------------------*- C++ -*----------------------------------*\
  =========                 |
  \\      /  F ield         | OpenFOAM: The Open Source CFD Toolbox
   \\    /   O peration     | Website:  https://openfoam.org
    \\  /    A nd           | Version:  7
     \\/     M anipulation  |
\*---------------------------------------------------------------------------*/
FoamFile
{
    version     2.0;
    format      ascii;
    class       surfaceScalarField;
    location    "80";
    object      phi;
}
// * * * * * * * * * * * * * * * * * * * * * * * * * * * * * * * * * * * * * //

dimensions      [0 3 -1 0 0 0 0];

internalField   nonuniform List<scalar> 
15760
(
0.000878108
3.36704e-06
-4.82063e-06
0.000880971
8.79774e-06
-1.16612e-05
0.000885233
1.58514e-05
-2.01129e-05
0.000890247
2.09042e-05
-2.59185e-05
0.000895475
2.33809e-05
-2.86087e-05
0.000900554
2.34702e-05
-2.85491e-05
0.000905236
2.14734e-05
-2.61559e-05
0.000909353
1.77807e-05
-2.18975e-05
0.000912791
1.27791e-05
-1.62172e-05
0.000915478
6.81365e-06
-9.50096e-06
0.000917351
1.68105e-07
-2.04081e-06
0.000918424
-6.98172e-06
5.90908e-06
0.000918659
-1.43555e-05
1.41206e-05
0.000918066
-2.18237e-05
2.24162e-05
0.00091666
-2.92543e-05
3.06609e-05
0.000914461
-3.65436e-05
3.87425e-05
0.000911498
-4.36075e-05
4.65706e-05
0.000907804
-5.03773e-05
5.40709e-05
0.000903418
-5.67955e-05
6.11817e-05
0.000898381
-6.28136e-05
6.78502e-05
0.00089274
-6.83898e-05
7.4031e-05
0.000886543
-7.34873e-05
7.96841e-05
0.000879843
-7.80739e-05
8.47739e-05
0.000872695
-8.21211e-05
8.92694e-05
0.000865156
-8.56054e-05
9.31443e-05
0.000857286
-8.85079e-05
9.63779e-05
0.000849146
-9.08158e-05
9.89562e-05
0.000840796
-9.25228e-05
0.000100872
0.000832298
-9.36298e-05
0.000102127
0.000823712
-9.41448e-05
0.000102731
0.000815094
-9.4083e-05
0.000102701
0.0008065
-9.34663e-05
0.000102061
0.00079798
-9.23226e-05
0.000100843
0.000789581
-9.06854e-05
9.90844e-05
0.000781345
-8.85925e-05
9.68283e-05
0.00077331
-8.60854e-05
9.41212e-05
0.000765506
-8.32086e-05
9.10126e-05
0.00075796
-8.00085e-05
8.75544e-05
0.000750693
-7.65328e-05
8.37999e-05
0.00074372
-7.28301e-05
7.98032e-05
0.00073705
-6.89489e-05
7.56182e-05
0.000730689
-6.49372e-05
7.12983e-05
0.000724636
-6.0842e-05
6.68954e-05
0.000718885
-5.67087e-05
6.24597e-05
0.000713426
-5.25806e-05
5.80391e-05
0.000708247
-4.84987e-05
5.36785e-05
0.000703328
-4.4501e-05
4.94197e-05
0.00069865
-4.06221e-05
4.53003e-05
0.000694189
-3.6893e-05
4.13542e-05
0.000689919
-3.3341e-05
3.76108e-05
0.000685813
-2.99896e-05
3.40953e-05
0.000681843
-2.68578e-05
3.08281e-05
0.000677978
-2.39612e-05
2.78256e-05
0.00067419
-2.13114e-05
2.50999e-05
0.000670447
-1.89164e-05
2.26593e-05
0.00066672
-1.67812e-05
2.05085e-05
0.000662978
-1.49081e-05
1.86495e-05
0.000659193
-1.32969e-05
1.70821e-05
0.000655335
-1.19462e-05
1.58041e-05
0.000651376
-1.08531e-05
1.48126e-05
0.000647286
-1.00148e-05
1.41042e-05
0.00064304
-9.43106e-06
1.36777e-05
0.000638608
-9.09864e-06
1.35299e-05
0.000633965
-9.01409e-06
1.36578e-05
0.000629082
-9.1798e-06
1.40628e-05
0.000623931
-9.59317e-06
1.47435e-05
0.000618485
-1.02581e-05
1.57044e-05
0.000612713
-1.11802e-05
1.69522e-05
0.000606585
-1.23698e-05
1.84979e-05
0.00060007
-1.38405e-05
2.03558e-05
0.000593133
-1.56056e-05
2.25421e-05
0.00058574
-1.76894e-05
2.50825e-05
0.000577853
-2.01193e-05
2.80061e-05
0.000569432
-2.29246e-05
3.13457e-05
0.000560433
-2.61438e-05
3.51431e-05
0.000550807
-2.98242e-05
3.94496e-05
0.000540504
-3.40234e-05
4.43271e-05
0.000529464
-3.88114e-05
4.98507e-05
0.000517627
-4.42709e-05
5.61085e-05
0.000504922
-5.05029e-05
6.3208e-05
0.000491273
-5.76292e-05
7.12781e-05
0.000476596
-6.5798e-05
8.04754e-05
0.000460797
-7.5191e-05
9.09899e-05
0.000443774
-8.60324e-05
0.000103055
0.000425414
-9.86007e-05
0.00011696
0.000405597
-0.000113249
0.000133066
0.000384193
-0.000130414
0.000151818
0.000361064
-0.000150706
0.000173835
0.000336087
-0.000174826
0.000199803
0.000309155
-0.000203815
0.000230747
0.00028022
-0.000238883
0.000267819
0.000249314
-0.000281996
0.000312901
0.0002168
-0.000335024
0.000367538
0.000182913
-0.000401748
0.000435635
0.000150043
-0.000485258
0.000518129
0.000117914
-0.000585669
0.000617798
9.50702e-05
-0.000718125
0.000740969
7.35966e-05
-0.000812359
0.000833832
5.05105e-05
-0.000956936
0.000980022
-0.000558962
0.000609473
0.000928105
2.34397e-06
0.00093031
6.59239e-06
0.000933757
1.24041e-05
0.000937959
1.67025e-05
0.00094243
1.89103e-05
0.00094682
1.90797e-05
0.000950875
1.74188e-05
0.00095441
1.42451e-05
0.000957299
9.89056e-06
0.000959449
4.66321e-06
0.000960829
-1.21181e-06
0.000961381
-7.5334e-06
0.000961104
-1.40789e-05
0.000959996
-2.07154e-05
0.000958068
-2.73262e-05
0.000955341
-3.38165e-05
0.000951843
-4.01092e-05
0.000947607
-4.61417e-05
0.000942673
-5.18614e-05
0.000937084
-5.72243e-05
0.000930886
-6.21923e-05
0.000924131
-6.67323e-05
0.000916872
-7.08151e-05
0.000909167
-7.44154e-05
0.000901073
-7.7512e-05
0.000892653
-8.0088e-05
0.000883969
-8.21319e-05
0.000875084
-8.36379e-05
0.000866061
-8.46065e-05
0.000856961
-8.50446e-05
0.000847843
-8.49654e-05
0.000838765
-8.4388e-05
0.000829779
-8.33368e-05
0.000820935
-8.18412e-05
0.000812277
-7.99343e-05
0.000803844
-7.76528e-05
0.000795672
-7.5036e-05
0.000787788
-7.21248e-05
0.000780217
-6.89615e-05
0.000772976
-6.55892e-05
0.000766078
-6.20508e-05
0.000759529
-5.83891e-05
0.000753333
-5.4646e-05
0.000747487
-5.08619e-05
0.000741982
-4.70757e-05
0.000736807
-4.3324e-05
0.000731947
-3.9641e-05
0.000727383
-3.6058e-05
0.000723093
-3.26031e-05
0.000719053
-2.93012e-05
0.000715237
-2.61735e-05
0.000711617
-2.3238e-05
0.000708165
-2.05088e-05
0.000704851
-1.7997e-05
0.000701644
-1.57102e-05
0.000698516
-1.36533e-05
0.000695437
-1.18288e-05
0.000692377
-1.0237e-05
0.000689308
-8.87645e-06
0.000686199
-7.74484e-06
0.000683024
-6.83955e-06
0.000679754
-6.16131e-06
0.000676363
-5.70746e-06
0.000672824
-5.47445e-06
0.000669108
-5.46411e-06
0.000665188
-5.67348e-06
0.000661036
-6.10609e-06
0.000656623
-6.76699e-06
0.000651919
-7.66542e-06
0.000646891
-8.81311e-06
0.000641507
-1.02214e-05
0.000635731
-1.19135e-05
0.000629526
-1.39144e-05
0.000622851
-1.62497e-05
0.000615661
-1.89541e-05
0.000607908
-2.20705e-05
0.000599536
-2.56516e-05
0.000590486
-2.97613e-05
0.000580691
-3.44759e-05
0.000570076
-3.98882e-05
0.000558558
-4.61109e-05
0.000546041
-5.32815e-05
0.00053242
-6.15693e-05
0.000517572
-7.11845e-05
0.00050136
-8.2389e-05
0.000483629
-9.55181e-05
0.000464205
-0.000110989
0.000442884
-0.000129385
0.000419453
-0.000151395
0.000393676
-0.000178038
0.000365326
-0.000210534
0.000334159
-0.000250829
0.000300159
-0.000301023
0.000263025
-0.000364615
0.000224014
-0.000446247
0.000182337
-0.000543991
0.00014243
-0.000678218
9.97818e-05
-0.000769711
4.10335e-05
-0.000898188
-0.000517929
0.000972953
1.62242e-06
0.00097463
4.91536e-06
0.000977409
9.62477e-06
0.000980905
1.32066e-05
0.0009847
1.51152e-05
0.000988466
1.5314e-05
0.000991945
1.39393e-05
0.000994947
1.12431e-05
0.000997333
7.50467e-06
0.000999007
2.98956e-06
0.000999911
-2.11624e-06
0.001
-7.62667e-06
0.000999266
-1.33409e-05
0.000997695
-1.91437e-05
0.000995299
-2.49306e-05
0.000992099
-3.06164e-05
0.000988122
-3.61321e-05
0.000983402
-4.14214e-05
0.000977977
-4.64372e-05
0.000971893
-5.11403e-05
0.000965198
-5.54965e-05
0.000957942
-5.94766e-05
0.000950181
-6.30546e-05
0.000941974
-6.62083e-05
0.000933381
-6.89188e-05
0.000924465
-7.11714e-05
0.000915288
-7.29558e-05
0.000905917
-7.42669e-05
0.000896416
-7.51047e-05
0.000886846
-7.54753e-05
0.000877271
-7.53897e-05
0.000867747
-7.48645e-05
0.000858331
-7.39206e-05
0.000849073
-7.25834e-05
0.000840021
-7.08817e-05
0.000831215
-6.88473e-05
0.000822693
-6.65141e-05
0.000814486
-6.3918e-05
0.00080662
-6.10957e-05
0.000799116
-5.80847e-05
0.000791988
-5.49227e-05
0.000785246
-5.1647e-05
0.000778894
-4.82943e-05
0.000772932
-4.49001e-05
0.000767355
-4.14986e-05
0.000762153
-3.8122e-05
0.000757313
-3.48007e-05
0.000752817
-3.15622e-05
0.000748646
-2.84317e-05
0.000744776
-2.54314e-05
0.000741183
-2.25803e-05
0.000737839
-1.98946e-05
0.000734718
-1.73873e-05
0.000731789
-1.50684e-05
0.000729024
-1.29452e-05
0.000726393
-1.10224e-05
0.000723867
-9.30234e-06
0.000721415
-7.78565e-06
0.00071901
-6.47121e-06
0.000716622
-5.35678e-06
0.000714223
-4.44007e-06
0.000711785
-3.72398e-06
0.000709282
-3.20399e-06
0.000706683
-2.87581e-06
0.000703966
-2.74683e-06
0.000701102
-2.80937e-06
0.000698062
-3.06626e-06
0.000694816
-3.52071e-06
0.000691333
-4.18291e-06
0.000687586
-5.0658e-06
0.000683539
-6.17487e-06
0.000679157
-7.53073e-06
0.000674402
-9.15928e-06
0.000669233
-1.10809e-05
0.000663605
-1.33259e-05
0.000657467
-1.59325e-05
0.000650763
-1.89481e-05
0.000643432
-2.24298e-05
0.000635402
-2.64461e-05
0.000626594
-3.10806e-05
0.000616918
-3.64349e-05
0.00060627
-4.26337e-05
0.000594532
-4.98308e-05
0.000581565
-5.82179e-05
0.000567211
-6.80348e-05
0.000551283
-7.95906e-05
0.000533566
-9.32717e-05
0.000513799
-0.000109619
0.000491687
-0.000129283
0.000466875
-0.000153226
0.000438969
-0.000182627
0.000407469
-0.00021933
0.00037198
-0.000265534
0.000331691
-0.000324326
0.000286843
-0.000401399
0.00023605
-0.000493199
0.000180666
-0.000622834
0.000120102
-0.000709147
4.05622e-05
-0.000818647
-0.000477367
0.00101248
1.11607e-06
0.00101376
3.64099e-06
0.00101599
7.38789e-06
0.00101889
1.03066e-05
0.0010221
1.19065e-05
0.00102532
1.21011e-05
0.00102828
1.09739e-05
0.0010308
8.72011e-06
0.00103274
5.56986e-06
0.00103398
1.74683e-06
0.00103447
-2.60533e-06
0.00103415
-7.30791e-06
0.00103301
-1.21944e-05
0.00103103
-1.71631e-05
0.00102822
-2.21233e-05
0.0010246
-2.70006e-05
0.0010202
-3.17345e-05
0.00101506
-3.62756e-05
0.0010092
-4.05829e-05
0.00100269
-4.46218e-05
0.000995552
-4.83629e-05
0.000987856
-5.17805e-05
0.000979654
-5.48523e-05
0.000971004
-5.75589e-05
0.00096197
-5.98841e-05
0.000952614
-6.18153e-05
0.000943001
-6.33434e-05
0.000933198
-6.44638e-05
0.00092327
-6.51767e-05
0.000913282
-6.54868e-05
0.000903295
-6.54035e-05
0.000893371
-6.49406e-05
0.000883567
-6.41159e-05
0.000873934
-6.29509e-05
0.000864523
-6.147e-05
0.000855375
-5.97001e-05
0.000846532
-5.76704e-05
0.000838025
-5.5411e-05
0.000829883
-5.29536e-05
0.000822128
-5.03301e-05
0.000814778
-4.75727e-05
0.000807844
-4.47135e-05
0.000801334
-4.17837e-05
0.000795248
-3.88141e-05
0.000789583
-3.5834e-05
0.000784332
-3.28711e-05
0.000779483
-2.99518e-05
0.000775021
-2.70998e-05
0.000770926
-2.43371e-05
0.000767178
-2.1683e-05
0.000763752
-1.91543e-05
0.000760622
-1.67651e-05
0.000757762
-1.4527e-05
0.000755143
-1.2449e-05
0.000752735
-1.05377e-05
0.00075051
-8.79748e-06
0.000748439
-7.23063e-06
0.000746491
-5.83783e-06
0.000744638
-4.61825e-06
0.000742851
-3.56984e-06
0.000741101
-2.69042e-06
0.00073936
-1.98224e-06
0.000737602
-1.44604e-06
0.000735803
-1.07768e-06
0.00073393
-8.73748e-07
0.000731957
-8.36307e-07
0.000729857
-9.65666e-07
0.000727602
-1.26639e-06
0.000725165
-1.74515e-06
0.000722507
-2.40767e-06
0.000719595
-3.26342e-06
0.0007164
-4.33579e-06
0.000712881
-5.64012e-06
0.000708996
-7.1964e-06
0.0007047
-9.02984e-06
0.000699942
-1.11737e-05
0.000694663
-1.36692e-05
0.000688799
-1.65663e-05
0.000682278
-1.99248e-05
0.000675015
-2.3818e-05
0.000666915
-2.8335e-05
0.000657867
-3.35856e-05
0.000647742
-3.97052e-05
0.000636388
-4.68637e-05
0.000623627
-5.52738e-05
0.000609247
-6.52113e-05
0.000592997
-7.70219e-05
0.000574568
-9.11899e-05
0.000553593
-0.000108308
0.000529614
-0.000129247
0.00050209
-0.000155103
0.000470301
-0.000187541
0.000433503
-0.000228736
0.000390444
-0.000281267
0.000340452
-0.000351408
0.000281669
-0.000434415
0.000213111
-0.000554276
0.000137528
-0.000633564
4.40888e-05
-0.000725208
-0.000433278
0.00104657
7.61092e-07
0.00104755
2.66715e-06
0.00104935
5.58095e-06
0.00105176
7.89643e-06
0.00105448
9.19276e-06
0.00105721
9.36358e-06
0.00105973
8.45549e-06
0.00106184
6.61559e-06
0.00106338
4.02887e-06
0.00106425
8.79293e-07
0.00106437
-2.73075e-06
0.0010637
-6.63315e-06
0.0010622
-1.06951e-05
0.00105986
-1.48302e-05
0.0010567
-1.89623e-05
0.00105273
-2.30282e-05
0.00104797
-2.69766e-05
0.00104246
-3.07654e-05
0.00103624
-3.43601e-05
0.00102935
-3.77312e-05
0.00102184
-4.08539e-05
0.00101377
-4.37066e-05
0.00100518
-4.62704e-05
0.000996155
-4.85291e-05
0.00098674
-5.04692e-05
0.000977004
-5.20798e-05
0.000967015
-5.33535e-05
0.000956837
-5.42864e-05
0.000946539
-5.48784e-05
0.000936185
-5.51332e-05
0.00092584
-5.50586e-05
0.000915566
-5.46658e-05
0.000905419
-5.39696e-05
0.000895456
-5.29876e-05
0.000885726
-5.17398e-05
0.000876274
-5.02486e-05
0.000867142
-4.8538e-05
0.000858364
-4.66332e-05
0.000849971
-4.45601e-05
0.000841986
-4.23455e-05
0.00083443
-4.00161e-05
0.000827315
-3.75985e-05
0.00082065
-3.51188e-05
0.000814438
-3.26027e-05
0.000808679
-3.00746e-05
0.000803366
-2.75579e-05
0.000798488
-2.50744e-05
0.000794033
-2.26445e-05
0.000789982
-2.02863e-05
0.000786316
-1.80164e-05
0.00078301
-1.58489e-05
0.000780041
-1.3796e-05
0.000777382
-1.18676e-05
0.000775004
-1.00716e-05
0.00077288
-8.4136e-06
0.00077098
-6.89758e-06
0.000769275
-5.52576e-06
0.000767736
-4.29886e-06
0.000766334
-3.2162e-06
0.00076504
-2.27526e-06
0.000763823
-1.47336e-06
0.000762662
-8.21754e-07
0.000761523
-3.0716e-07
0.000760372
7.31994e-08
0.000759204
2.94329e-07
0.000757979
3.89103e-07
0.000756668
3.45735e-07
0.000755234
1.66722e-07
0.000753653
-1.63199e-07
0.000751906
-6.61372e-07
0.000749956
-1.31274e-06
0.00074775
-2.13035e-06
0.000745266
-3.15585e-06
0.000742458
-4.38875e-06
0.00073928
-5.85173e-06
0.00073568
-7.57311e-06
0.000731598
-9.58789e-06
0.00072697
-1.19381e-05
0.00072172
-1.46745e-05
0.00071576
-1.78587e-05
0.000708992
-2.15665e-05
0.000701297
-2.58908e-05
0.000692539
-3.09471e-05
0.000682555
-3.688e-05
0.000671153
-4.38714e-05
0.000658099
-5.21576e-05
0.000643113
-6.20359e-05
0.000625846
-7.39229e-05
0.000605873
-8.83348e-05
0.000582652
-0.000106026
0.000555518
-0.000127969
0.00052357
-0.000155593
0.00048577
-0.000190935
0.000440519
-0.000236016
0.000386307
-0.000297195
0.000321007
-0.000369115
0.00024173
-0.000475
0.000153688
-0.000545521
4.99753e-05
-0.000621496
-0.000383303
0.00107512
5.10851e-07
0.00107587
1.91264e-06
0.00107735
4.10574e-06
0.00107937
5.87655e-06
0.00108168
6.88334e-06
0.00108402
7.02096e-06
0.00108616
6.31228e-06
0.00108791
4.86442e-06
0.00108912
2.82168e-06
0.00108968
3.26039e-07
0.00108949
-2.54961e-06
0.00108852
-5.65942e-06
0.00108673
-8.90079e-06
0.0010841
-1.22039e-05
0.00108064
-1.55074e-05
0.00107638
-1.876e-05
0.00107132
-2.19201e-05
0.00106551
-2.49536e-05
0.00105898
-2.78323e-05
0.00105178
-3.05326e-05
0.00104396
-3.30341e-05
0.00103557
-3.53195e-05
0.00102668
-3.73735e-05
0.00101733
-3.91832e-05
0.0010076
-4.07376e-05
0.000997549
-4.20279e-05
0.000987243
-4.30483e-05
0.000976752
-4.37954e-05
0.000966143
-4.4269e-05
0.000955482
-4.44721e-05
0.000944834
-4.44107e-05
0.000934262
-4.40938e-05
0.000923825
-4.35328e-05
0.000913579
-4.27417e-05
0.000903576
-4.17365e-05
0.000893862
-4.05348e-05
0.00088448
-3.91557e-05
0.000875466
-3.76191e-05
0.000866851
-3.59458e-05
0.000858663
-3.41571e-05
0.000850921
-3.22743e-05
0.000843641
-3.03185e-05
0.000836833
-2.83109e-05
0.000830502
-2.62717e-05
0.000824648
-2.42206e-05
0.000819267
-2.21765e-05
0.000814349
-2.01567e-05
0.000809882
-1.81778e-05
0.000805851
-1.62545e-05
0.000802234
-1.44e-05
0.000799011
-1.26261e-05
0.000796158
-1.09425e-05
0.000793648
-9.35741e-06
0.000791453
-7.87734e-06
0.000789547
-6.50709e-06
0.000787899
-5.24997e-06
0.000786481
-4.10793e-06
0.000785264
-3.08164e-06
0.000784219
-2.17067e-06
0.000783316
-1.37268e-06
0.000782529
-6.86258e-07
0.000781819
-1.11699e-07
0.000781179
3.33158e-07
0.000780581
6.70932e-07
0.000779974
9.01158e-07
0.000779344
1.0195e-06
0.000778662
1.02738e-06
0.000777908
9.20707e-07
0.00077705
6.94895e-07
0.000776038
3.50176e-07
0.00077484
-1.14486e-07
0.000773459
-7.49541e-07
0.000771821
-1.51781e-06
0.000769895
-2.46248e-06
0.000767633
-3.58991e-06
0.000764983
-4.92309e-06
0.000761886
-6.49074e-06
0.000758275
-8.32674e-06
0.000754072
-1.04719e-05
0.000749189
-1.2976e-05
0.000743523
-1.59002e-05
0.000736952
-1.93198e-05
0.000729333
-2.33283e-05
0.000720496
-2.8043e-05
0.000710237
-3.36119e-05
0.000698307
-4.02275e-05
0.000684403
-4.81327e-05
0.000668148
-5.76674e-05
0.000649071
-6.92576e-05
0.000626566
-8.35208e-05
0.000599872
-0.000101275
0.00056795
-0.000123672
0.000529522
-0.000152507
0.000482743
-0.000189237
0.000425366
-0.000239818
0.000355135
-0.000298884
0.000267577
-0.000387442
0.000169408
-0.000447352
5.7326e-05
-0.000509414
-0.000325977
0.00109805
3.31437e-07
0.00109864
1.31395e-06
0.00109987
2.87781e-06
0.00110159
4.156e-06
0.00110359
4.8906e-06
0.00110561
4.99227e-06
0.00110746
4.47008e-06
0.00110892
3.39788e-06
0.00110986
1.88042e-06
0.00111016
3.08214e-08
0.00110973
-2.12473e-06
0.00110852
-4.44683e-06
0.00110649
-6.87161e-06
0.00110363
-9.34476e-06
0.00109995
-1.18199e-05
0.00109544
-1.42582e-05
0.00109015
-1.66283e-05
0.0010841
-1.89041e-05
0.00107734
-2.10644e-05
0.00106989
-2.30912e-05
0.00106183
-2.49692e-05
0.00105319
-2.66852e-05
0.00104405
-2.82278e-05
0.00103445
-2.95871e-05
0.00102447
-3.07549e-05
0.00101417
-3.17247e-05
0.00100361
-3.24918e-05
0.000992869
-3.30538e-05
0.00098201
-3.34105e-05
0.000971102
-3.3564e-05
0.00096021
-3.35187e-05
0.000949398
-3.32812e-05
0.000938725
-3.286e-05
0.000928249
-3.22656e-05
0.000918022
-3.15095e-05
0.000908092
-3.06051e-05
0.000898503
-2.95663e-05
0.000889292
-2.84082e-05
0.000880492
-2.71463e-05
0.000872131
-2.57963e-05
0.000864231
-2.43741e-05
0.000856808
-2.28958e-05
0.000849875
-2.1377e-05
0.000843436
-1.98329e-05
0.000837493
-1.82783e-05
0.000832044
-1.67274e-05
0.000827081
-1.51933e-05
0.000822592
-1.36884e-05
0.000818561
-1.22239e-05
0.000814971
-1.08098e-05
0.0008118
-9.45509e-06
0.000809025
-8.16718e-06
0.00080662
-6.9524e-06
0.000804558
-5.81574e-06
0.000802812
-4.761e-06
0.000801353
-3.79081e-06
0.000800152
-2.90681e-06
0.00079918
-2.10967e-06
0.000798408
-1.39893e-06
0.000797805
-7.70245e-07
0.000797342
-2.2236e-07
0.000797004
2.25523e-07
0.000796751
5.8625e-07
0.000796553
8.68713e-07
0.000796392
1.0626e-06
0.000796234
1.17706e-06
0.000796053
1.20882e-06
0.000795818
1.15612e-06
0.000795499
1.01301e-06
0.000795077
7.72264e-07
0.000794525
4.37668e-07
0.000793749
2.69253e-08
0.000792784
-5.53335e-07
0.000791555
-1.23344e-06
0.000790019
-2.05361e-06
0.000788123
-3.027e-06
0.000785808
-4.17554e-06
0.000783006
-5.52481e-06
0.000779639
-7.10542e-06
0.000775618
-8.95486e-06
0.000770837
-1.11191e-05
0.000765172
-1.36548e-05
0.000758476
-1.66326e-05
0.000750574
-2.01411e-05
0.000741255
-2.4292e-05
0.000730258
-2.92313e-05
0.000717269
-3.51431e-05
0.000701886
-4.22847e-05
0.000683611
-5.09821e-05
0.000661792
-6.17022e-05
0.000635599
-7.50823e-05
0.000603903
-9.19756e-05
0.000565238
-0.000113842
0.000517613
-0.000141612
0.000458166
-0.000180371
0.000384607
-0.000225326
0.000291116
-0.00029395
0.000185084
-0.00034132
6.57887e-05
-0.000390119
-0.000260188
0.00111529
1.98139e-07
0.00111579
8.21178e-07
0.00111684
1.82477e-06
0.00111834
2.6521e-06
0.0011201
3.13097e-06
0.0011219
3.19734e-06
0.00112351
2.85353e-06
0.00112477
2.14591e-06
0.0011255
1.14459e-06
0.00112562
-8.52227e-08
0.00112501
-1.5124e-06
0.00112362
-3.05675e-06
0.00112141
-4.66908e-06
0.00111838
-6.31455e-06
0.00111453
-7.96223e-06
0.00110985
-9.58616e-06
0.00110439
-1.11652e-05
0.00109817
-1.26819e-05
0.00109123
-1.4122e-05
0.00108361
-1.54735e-05
0.00107537
-1.67262e-05
0.00106655
-1.78711e-05
0.00105722
-1.89006e-05
0.00104745
-1.98083e-05
0.00103728
-2.05884e-05
0.00102679
-2.12368e-05
0.00101605
-2.17502e-05
0.00100512
-2.21271e-05
0.00099408
-2.23671e-05
0.000982987
-2.24718e-05
0.000971913
-2.24439e-05
0.000960919
-2.22878e-05
0.000950068
-2.2009e-05
0.000939417
-2.16143e-05
0.000929019
-2.11115e-05
0.000918923
-2.05092e-05
0.000909173
-1.98167e-05
0.000899809
-1.90439e-05
0.000890864
-1.8201e-05
0.000882366
-1.72985e-05
0.000874339
-1.6347e-05
0.0008668
-1.5357e-05
0.000859762
-1.4339e-05
0.000853232
-1.3303e-05
0.000847213
-1.22591e-05
0.000841702
-1.12164e-05
0.000836693
-1.0184e-05
0.000832175
-9.17009e-06
0.000828133
-8.18214e-06
0.00082455
-7.22698e-06
0.000821405
-6.31058e-06
0.000818676
-5.43808e-06
0.000816338
-4.61377e-06
0.000814363
-3.8411e-06
0.000812725
-3.12272e-06
0.000811394
-2.46049e-06
0.000810343
-1.8556e-06
0.000809542
-1.30852e-06
0.000808962
-8.19041e-07
0.000808578
-3.85782e-07
0.000808356
-5.72534e-10
0.000808277
3.04285e-07
0.000808304
5.59547e-07
0.000808413
7.59727e-07
0.000808571
9.04141e-07
0.000808755
9.93339e-07
0.000808938
1.02633e-06
0.000809092
1.00182e-06
0.000809187
9.18304e-07
0.000809186
7.72641e-07
0.000809058
5.65778e-07
0.000808806
2.79335e-07
0.000808323
-7.07929e-08
0.000807615
-5.24855e-07
0.00080662
-1.05907e-06
0.000805289
-1.69564e-06
0.000803561
-2.44828e-06
0.00080137
-3.33387e-06
0.000798638
-4.37274e-06
0.000795273
-5.58981e-06
0.000791169
-7.01561e-06
0.000786202
-8.68793e-06
0.000780223
-1.06537e-05
0.000773054
-1.29721e-05
0.00076448
-1.57175e-05
0.000754236
-1.89876e-05
0.000741998
-2.29053e-05
0.000727356
-2.7642e-05
0.000709791
-3.34175e-05
0.00068863
-4.05411e-05
0.000662997
-4.94497e-05
0.000631717
-6.06951e-05
0.000593189
-7.53134e-05
0.000545374
-9.37976e-05
0.000484922
-0.000119919
0.000409604
-0.000150008
0.000312428
-0.000196774
0.00020085
-0.000229743
7.51507e-05
-0.000264419
-0.000185037
0.00112682
9.2524e-08
0.00112725
3.9431e-07
0.00112819
8.83711e-07
0.00112955
1.28922e-06
0.00113116
1.5248e-06
0.0011328
1.55725e-06
0.00113426
1.38668e-06
0.00113537
1.03525e-06
0.00113598
5.37704e-07
0.00113596
-6.90795e-08
0.00113524
-7.84849e-07
0.00113373
-1.55304e-06
0.00113142
-2.35621e-06
0.00112828
-3.17628e-06
0.00112432
-3.99778e-06
0.00111954
-4.80773e-06
0.00111397
-5.59554e-06
0.00110764
-6.35256e-06
0.00110059
-7.07163e-06
0.00109286
-7.74673e-06
0.00108451
-8.37276e-06
0.00107558
-8.94532e-06
0.00106614
-9.46059e-06
0.00105625
-9.91529e-06
0.00104597
-1.03067e-05
0.00103537
-1.06326e-05
0.00102451
-1.08914e-05
0.00101346
-1.10823e-05
0.0010023
-1.12052e-05
0.000991088
-1.12606e-05
0.000979894
-1.125e-05
0.000968782
-1.11755e-05
0.000957813
-1.10398e-05
0.000947045
-1.0846e-05
0.000936531
-1.05981e-05
0.000926322
-1.03001e-05
0.000916462
-9.95674e-06
0.000906991
-9.57275e-06
0.000897943
-9.1532e-06
0.000889348
-8.70324e-06
0.000881229
-8.22809e-06
0.000873605
-7.73298e-06
0.000866489
-7.22307e-06
0.000859889
-6.70341e-06
0.000853809
-6.17891e-06
0.000848247
-5.65426e-06
0.000843197
-5.13392e-06
0.000838649
-4.62201e-06
0.000834589
-4.12236e-06
0.000831
-3.63842e-06
0.000827863
-3.17324e-06
0.000825154
-2.72949e-06
0.00082285
-2.30939e-06
0.000820924
-1.9148e-06
0.000819348
-1.54712e-06
0.000818095
-1.20743e-06
0.000817136
-8.96468e-07
0.000816442
-6.14619e-07
0.000815984
-3.61381e-07
0.00081573
-1.31492e-07
0.000815665
6.43255e-08
0.00081575
2.1944e-07
0.000815957
3.52231e-07
0.000816259
4.58475e-07
0.000816628
5.34591e-07
0.000817038
5.83054e-07
0.000817462
6.02932e-07
0.00081787
5.93306e-07
0.000818235
5.54071e-07
0.000818526
4.81349e-07
0.000818713
3.7851e-07
0.00081875
2.42685e-07
0.000818616
6.25649e-08
0.000818254
-1.62487e-07
0.000817628
-4.33225e-07
0.000816683
-7.49973e-07
0.000815358
-1.12404e-06
0.000813588
-1.5638e-06
0.000811295
-2.07924e-06
0.000808388
-2.68264e-06
0.000804761
-3.38907e-06
0.00080029
-4.21725e-06
0.000794827
-5.19043e-06
0.000788193
-6.33799e-06
0.000780172
-7.69699e-06
0.000770501
-9.31582e-06
0.000758851
-1.12559e-05
0.000744811
-1.36019e-05
0.000727858
-1.64645e-05
0.000707311
-1.99939e-05
0.000682277
-2.44157e-05
0.000651568
-2.99856e-05
0.00061352
-3.72658e-05
0.000566131
-4.64085e-05
0.000505672
-5.946e-05
0.000430079
-7.44149e-05
0.00033137
-9.8065e-05
0.000216693
-0.000115066
8.60332e-05
-0.000133759
-9.90042e-05
0.00113259
-1.57869e-11
0.00113298
-5.78517e-10
0.00113387
-1.52698e-09
0.00113516
-2.71265e-09
0.00113669
-3.87655e-09
0.00113825
-4.77375e-09
0.00113964
-5.20485e-09
0.00114069
-5.02522e-09
0.00114123
-4.25227e-09
0.00114116
-2.87156e-09
0.00114038
-9.34707e-10
0.00113882
1.51821e-09
0.00113646
4.26994e-09
0.00113328
7.19475e-09
0.00112927
1.0163e-08
0.00112445
1.30487e-08
0.00111884
1.57384e-08
0.00111247
1.81331e-08
0.00110538
2.01459e-08
0.00109761
2.17029e-08
0.00108921
2.27395e-08
0.00108024
2.31995e-08
0.00107076
2.30345e-08
0.00106082
2.22059e-08
0.00105049
2.06858e-08
0.00103984
1.84597e-08
0.00102894
1.55289e-08
0.00101784
1.19133e-08
0.00100663
7.65342e-09
0.000995367
2.808e-09
0.000984119
-2.53271e-09
0.000972952
-8.25492e-09
0.000961926
-1.42487e-08
0.000951101
-2.03692e-08
0.000940529
-2.64674e-08
0.000930261
-3.23888e-08
0.000920342
-3.79785e-08
0.000910813
-4.3087e-08
0.000901707
-4.75738e-08
0.000893055
-5.13086e-08
0.000884881
-5.4179e-08
0.000877204
-5.60907e-08
0.000870038
-5.69685e-08
0.000863392
-5.67584e-08
0.000857268
-5.54275e-08
0.000851667
-5.29653e-08
0.000846582
-4.93839e-08
0.000842005
-4.4719e-08
0.000837922
-3.90298e-08
0.000834316
-3.23986e-08
0.000831167
-2.49316e-08
0.000828455
-1.6757e-08
0.000826153
-8.02109e-09
0.000824237
1.1093e-09
0.00082268
1.04297e-08
0.000821453
1.98026e-08
0.000820527
2.89948e-08
0.000819875
3.78318e-08
0.000819467
4.64166e-08
0.000819281
5.48542e-08
0.000819283
6.15914e-08
0.000819441
6.1407e-08
0.00081973
6.36541e-08
0.000820122
6.61742e-08
0.00082059
6.6672e-08
0.000821107
6.59374e-08
0.000821647
6.35021e-08
0.000822181
5.90622e-08
0.00082268
5.48487e-08
0.000823113
4.80488e-08
0.000823451
4.13797e-08
0.000823661
3.25362e-08
0.0008237
2.34168e-08
0.000823526
1.14321e-08
0.000823091
1.82533e-09
0.000822349
-7.56469e-09
0.000821241
-1.6106e-08
0.0008197
-2.36511e-08
0.000817651
-3.01065e-08
0.000815004
-3.53439e-08
0.000811654
-3.9233e-08
0.000807479
-4.16633e-08
0.000802331
-4.25699e-08
0.000796035
-4.19585e-08
0.000788378
-3.99143e-08
0.000779098
-3.66089e-08
0.000767875
-3.22729e-08
0.0007543
-2.71983e-08
0.000737857
-2.1684e-08
0.000717879
-1.60541e-08
0.000693474
-1.0555e-08
0.000663494
-5.52324e-09
0.000626229
-1.00006e-09
0.000579818
2.58589e-09
0.000520353
5.58139e-09
0.00044593
7.50018e-09
0.000347857
8.86837e-09
0.000232781
9.71463e-09
9.90123e-05
9.72665e-09
8.13681e-09
-0.000672407
0.00956645
-0.00944106
-0.000798029
0.00955167
-0.00942605
-0.000924372
0.00952813
-0.00940179
-0.00105199
0.00950645
-0.00937883
-0.00118127
0.00948828
-0.00935901
-0.00131248
0.00947453
-0.00934332
-0.00144608
0.00946589
-0.00933229
-0.00158253
0.00946286
-0.00932641
-0.00172251
0.00946625
-0.00932626
-0.00186708
0.00947787
-0.00933331
-0.00201812
0.00950113
-0.00935009
-0.0021781
0.00954346
-0.00938347
-0.00235109
0.00961309
-0.0094401
-0.00253895
0.00972093
-0.00953306
-0.00273639
0.009856
-0.00965856
-0.00290418
0.00996998
-0.00980219
-0.00293607
0.00985587
-0.00982397
-0.00257652
0.00906747
-0.00942702
-0.0015084
0.00661514
-0.00768326
0.00216142
-0.00366982
-0.000679918
0.00969132
-0.000805302
0.00967706
-0.000931481
0.00965431
-0.00105901
0.00963398
-0.00118811
0.00961738
-0.00131915
0.00960558
-0.00145249
0.00959923
-0.00158858
0.00959895
-0.00172808
0.00960575
-0.00187204
0.00962184
-0.00202232
0.00965141
-0.00218153
0.00970266
-0.00235255
0.00978411
-0.0025341
0.00990248
-0.00271068
0.0100326
-0.00282273
0.010082
-0.0027326
0.00976573
-0.00220151
0.00853639
-0.0010716
0.00548522
0.00108983
-0.000687147
0.00981574
-0.000812185
0.0098021
-0.000938154
0.00978028
-0.00106548
0.00976131
-0.00119439
0.00974628
-0.00132521
0.0097364
-0.00145828
0.0097323
-0.00159403
0.0097347
-0.00173311
0.00974483
-0.00187663
0.00976535
-0.00202643
0.00980121
-0.00218489
0.00986112
-0.00235338
0.00995261
-0.00252571
0.0100748
-0.00267442
0.0101813
-0.00272037
0.010128
-0.00250816
0.00955351
-0.00183664
0.00786487
-0.000694989
0.00434357
0.000394838
-0.000694057
0.0099397
-0.000818705
0.00992675
-0.000944389
0.00990596
-0.00107144
0.00988836
-0.00120008
0.00987492
-0.00133061
0.00986693
-0.00146334
0.00986503
-0.00159869
0.00987005
-0.00173731
0.00988344
-0.00188031
0.00990835
-0.0020295
0.0099504
-0.00218667
0.0100183
-0.00235105
0.010117
-0.00251028
0.010234
-0.00262405
0.0102951
-0.00259702
0.010101
-0.00226776
0.00922425
-0.00147987
0.00707698
-0.000428956
0.00329266
-3.41181e-05
-0.000700626
0.0100632
-0.000824862
0.010051
-0.0009502
0.0100313
-0.00107692
0.0100151
-0.00120522
0.0100032
-0.00133537
0.00999708
-0.00146766
0.00999732
-0.00160249
0.0100049
-0.0017405
0.0100215
-0.00188284
0.0100507
-0.0020311
0.0100987
-0.00218619
0.0101734
-0.00234431
0.0102751
-0.00248579
0.0103755
-0.00255737
0.0103666
-0.00245255
0.00999613
-0.00201862
0.00879032
-0.0011556
0.00621396
-0.000243672
0.00238073
-0.00027779
-0.000706857
0.0101861
-0.000830664
0.0101748
-0.00095562
0.0101563
-0.00108196
0.0101414
-0.00120986
0.0101311
-0.00133957
0.0101268
-0.00147133
0.0101291
-0.00160552
0.0101391
-0.00174278
0.0101587
-0.00188416
0.0101921
-0.00203088
0.0102454
-0.00218249
0.010325
-0.00233146
0.0104241
-0.00245052
0.0104946
-0.00247482
0.0103909
-0.00229134
0.00981265
-0.0017699
0.00826888
-0.000879853
0.00532392
-0.000126004
0.00162688
-0.000403794
-0.000712725
0.0103085
-0.000836079
0.0102981
-0.000960609
0.0102808
-0.00108652
0.0102673
-0.00121396
0.0102586
-0.00134315
0.010256
-0.00147429
0.0102602
-0.00160774
0.0102725
-0.00174414
0.0102951
-0.00188445
0.0103324
-0.00202946
0.0103904
-0.00217702
0.0104725
-0.00231513
0.0105622
-0.0024082
0.0105876
-0.00238126
0.010364
-0.0021202
0.00955159
-0.00152534
0.00767402
-0.000659674
0.00445825
-6.24482e-05
0.00102966
-0.000466242
-0.00071828
0.0104302
-0.000841188
0.0104211
-0.000965286
0.0104049
-0.00109077
0.0103928
-0.00121774
0.0103855
-0.00134639
0.0103846
-0.00147688
0.0103907
-0.00160956
0.0104052
-0.001745
0.0104305
-0.00188392
0.0104713
-0.00202621
0.0105327
-0.00216729
0.0106136
-0.00229016
0.0106851
-0.00235206
0.0106495
-0.00227249
0.0102844
-0.00194238
0.00922148
-0.0012961
0.00702774
-0.000494717
0.00365687
-3.80642e-05
0.000573006
-0.000504306
-0.000723365
0.0105513
-0.00084582
0.0105435
-0.000969376