/*--------------------------------*- C++ -*----------------------------------*\
  =========                 |
  \\      /  F ield         | OpenFOAM: The Open Source CFD Toolbox
   \\    /   O peration     | Website:  https://openfoam.org
    \\  /    A nd           | Version:  7
     \\/     M anipulation  |
\*---------------------------------------------------------------------------*/
FoamFile
{
    version     2.0;
    format      ascii;
    class       volScalarField;
    location    "74";
    object      p;
}
// * * * * * * * * * * * * * * * * * * * * * * * * * * * * * * * * * * * * * //

dimensions      [0 2 -2 0 0 0 0];

internalField   nonuniform List<scalar> 
175
(
-0.00781416
-0.00715287
-0.00645191
-0.00572083
-0.00496932
-0.00420703
-0.00344348
-0.00268782
-0.00194873
-0.00123427
-0.0108426
-0.0107822
-0.0106247
-0.0103745
-0.0100367
-0.00961731
-0.00912331
-0.00856229
-0.00794257
-0.007273
-0.00656293
-0.005822
-0.00506003
-0.00428685
-0.00351213
-0.00274516
-0.00199479
-0.00126923
-0.0109829
-0.010924
-0.0107668
-0.0105157
-0.0101758
-0.00975318
-0.0092548
-0.00868829
-0.00806197
-0.00738477
-0.0066661
-0.00591572
-0.00514357
-0.00435964
-0.00357374
-0.00279535
-0.00203348
-0.00129649
-0.0110885
-0.0110318
-0.0108758
-0.0106249
-0.0102842
-0.0098598
-0.00935858
-0.0087882
-0.00815702
-0.00747398
-0.00674855
-0.00599056
-0.00521008
-0.00441722
-0.00362191
-0.00283381
-0.00206205
-0.00131515
-0.0111435
-0.0110898
-0.0109363
-0.0106871
-0.0103473
-0.00992304
-0.0094212
-0.00884941
-0.00821599
-0.00752991
-0.00680065
-0.0060381
-0.00525238
-0.00445368
-0.00365204
-0.00285721
-0.00207845
-0.00132437
-0.0111358
-0.0110861
-0.0109361
-0.0106901
-0.0103531
-0.00993114
-0.00943113
-0.00886066
-0.00822804
-0.00754219
-0.00681259
-0.00604912
-0.00526192
-0.00446119
-0.00365702
-0.00285922
-0.00207709
-0.00131933
-0.0110558
-0.0110106
-0.0108653
-0.0106237
-0.0102912
-0.00987361
-0.00937784
-0.00881145
-0.00818273
-0.00750056
-0.00677437
-0.00601398
-0.00522946
-0.00443098
-0.0036286
-0.00283208
-0.00205075
-0.00129331
-0.0108956
-0.0108551
-0.010715
-0.0104789
-0.0101521
-0.00974058
-0.00925105
-0.00869116
-0.00806919
-0.00739399
-0.00667489
-0.00592161
-0.00514408
-0.00435232
-0.00355626
-0.00276556
-0.00198946
-0.00123661
-0.0106483
-0.0106124
-0.0104769
-0.0102466
-0.00992601
-0.00952138
-0.00903929
-0.00848751
-0.00787443
-0.00720886
-0.00650008
-0.00575758
-0.00499109
-0.00421036
-0.00342507
-0.00264466
-0.00187818
-0.00113414
-0.010306
-0.0102732
-0.0101423
-0.00991652
-0.00960044
-0.0092027
-0.00872792
-0.00818448
-0.00758107
-0.00692662
-0.0062304
-0.0055016
-0.00474957
-0.00398365
-0.00321312
-0.00244705
-0.00169417
-0.000962776
-0.0098597
-0.00982714
-0.00969753
)
;

boundaryField
{
    inlet
    {
        type            zeroGradient;
    }
    outlet
    {
        type            fixedValue;
        value           nonuniform 0();
    }
    polygon
    {
        type            zeroGradient;
    }
    top
    {
        type            symmetryPlane;
    }
    bottom
    {
        type            symmetryPlane;
    }
    outside
    {
        type            slip;
    }
    procBoundary14to6
    {
        type            processor;
        value           nonuniform List<scalar> 
19
(
-0.00947465
-0.0091636
-0.00876764
-0.00829693
-0.00775985
-0.00716476
-0.00652114
-0.00583823
-0.00512472
-0.00438948
-0.00364123
-0.00288863
-0.00214018
-0.00140416
-0.000688486
-0.00929696
-0.00926036
-0.00947465
-0.00912743
)
;
    }
    procBoundary14to7
    {
        type            processor;
        value           nonuniform List<scalar> 2(-0.0102382 -0.00979277);
    }
    procBoundary14to13
    {
        type            processor;
        value           nonuniform List<scalar> 10(-0.000551821 -0.000575965 -0.000592024 -0.000600869 -0.000602869 -0.000593892 -0.000567744 -0.000514974 -0.000420418 -0.000260537);
    }
    procBoundary14to15
    {
        type            processor;
        value           nonuniform List<scalar> 8(-0.0108029 -0.0109404 -0.0110427 -0.0110939 -0.0110821 -0.0109976 -0.0108333 -0.0105822);
    }
    procBoundary14to22
    {
        type            processor;
        value           nonuniform List<scalar> 
19
(
-0.00774273
-0.00708946
-0.00639715
-0.00567524
-0.00493328
-0.00418081
-0.00342718
-0.00268139
-0.00195197
-0.00124686
-0.0106866
-0.0106254
-0.0104685
-0.0102201
-0.00988524
-0.00947002
-0.00898126
-0.00842656
-0.00842656
)
;
    }
}


// ************************************************************************* //
