/*--------------------------------*- C++ -*----------------------------------*\
  =========                 |
  \\      /  F ield         | OpenFOAM: The Open Source CFD Toolbox
   \\    /   O peration     | Website:  https://openfoam.org
    \\  /    A nd           | Version:  7
     \\/     M anipulation  |
\*---------------------------------------------------------------------------*/
FoamFile
{
    version     2.0;
    format      ascii;
    class       volScalarField;
    location    "108";
    object      p;
}
// * * * * * * * * * * * * * * * * * * * * * * * * * * * * * * * * * * * * * //

dimensions      [0 2 -2 0 0 0 0];

internalField   nonuniform List<scalar> 
4000
(
0.00364926
0.0135941
0.0171277
0.023276
0.0265821
0.0303848
0.0325098
0.0345034
0.0346187
0.0344247
0.030942
0.0277479
0.0171852
0.00886072
-0.0162838
-0.0443807
-0.10729
-0.220951
-0.385362
-0.904546
-0.00623149
0.00334291
0.00662303
0.0121277
0.0149254
0.0179601
0.0192857
0.0200995
0.0188352
0.0166585
0.0109992
0.0041148
-0.0106539
-0.0283681
-0.0619119
-0.0967476
-0.152035
-0.166127
-0.25083
-0.0297462
-0.0154815
-0.00604957
-0.00299494
0.00208685
0.00436144
0.00668605
0.00703796
0.00650911
0.00355201
-0.00108395
-0.00968361
-0.0215612
-0.041965
-0.06832
-0.108466
-0.14952
-0.204021
-0.255967
-0.304521
-0.444489
-0.0243338
-0.0151352
-0.0123784
-0.00774906
-0.00607431
-0.00456414
-0.00529599
-0.00726062
-0.0119143
-0.0190381
-0.0309731
-0.0476779
-0.0729154
-0.104442
-0.144376
-0.177587
-0.213576
-0.210258
-0.26798
-0.153214
-0.0329315
-0.0240841
-0.0216966
-0.0175779
-0.0165349
-0.0158487
-0.0176049
-0.0209145
-0.0272787
-0.0368658
-0.0518893
-0.0727071
-0.101692
-0.135638
-0.171621
-0.19594
-0.219107
-0.24473
-0.248973
-0.269833
-0.0412733
-0.0328402
-0.0308566
-0.0272959
-0.0269287
-0.0271397
-0.0299737
-0.0348179
-0.0433554
-0.0557593
-0.073828
-0.0977989
-0.128318
-0.160669
-0.187998
-0.201492
-0.22037
-0.213636
-0.233753
-0.184006
-0.0493227
-0.0413401
-0.0397669
-0.0367818
-0.0370729
-0.0381368
-0.0419696
-0.0480612
-0.0580141
-0.0720539
-0.0918288
-0.117516
-0.148251
-0.177395
-0.197251
-0.207113
-0.218356
-0.223102
-0.220068
-0.212028
-0.0570522
-0.0495532
-0.0483913
-0.0460154
-0.0469665
-0.0488936
-0.0538846
-0.0615844
-0.07363
-0.0901912
-0.112337
-0.139538
-0.168906
-0.19247
-0.205597
-0.211874
-0.218403
-0.207876
-0.209349
-0.182725
-0.0644577
-0.0574871
-0.0567173
-0.0549768
-0.0565262
-0.0592602
-0.0650902
-0.0735855
-0.0860893
-0.102531
-0.123738
-0.149381
-0.17683
-0.197168
-0.208243
-0.212217
-0.213247
-0.205141
-0.200826
-0.184036
-0.0715122
-0.0651179
-0.0646993
-0.0636397
-0.065756
-0.0693728
-0.0761645
-0.0859966
-0.100409
-0.119388
-0.143577
-0.172578
-0.201515
-0.222222
-0.229075
-0.222189
-0.211059
-0.194722
-0.188
-0.165741
0.106777
0.124471
0.131002
0.145952
0.156021
0.171047
0.184389
0.201372
0.219353
0.24135
0.266382
0.297142
0.332158
0.375866
0.423427
0.484093
0.540265
0.626258
0.672014
0.814045
0.096534
0.113772
0.119732
0.133998
0.143048
0.156993
0.168818
0.184019
0.19955
0.218634
0.239726
0.266285
0.295478
0.333422
0.370711
0.4266
0.464462
0.550797
0.56668
0.70347
0.08636
0.102872
0.108382
0.121649
0.129779
0.142415
0.152773
0.166172
0.179482
0.196083
0.21404
0.237535
0.262798
0.298582
0.332293
0.38825
0.424904
0.510761
0.531882
0.651779
0.0762354
0.0919657
0.0970973
0.109431
0.116745
0.128185
0.137199
0.148941
0.160145
0.174308
0.18892
0.208881
0.228707
0.260247
0.285089
0.338348
0.360969
0.4513
0.457853
0.589731
0.0660203
0.0809622
0.0857228
0.0971562
0.103675
0.113925
0.12159
0.131623
0.140626
0.15217
0.163195
0.179339
0.193656
0.220478
0.238223
0.285557
0.304051
0.3812
0.397042
0.50443
0.0556793
0.0698184
0.0742208
0.0847443
0.0904959
0.099541
0.105888
0.114213
0.121048
0.129976
0.137505
0.149752
0.158811
0.180504
0.191195
0.233252
0.241891
0.32384
0.326217
0.479565
0.0452664
0.0585843
0.0626697
0.0722788
0.0773259
0.0851831
0.0903075
0.0969796
0.101775
0.108069
0.11226
0.120388
0.124178
0.139241
0.14306
0.17316
0.175847
0.222363
0.235099
0.308674
0.0348259
0.0473077
0.0511381
0.0598506
0.0642901
0.071003
0.0750459
0.0801675
0.0831433
0.0872995
0.0885921
0.0934116
0.0919165
0.102268
0.0980009
0.127322
0.118713
0.198523
0.177846
0.420475
0.0244196
0.0360571
0.0397162
0.0475452
0.0514741
0.0570941
0.0602312
0.0639712
0.0656097
0.0679441
0.0668857
0.0682768
0.0623508
0.0648258
0.0519591
0.060871
0.0388669
0.026266
-0.010849
-0.0620284
0.0140146
0.0247995
0.028379
0.0353612
0.0389274
0.0435395
0.0460052
0.048692
0.0493323
0.0502138
0.0474035
0.0465587
0.0377697
0.0375086
0.0225078
0.0394967
0.0388798
0.13245
0.139191
0.472179
0.0140147
0.0247996
0.0283791
0.0353612
0.0389274
0.0435395
0.0460052
0.048692
0.0493323
0.0502138
0.0474034
0.0465587
0.0377696
0.0375086
0.0225077
0.0394967
0.0388797
0.13245
0.139191
0.472179
0.0244196
0.0360572
0.0397162
0.0475452
0.0514741
0.0570941
0.0602312
0.0639712
0.0656097
0.0679441
0.0668857
0.0682768
0.0623508
0.0648257
0.051959
0.0608709
0.0388669
0.0262659
-0.0108491
-0.0620285
0.0348259
0.0473077
0.0511381
0.0598506
0.0642901
0.071003
0.0750459
0.0801675
0.0831433
0.0872995
0.0885921
0.0934116
0.0919165
0.102268
0.0980009
0.127322
0.118713
0.198522
0.177846
0.420475
0.0452664
0.0585844
0.0626697
0.0722788
0.0773259
0.0851831
0.0903075
0.0969796
0.101775
0.108069
0.11226
0.120388
0.124178
0.139241
0.14306
0.17316
0.175847
0.222363
0.235098
0.308674
0.0556793
0.0698184
0.0742208
0.0847443
0.0904959
0.099541
0.105888
0.114213
0.121048
0.129976
0.137505
0.149752
0.158811
0.180504
0.191195
0.233252
0.241891
0.32384
0.326217
0.479565
0.0660203
0.0809622
0.0857228
0.0971562
0.103675
0.113925
0.12159
0.131623
0.140626
0.15217
0.163195
0.179339
0.193656
0.220478
0.238223
0.285557
0.304051
0.3812
0.397041
0.50443
0.0762354
0.0919657
0.0970973
0.109431
0.116745
0.128185
0.137199
0.148941
0.160145
0.174308
0.18892
0.208881
0.228707
0.260247
0.285089
0.338348
0.360969
0.4513
0.457853
0.589731
0.08636
0.102872
0.108382
0.121649
0.129779
0.142415
0.152773
0.166172
0.179482
0.196083
0.21404
0.237535
0.262798
0.298581
0.332293
0.38825
0.424904
0.510761
0.531882
0.651779
0.0965341
0.113772
0.119732
0.133998
0.143048
0.156993
0.168818
0.184019
0.19955
0.218634
0.239726
0.266285
0.295478
0.333422
0.370711
0.4266
0.464462
0.550797
0.56668
0.70347
0.106777
0.124471
0.131002
0.145952
0.156021
0.171047
0.184389
0.201372
0.219353
0.24135
0.266382
0.297142
0.332157
0.375866
0.423427
0.484093
0.540265
0.626258
0.672014
0.814045
-0.071512
-0.0651178
-0.0646992
-0.0636397
-0.065756
-0.0693727
-0.0761645
-0.0859967
-0.100409
-0.119388
-0.143577
-0.172579
-0.201515
-0.222223
-0.229076
-0.222189
-0.211059
-0.194722
-0.188
-0.165742
-0.0644576
-0.0574871
-0.0567172
-0.0549767
-0.0565262
-0.0592602
-0.0650902
-0.0735855
-0.0860893
-0.102531
-0.123738
-0.149381
-0.176831
-0.197168
-0.208243
-0.212218
-0.213248
-0.205141
-0.200826
-0.184036
-0.0570521
-0.0495532
-0.0483912
-0.0460153
-0.0469665
-0.0488936
-0.0538846
-0.0615844
-0.07363
-0.0901913
-0.112337
-0.139538
-0.168906
-0.192471
-0.205597
-0.211874
-0.218403
-0.207876
-0.209349
-0.182725
-0.0493226
-0.04134
-0.0397669
-0.0367818
-0.0370728
-0.0381368
-0.0419696
-0.0480612
-0.0580141
-0.0720539
-0.0918289
-0.117516
-0.148251
-0.177395
-0.197251
-0.207113
-0.218356
-0.223102
-0.220068
-0.212028
-0.0412732
-0.0328401
-0.0308565
-0.0272958
-0.0269287
-0.0271397
-0.0299737
-0.0348179
-0.0433554
-0.0557593
-0.0738281
-0.0977989
-0.128318
-0.160669
-0.187999
-0.201492
-0.220371
-0.213636
-0.233753
-0.184006
-0.0329314
-0.0240841
-0.0216965
-0.0175779
-0.0165349
-0.0158487
-0.0176049
-0.0209145
-0.0272787
-0.0368659
-0.0518894
-0.0727072
-0.101692
-0.135638
-0.171621
-0.19594
-0.219107
-0.24473
-0.248973
-0.269833
-0.0243337
-0.0151351
-0.0123783
-0.00774902
-0.00607428
-0.00456412
-0.00529598
-0.00726062
-0.0119143
-0.0190382
-0.0309731
-0.047678
-0.0729154
-0.104442
-0.144376
-0.177587
-0.213576
-0.210258
-0.26798
-0.153214
-0.0154814
-0.00604952
-0.0029949
0.00208688
0.00436147
0.00668607
0.00703797
0.00650911
0.003552
-0.00108397
-0.00968364
-0.0215612
-0.041965
-0.0683201
-0.108466
-0.14952
-0.204021
-0.255967
-0.304521
-0.44449
-0.00623144
0.00334295
0.00662307
0.0121278
0.0149254
0.0179601
0.0192857
0.0200995
0.0188352
0.0166585
0.0109992
0.00411477
-0.0106539
-0.0283682
-0.061912
-0.0967477
-0.152036
-0.166127
-0.25083
-0.0297463
0.0036493
0.0135942
0.0171277
0.023276
0.0265821
0.0303848
0.0325098
0.0345034
0.0346187
0.0344247
0.030942
0.0277478
0.0171852
0.00886067
-0.0162839
-0.0443808
-0.107291
-0.220951
-0.385362
-0.904547
0.139693
0.157937
0.16654
0.181129
0.193791
0.208615
0.224029
0.241166
0.260116
0.281415
0.305515
0.333123
0.364906
0.401559
0.443112
0.489837
0.539807
0.594287
0.644443
0.693349
0.182869
0.199183
0.207807
0.22165
0.234733
0.249755
0.266067
0.284032
0.303732
0.325338
0.348922
0.374502
0.401949
0.431023
0.461271
0.492114
0.52198
0.551737
0.573537
0.59514
0.219202
0.233545
0.241094
0.252989
0.264119
0.276541
0.28968
0.303721
0.318709
0.33469
0.351669
0.369582
0.38831
0.407602
0.427103
0.44612
0.464178
0.479782
0.492034
0.499634
0.246523
0.258445
0.264955
0.275215
0.284916
0.29573
0.307124
0.319154
0.331755
0.344837
0.358281
0.371935
0.385593
0.399009
0.41186
0.423822
0.434372
0.443193
0.449461
0.453051
0.267435
0.276743
0.281737
0.289566
0.296847
0.304874
0.313228
0.321937
0.33095
0.340196
0.349586
0.359003
0.368305
0.377309
0.385808
0.393535
0.400257
0.405633
0.409461
0.411464
0.283236
0.290674
0.29472
0.301065
0.306982
0.31348
0.320183
0.327092
0.334132
0.341219
0.348262
0.355159
0.361795
0.36805
0.373788
0.378879
0.383175
0.386555
0.388881
0.390078
0.294558
0.299954
0.302877
0.307453
0.311705
0.316352
0.321126
0.326024
0.330995
0.335978
0.340909
0.345717
0.350323
0.354638
0.358576
0.362039
0.364945
0.367206
0.36876
0.369552
0.303225
0.307499
0.30981
0.313428
0.31677
0.320409
0.324115
0.327885
0.331667
0.335413
0.339068
0.342581
0.345895
0.348955
0.351706
0.354097
0.356077
0.357605
0.358643
0.359169
0.309229
0.312199
0.313818
0.31635
0.318699
0.321253
0.323858
0.326508
0.329168
0.331802
0.334374
0.336845
0.339176
0.341326
0.343258
0.344933
0.346318
0.347384
0.348109
0.348476
0.313881
0.316243
0.317514
0.319503
0.321329
0.323307
0.325307
0.327327
0.329338
0.331312
0.333221
0.335039
0.336737
0.33829
0.339674
0.340865
0.341845
0.342595
0.343103
0.343359
0.317038
0.318638
0.319508
0.320875
0.322138
0.32351
0.324904
0.326316
0.327725
0.329111
0.330456
0.331739
0.33294
0.33404
0.335021
0.335867
0.336562
0.337095
0.337455
0.337637
0.319522
0.320807
0.321495
0.322572
0.323557
0.324621
0.325693
0.326771
0.327839
0.328883
0.329889
0.330841
0.331727
0.332534
0.33325
0.333864
0.334366
0.334751
0.33501
0.335141
0.321174
0.322029
0.322491
0.323223
0.323895
0.324627
0.325368
0.326117
0.326863
0.327594
0.328302
0.328974
0.329601
0.330174
0.330683
0.33112
0.331479
0.331754
0.331939
0.332033
0.322501
0.323201
0.323573
0.324157
0.324688
0.325262
0.325838
0.326417
0.326989
0.327546
0.328082
0.328588
0.329058
0.329485
0.329863
0.330186
0.330451
0.330653
0.330789
0.330858
0.323361
0.323822
0.324066
0.324462
0.32482
0.325214
0.32561
0.326011
0.32641
0.326801
0.327178
0.327536
0.32787
0.328174
0.328444
0.328676
0.328865
0.32901
0.329108
0.329158
0.324074
0.324462
0.324666
0.324989
0.32528
0.325596
0.325912
0.32623
0.326543
0.326848
0.327141
0.327418
0.327675
0.327907
0.328113
0.32829
0.328434
0.328544
0.328618
0.328655
0.324514
0.324771
0.324903
0.325126
0.325323
0.325543
0.325764
0.325988
0.326211
0.326429
0.32664
0.32684
0.327027
0.327197
0.327347
0.327477
0.327583
0.327664
0.327718
0.327746
0.324879
0.325104
0.325221
0.325412
0.325582
0.325769
0.325956
0.326144
0.326329
0.326511
0.326685
0.32685
0.327003
0.327141
0.327264
0.327369
0.327455
0.327521
0.327565
0.327587
0.325068
0.325218
0.32529
0.325428
0.325543
0.325682
0.325817
0.325958
0.326099
0.326238
0.326372
0.3265
0.32662
0.326729
0.326827
0.32691
0.326979
0.327031
0.327067
0.327085
0.325258
0.325398
0.32548
0.32561
0.325734
0.325869
0.326007
0.326148
0.326288
0.326425
0.326558
0.326684
0.326801
0.326908
0.327002
0.327083
0.32715
0.3272
0.327234
0.327251
-0.000818294
-0.00137562
-0.0016304
-0.00167635
-0.00151276
-0.00107065
-0.00029184
0.000871365
0.00245832
0.00449022
0.00696339
0.00984579
0.0130771
0.0165717
0.0202199
0.0238846
0.0273876
0.030492
0.0328845
0.0342097
-0.00338552
-0.00468364
-0.00543359
-0.00604579
-0.00660716
-0.00711528
-0.00757993
-0.00800963
-0.0083963
-0.00871288
-0.00891598
-0.00894976
-0.00875263
-0.00826713
-0.00745357
-0.00630573
-0.0048698
-0.00328925
-0.00185444
-0.000969011
-0.00688655
-0.00872447
-0.00967149
-0.0102805
-0.0105347
-0.0103378
-0.00963797
-0.00839419
-0.00657455
-0.00417031
-0.00120244
0.0022698
0.00614695
0.0102911
0.0145278
0.0186519
0.022431
0.0256213
0.0279648
0.0292155
-0.0113609
-0.014013
-0.0155231
-0.0168569
-0.0179683
-0.0187849
-0.0192864
-0.0194436
-0.0192131
-0.0185517
-0.0174281
-0.0158326
-0.0137848
-0.0113443
-0.00861687
-0.00575511
-0.00296651
-0.000489671
0.00135892
0.00243321
-0.0168932
-0.0202721
-0.0220497
-0.0236137
-0.0247704
-0.0254011
-0.025468
-0.0249312
-0.023762
-0.0219597
-0.0195574
-0.0166269
-0.0132738
-0.00963308
-0.00586713
-0.00215921
0.00127634
0.00424267
0.00640785
0.00754384
-0.0236659
-0.0281067
-0.0305151
-0.0329314
-0.0349989
-0.0366181
-0.0377523
-0.0383368
-0.038306
-0.0376192
-0.036271
-0.0342983
-0.0317889
-0.0288791
-0.0257485
-0.0226102
-0.0197128
-0.0172733
-0.0154709
-0.0145584
-0.031737
-0.0372045
-0.0400773
-0.0431164
-0.0456964
-0.0477382
-0.0491992
-0.0500071
-0.0501098
-0.0494918
-0.0481733
-0.0462141
-0.0437092
-0.0407852
-0.037598
-0.0343379
-0.0312149
-0.0285505
-0.0265269
-0.0254407
-0.0412156
-0.0479175
-0.0514576
-0.0554741
-0.0590116
-0.0620313
-0.0644683
-0.0661999
-0.0671381
-0.0672451
-0.066531
-0.0650614
-0.0629553
-0.060375
-0.0575137
-0.054601
-0.0518288
-0.0494635
-0.0477275
-0.0468053
-0.0520906
-0.0599862
-0.0641144
-0.0690256
-0.0733702
-0.0771607
-0.0803225
-0.0827095
-0.0842371
-0.0848777
-0.0846472
-0.0836092
-0.0818674
-0.0795609
-0.076862
-0.0739845
-0.0711913
-0.0687241
-0.0668689
-0.0658674
-0.0643281
-0.0734461
-0.0782218
-0.0841439
-0.0894147
-0.0941034
-0.0980978
-0.101206
-0.103334
-0.104455
-0.104602
-0.103865
-0.102377
-0.100303
-0.0978372
-0.0951892
-0.0925778
-0.0902691
-0.0885252
-0.087581
-0.0777782
-0.0879737
-0.0933008
-0.100118
-0.106159
-0.111579
-0.116232
-0.119911
-0.122537
-0.1241
-0.124641
-0.124252
-0.123058
-0.121218
-0.11892
-0.11637
-0.113831
-0.111563
-0.10984
-0.108905
-0.0922317
-0.103362
-0.109185
-0.116812
-0.123512
-0.129534
-0.134683
-0.138749
-0.141677
-0.143478
-0.144224
-0.144025
-0.14302
-0.141365
-0.139257
-0.136881
-0.134484
-0.132324
-0.130672
-0.129772
-0.107367
-0.119179
-0.125354
-0.133582
-0.140714
-0.147118
-0.152558
-0.156849
-0.159964
-0.161936
-0.16285
-0.162821
-0.161985
-0.160503
-0.158535
-0.156301
-0.154026
-0.151966
-0.150388
-0.149527
-0.122806
-0.135043
-0.141432
-0.150041
-0.157379
-0.163934
-0.169437
-0.173748
-0.176868
-0.178861
-0.179827
-0.179886
-0.179172
-0.177834
-0.176034
-0.173965
-0.171842
-0.169912
-0.168429
-0.16762
-0.138114
-0.150482
-0.156918
-0.165654
-0.172962
-0.179455
-0.184842
-0.189036
-0.192064
-0.194011
-0.194983
-0.195098
-0.194484
-0.193272
-0.191619
-0.189703
-0.187728
-0.185928
-0.184544
-0.183787
-0.15285
-0.165083
-0.171411
-0.180042
-0.187113
-0.193355
-0.198468
-0.202419
-0.205262
-0.207095
-0.208026
-0.208165
-0.207626
-0.206535
-0.205029
-0.203272
-0.201455
-0.199795
-0.198517
-0.197819
-0.166595
-0.17846
-0.18454
-0.192867
-0.19954
-0.205399
-0.210145
-0.213785
-0.216401
-0.21809
-0.218955
-0.219099
-0.218623
-0.217635
-0.216262
-0.214654
-0.212987
-0.211462
-0.210288
-0.209647
-0.17899
-0.190313
-0.196039
-0.203917
-0.21008
-0.215471
-0.21979
-0.223083
-0.225445
-0.226973
-0.227762
-0.227899
-0.227473
-0.226581
-0.225333
-0.223866
-0.222342
-0.220947
-0.219873
-0.219287
-0.18975
-0.200426
-0.205726
-0.213072
-0.218668
-0.223561
-0.227436
-0.230379
-0.232489
-0.233856
-0.234563
-0.234687
-0.2343
-0.233489
-0.232352
-0.231011
-0.229618
-0.228342
-0.22736
-0.226825
-0.198675
-0.208674
-0.21351
-0.220301
-0.225313
-0.229715
-0.233153
-0.235764
-0.237632
-0.238846
-0.239474
-0.239581
-0.239228
-0.238488
-0.237449
-0.236222
-0.234946
-0.233779
-0.232882
-0.232393
-0.205649
-0.215012
-0.21938
-0.225647
-0.230095
-0.234049
-0.237078
-0.239389
-0.241038
-0.242112
-0.242667
-0.242755
-0.242426
-0.241745
-0.240791
-0.23966
-0.238491
-0.23742
-0.236599
-0.236152
-0.210623
-0.219461
-0.223379
-0.229202
-0.233125
-0.236694
-0.239355
-0.241406
-0.24286
-0.243811
-0.244297
-0.244367
-0.244058
-0.243425
-0.242543
-0.241502
-0.240423
-0.239437
-0.238681
-0.238271
-0.213611
-0.2221
-0.225601
-0.231107
-0.234549
-0.237824
-0.240154
-0.241991
-0.243272
-0.244118
-0.244543
-0.24459
-0.244297
-0.243706
-0.242884
-0.241919
-0.240918
-0.240007
-0.23931
-0.238931
-0.214669
-0.223049
-0.226165
-0.231524
-0.234518
-0.237615
-0.23963
-0.241322
-0.242433
-0.243202
-0.243563
-0.243595
-0.24331
-0.242754
-0.241985
-0.241085
-0.240155
-0.23931
-0.238665
-0.238315
-0.213863
-0.222448
-0.225205
-0.230636
-0.233194
-0.236258
-0.237944
-0.239585
-0.240507
-0.241225
-0.241529
-0.241543
-0.241265
-0.240737
-0.240015
-0.239174
-0.238308
-0.237524
-0.236927
-0.236604
-0.211194
-0.220425
-0.222833
-0.228631
-0.230723
-0.233945
-0.235257
-0.236921
-0.237675
-0.238342
-0.238596
-0.238591
-0.238319
-0.237817
-0.237138
-0.236353
-0.235549
-0.234823
-0.234272
-0.233974
-0.20662
-0.21718
-0.21916
-0.225743
-0.227268
-0.230844
-0.231789
-0.233477
-0.234097
-0.23471
-0.23492
-0.234896
-0.234628
-0.234152
-0.233517
-0.232788
-0.232044
-0.231376
-0.230871
-0.230598
-0.200411
-0.21314
-0.214488
-0.222187
-0.223171
-0.227032
-0.227766
-0.2294
-0.229937
-0.230479
-0.230652
-0.230609
-0.230348
-0.229899
-0.22931
-0.228638
-0.227959
-0.227351
-0.226892
-0.226645
-0.194442
-0.208522
-0.209799
-0.217918
-0.218866
-0.222657
-0.223368
-0.224854
-0.225347
-0.225802
-0.225941
-0.225881
-0.225628
-0.225212
-0.224673
-0.224065
-0.223453
-0.222909
-0.2225
-0.22228
-0.188727
-0.203552
-0.205085
-0.213237
-0.214363
-0.217949
-0.218698
-0.220006
-0.220461
-0.22083
-0.220936
-0.220862
-0.220622
-0.220244
-0.219762
-0.219224
-0.218686
-0.21821
-0.217853
-0.217662
-0.183239
-0.198543
-0.200383
-0.208427
-0.209757
-0.213103
-0.213886
-0.215017
-0.215427
-0.215714
-0.215786
-0.215701
-0.215481
-0.215146
-0.214728
-0.214266
-0.213808
-0.213404
-0.213103
-0.212941
-0.177931
-0.193573
-0.195687
-0.203605
-0.205116
-0.208246
-0.209047
-0.210021
-0.210375
-0.210591
-0.210631
-0.210543
-0.210347
-0.210063
-0.209714
-0.209334
-0.20896
-0.208632
-0.208388
-0.208258
-0.172893
-0.188766
-0.191115
-0.198902
-0.200568
-0.203508
-0.204311
-0.205149
-0.205444
-0.205599
-0.20561
-0.205523
-0.205357
-0.205128
-0.204855
-0.20456
-0.204272
-0.204021
-0.203835
-0.203736
-0.168235
-0.184183
-0.186743
-0.194384
-0.196199
-0.198976
-0.199783
-0.200505
-0.200747
-0.200852
-0.20084
-0.200761
-0.20063
-0.20046
-0.200263
-0.200055
-0.199853
-0.199679
-0.19955
-0.199481
-0.164134
-0.179945
-0.182705
-0.19015
-0.192118
-0.194746
-0.195564
-0.196191
-0.196388
-0.196453
-0.196427
-0.19636
-0.196268
-0.196158
-0.196037
-0.195913
-0.195794
-0.195692
-0.195618
-0.195578
-0.160732
-0.176133
-0.179083
-0.186264
-0.188392
-0.190883
-0.191724
-0.19228
-0.192445
-0.192481
-0.19245
-0.1924
-0.192347
-0.192296
-0.192247
-0.192202
-0.19216
-0.192126
-0.192101
-0.192087
-0.158164
-0.172858
-0.175977
-0.182802
-0.185089
-0.187447
-0.188321
-0.188831
-0.188976
-0.188997
-0.188967
-0.188937
-0.188923
-0.188926
-0.188944
-0.188969
-0.188996
-0.189021
-0.189039
-0.189049
-0.156494
-0.170186
-0.173437
-0.179814
-0.182243
-0.184471
-0.185387
-0.185875
-0.186015
-0.186032
-0.186011
-0.186003
-0.186024
-0.186076
-0.186151
-0.186236
-0.186321
-0.186396
-0.186451
-0.186479
-0.155746
-0.168183
-0.171506
-0.17735
-0.179882
-0.181981
-0.182944
-0.183425
-0.183576
-0.1836
-0.183593
-0.183608
-0.183661
-0.183753
-0.183874
-0.184008
-0.184139
-0.184253
-0.184336
-0.18438
-0.155876
-0.166869
-0.170185
-0.175433
-0.178008
-0.179983
-0.180987
-0.181476
-0.18165
-0.181693
-0.181705
-0.181741
-0.181821
-0.181945
-0.1821
-0.182269
-0.182433
-0.182575
-0.182679
-0.182734
-0.156796
-0.166239
-0.169459
-0.174072
-0.176614
-0.178469
-0.179497
-0.180008
-0.180215
-0.180285
-0.180322
-0.18038
-0.180481
-0.180626
-0.180803
-0.180995
-0.18118
-0.181339
-0.181456
-0.181517
-0.158368
-0.166243
-0.169275
-0.173243
-0.175675
-0.177414
-0.178445
-0.178985
-0.179231
-0.179336
-0.1794
-0.179478
-0.179596
-0.179754
-0.179942
-0.180143
-0.180337
-0.180503
-0.180625
-0.180689
-0.160433
-0.166802
-0.169567
-0.172907
-0.175161
-0.176779
-0.177795
-0.178363
-0.178653
-0.1788
-0.178897
-0.178999
-0.179129
-0.179293
-0.179483
-0.179684
-0.179877
-0.180042
-0.180163
-0.180226
-0.162809
-0.167802
-0.170242
-0.172998
-0.175028
-0.176511
-0.177496
-0.178089
-0.178424
-0.178614
-0.178745
-0.178867
-0.179006
-0.17917
-0.179354
-0.179546
-0.179728
-0.179884
-0.179997
-0.180057
-0.16532
-0.169111
-0.171197
-0.173435
-0.175211
-0.176555
-0.177498
-0.178111
-0.178493
-0.178735
-0.178909
-0.179061
-0.179215
-0.179379
-0.179554
-0.179733
-0.179901
-0.180043
-0.180147
-0.180202
-0.167789
-0.170578
-0.172315
-0.174112
-0.175632
-0.17684
-0.177737
-0.178364
-0.17879
-0.179079
-0.179288
-0.179457
-0.179613
-0.179774
-0.179935
-0.180093
-0.18024
-0.180363
-0.180452
-0.180499
-0.170058
-0.172049
-0.173466
-0.174905
-0.176205
-0.177295
-0.178158
-0.178807
-0.179288
-0.179645
-0.179919
-0.180144
-0.180342
-0.180504
-0.180657
-0.180799
-0.180927
-0.181032
-0.181108
-0.181148
-0.171979
-0.173365
-0.174511
-0.175683
-0.176815
-0.177822
-0.178669
-0.179345
-0.179873
-0.180273
-0.180571
-0.180794
-0.180962
-0.181121
-0.181259
-0.181377
-0.181478
-0.181559
-0.181616
-0.181646
-0.173419
-0.174366
-0.175302
-0.1763
-0.177337
-0.178324
-0.179213
-0.179968
-0.180601
-0.181125
-0.181549
-0.181892
-0.182169
-0.182368
-0.182507
-0.182617
-0.182702
-0.182767
-0.18281
-0.182833
-0.174232
-0.174876
-0.175669
-0.176581
-0.177604
-0.178639
-0.179623
-0.180481
-0.181193
-0.181756
-0.182171
-0.182457
-0.182645
-0.182781
-0.182901
-0.18298
-0.183032
-0.183065
-0.183086
-0.183095
-0.174255
-0.174701
-0.175433
-0.176346
-0.177454
-0.178644
-0.179851
-0.180965
-0.18195
-0.182798
-0.183507
-0.184069
-0.1845
-0.184817
-0.184955
-0.185045
-0.185089
-0.185108
-0.185115
-0.185116
-0.173298
-0.173633
-0.174365
-0.175344
-0.176613
-0.178032
-0.179527
-0.180921
-0.182096
-0.182995
-0.183629
-0.184019
-0.184236
-0.184311
-0.184414
-0.184444
-0.184436
-0.184408
-0.184379
-0.184361
-0.171171
-0.171407
-0.172196
-0.173312
-0.174854
-0.176661
-0.178672
-0.180683
-0.182543
-0.184143
-0.185468
-0.186502
-0.187253
-0.187779
-0.188018
-0.188085
-0.188077
-0.188025
-0.187971
-0.187936
-0.167536
-0.167644
-0.168521
-0.169807
-0.171666
-0.173901
-0.176454
-0.179021
-0.181318
-0.183066
-0.18423
-0.184891
-0.18518
-0.185241
-0.185239
-0.18522
-0.185113
-0.18498
-0.18486
-0.184788
-0.16196
-0.161927
-0.162954
-0.164484
-0.166798
-0.169684
-0.17314
-0.176899
-0.180669
-0.184057
-0.186841
-0.188981
-0.190475
-0.191413
-0.19193
-0.191933
-0.191808
-0.191563
-0.191341
-0.191194
-0.153956
-0.153668
-0.15482
-0.156539
-0.159267
-0.16272
-0.166906
-0.17146
-0.175952
-0.179709
-0.182292
-0.183706
-0.18433
-0.184496
-0.184383
-0.184406
-0.184179
-0.183856
-0.183535
-0.183315
-0.143133
-0.142411
-0.143638
-0.145501
-0.148771
-0.153171
-0.158821
-0.165463
-0.17275
-0.179968
-0.186279
-0.191119
-0.194501
-0.196455
-0.197449
-0.197361
-0.196797
-0.195805
-0.194911
-0.194188
-0.128954
-0.127512
-0.12862
-0.13029
-0.133603
-0.138156
-0.144128
-0.151249
-0.159116
-0.166703
-0.172673
-0.176286
-0.177925
-0.178846
-0.179376
-0.179919
-0.180088
-0.17956
-0.178846
-0.178023
-0.110756
-0.108356
-0.109505
-0.111323
-0.115383
-0.12128
-0.129414
-0.13975
-0.152223
-0.166226
-0.180568
-0.193099
-0.201918
-0.206752
-0.208546
-0.207917
-0.205708
-0.201102
-0.197272
-0.192597
-0.0877733
-0.0830661
-0.0832279
-0.0837611
-0.0869035
-0.092164
-0.100007
-0.110196
-0.122348
-0.134908
-0.144377
-0.148234
-0.148095
-0.150348
-0.157588
-0.164192
-0.169416
-0.171634
-0.17249
-0.169985
0.325258
0.325398
0.32548
0.32561
0.325734
0.325869
0.326007
0.326148
0.326288
0.326425
0.326558
0.326684
0.326801
0.326908
0.327002
0.327083
0.32715
0.3272
0.327234
0.327252
0.325068
0.325218
0.32529
0.325428
0.325543
0.325682
0.325817
0.325958
0.326099
0.326238
0.326372
0.3265
0.32662
0.326729
0.326827
0.32691
0.326979
0.327031
0.327067
0.327085
0.324879
0.325104
0.325221
0.325412
0.325582
0.325769
0.325956
0.326144
0.326329
0.326511
0.326685
0.32685
0.327003
0.327141
0.327264
0.327369
0.327455
0.327521
0.327565
0.327587
0.324514
0.324771
0.324903
0.325126
0.325323
0.325543
0.325764
0.325988
0.326211
0.326429
0.32664
0.32684
0.327027
0.327197
0.327347
0.327477
0.327583
0.327664
0.327718
0.327746
0.324074
0.324462
0.324666
0.324989
0.32528
0.325596
0.325912
0.32623
0.326543
0.326848
0.327141
0.327418
0.327675
0.327907
0.328113
0.32829
0.328434
0.328544
0.328618
0.328655
0.323361
0.323822
0.324066
0.324462
0.32482
0.325214
0.32561
0.326011
0.32641
0.326801
0.327178
0.327536
0.32787
0.328174
0.328444
0.328676
0.328865
0.32901
0.329108
0.329158
0.322501
0.323201
0.323573
0.324157
0.324688
0.325262
0.325838
0.326417
0.326989
0.327546
0.328082
0.328588
0.329058
0.329485
0.329863
0.330186
0.330451
0.330653
0.330789
0.330858
0.321174
0.322029
0.322491
0.323223
0.323895
0.324627
0.325368
0.326117
0.326863
0.327594
0.328302
0.328974
0.329601
0.330174
0.330683
0.33112
0.331479
0.331754
0.331939
0.332033
0.319522
0.320807
0.321495
0.322572
0.323557
0.324621
0.325693
0.326771
0.327839
0.328883
0.329889
0.330841
0.331727
0.332534
0.33325
0.333864
0.334366
0.334751
0.33501
0.335141
0.317038
0.318638
0.319508
0.320875
0.322138
0.32351
0.324904
0.326316
0.327725
0.329111
0.330456
0.331739
0.33294
0.33404
0.335021
0.335867
0.336562
0.337095
0.337455
0.337637
0.313881
0.316243
0.317514
0.319503
0.321329
0.323307
0.325307
0.327327
0.329338
0.331312
0.333221
0.335039
0.336737
0.33829
0.339674
0.340865
0.341845
0.342595
0.343103
0.343359
0.309229
0.312199
0.313818
0.31635
0.318699
0.321253
0.323858
0.326508
0.329168
0.331802
0.334374
0.336845
0.339176
0.341326
0.343258
0.344933
0.346318
0.347384
0.348109
0.348476
0.303225
0.307499
0.30981
0.313428
0.31677
0.320409
0.324115
0.327885
0.331667
0.335413
0.339068
0.342581
0.345895
0.348955
0.351706
0.354097
0.356077
0.357605
0.358643
0.359169
0.294558
0.299954
0.302877
0.307453
0.311705
0.316352
0.321126
0.326024
0.330995
0.335978
0.340909
0.345717
0.350323
0.354638
0.358576
0.362039
0.364945
0.367206
0.36876
0.369552
0.283236
0.290674
0.29472
0.301065
0.306982
0.31348
0.320183
0.327092
0.334132
0.341219
0.348262
0.355159
0.361795
0.36805
0.373788
0.378879
0.383175
0.386555
0.388881
0.390078
0.267435
0.276743
0.281737
0.289566
0.296847
0.304874
0.313228
0.321937
0.33095
0.340196
0.349586
0.359003
0.368305
0.377309
0.385808
0.393535
0.400257
0.405633
0.409461
0.411464
0.246523
0.258445
0.264955
0.275215
0.284916
0.29573
0.307124
0.319154
0.331755
0.344837
0.358281
0.371935
0.385593
0.399009
0.41186
0.423822
0.434372
0.443193
0.449461
0.453051
0.219202
0.233545
0.241094
0.252989
0.264119
0.276541
0.28968
0.303721
0.318709
0.33469
0.351669
0.369582
0.38831
0.407602
0.427103
0.44612
0.464178
0.479782
0.492034
0.499634
0.182869
0.199183
0.207807
0.22165
0.234733
0.249755
0.266067
0.284033
0.303732
0.325338
0.348922
0.374502
0.401949
0.431023
0.461271
0.492114
0.52198
0.551737
0.573537
0.59514
0.139693
0.157937
0.16654
0.181129
0.193791
0.208615
0.224029
0.241166
0.260116
0.281415
0.305515
0.333123
0.364906
0.401559
0.443112
0.489837
0.539807
0.594287
0.644443
0.693349
-0.0877734
-0.0830663
-0.083228
-0.0837612
-0.0869035
-0.092164
-0.100007
-0.110196
-0.122348
-0.134908
-0.144377
-0.148234
-0.148095
-0.150348
-0.157588
-0.164192
-0.169416
-0.171634
-0.17249
-0.169985
-0.110757
-0.108357
-0.109505
-0.111323
-0.115383
-0.12128
-0.129414
-0.13975
-0.152223
-0.166226
-0.180568
-0.193099
-0.201918
-0.206752
-0.208546
-0.207917
-0.205708
-0.201102
-0.197271
-0.192597
-0.128954
-0.127512
-0.12862
-0.130291
-0.133603
-0.138157
-0.144128
-0.151249
-0.159116
-0.166703
-0.172673
-0.176286
-0.177925
-0.178846
-0.179376
-0.179919
-0.180087
-0.17956
-0.178846
-0.178023
-0.143133
-0.142411
-0.143638
-0.145501
-0.148772
-0.153171
-0.158822
-0.165463
-0.17275
-0.179968
-0.186278
-0.191119
-0.194501
-0.196455
-0.197449
-0.197361
-0.196797
-0.195805
-0.194911
-0.194188
-0.153956
-0.153668
-0.15482
-0.156539
-0.159267
-0.162721
-0.166906
-0.17146
-0.175952
-0.179709
-0.182292
-0.183706
-0.18433
-0.184496
-0.184383
-0.184406
-0.184179
-0.183856
-0.183535
-0.183315
-0.161961
-0.161928
-0.162954
-0.164484
-0.166799
-0.169684
-0.173141
-0.176899
-0.18067
-0.184058
-0.186841
-0.188981
-0.190475
-0.191413
-0.19193
-0.191933
-0.191808
-0.191563
-0.191341
-0.191194
-0.167537
-0.167645
-0.168522
-0.169807
-0.171666
-0.173902
-0.176454
-0.179022
-0.181318
-0.183067
-0.18423
-0.184891
-0.18518
-0.185242
-0.18524
-0.18522
-0.185113
-0.18498
-0.18486
-0.184788
-0.171171
-0.171407
-0.172196
-0.173313
-0.174854
-0.176662
-0.178673
-0.180684
-0.182544
-0.184143
-0.185469
-0.186503
-0.187254
-0.187779
-0.188018
-0.188085
-0.188077
-0.188025
-0.187971
-0.187936
-0.173299
-0.173634
-0.174366
-0.175345
-0.176614
-0.178033
-0.179528
-0.180922
-0.182097
-0.182996
-0.18363
-0.184019
-0.184236
-0.184312
-0.184415
-0.184445
-0.184436
-0.184408
-0.184379
-0.184362
-0.174256
-0.174702
-0.175434
-0.176347
-0.177455
-0.178645
-0.179852
-0.180966
-0.181951
-0.182799
-0.183509
-0.18407
-0.184501
-0.184818
-0.184956
-0.185046
-0.185089
-0.185108
-0.185115
-0.185116
-0.174233
-0.174877
-0.17567
-0.176582
-0.177606
-0.17864
-0.179625
-0.180483
-0.181194
-0.181757
-0.182172
-0.182458
-0.182646
-0.182782
-0.182902
-0.18298
-0.183032
-0.183066
-0.183086
-0.183095
-0.173419
-0.174367
-0.175303
-0.176301