/*--------------------------------*- C++ -*----------------------------------*\
  =========                 |
  \\      /  F ield         | OpenFOAM: The Open Source CFD Toolbox
   \\    /   O peration     | Website:  https://openfoam.org
    \\  /    A nd           | Version:  7
     \\/     M anipulation  |
\*---------------------------------------------------------------------------*/
FoamFile
{
    version     2.0;
    format      ascii;
    class       surfaceScalarField;
    location    "44";
    object      phi;
}
// * * * * * * * * * * * * * * * * * * * * * * * * * * * * * * * * * * * * * //

dimensions      [0 3 -1 0 0 0 0];

internalField   nonuniform List<scalar> 
323
(
0.000339742
-8.1165e-05
9.08985e-05
0.00032826
-9.85461e-05
0.000110027
0.000314766
-0.000119038
0.000132533
0.000298606
-0.000146425
0.000162585
0.000279418
-0.000179673
0.000198861
0.000256118
-0.000222822
0.000246122
0.000227854
-0.000282741
0.000311005
0.000194058
-0.000343315
0.000377111
0.000150555
-0.000456793
0.000500296
0.00010465
-0.000501472
0.000547377
4.20152e-05
-0.000608164
0.000670799
-0.000418014
0.000460029
0.000349828
-7.16139e-05
0.00033847
-8.71881e-05
0.000325015
-0.000105584
0.000308773
-0.000130183
0.000289302
-0.000160202
0.00026549
-0.000199011
0.000236214
-0.000253464
0.000201017
-0.000308118
0.000155195
-0.00041097
0.000106383
-0.000452661
4.24356e-05
-0.000544216
-0.000375579
0.000358755
-6.22287e-05
0.000347511
-7.59442e-05
0.0003341
-9.21719e-05
0.000317793
-0.000113876
0.000298085
-0.000140494
0.000273838
-0.000174765
0.000243696
-0.000223322
0.000207298
-0.00027172
0.000159529
-0.000363202
0.000108201
-0.000401333
4.31527e-05
-0.000479167
-0.000332426
0.000366552
-5.29949e-05
0.000355416
-6.48089e-05
0.000342053
-7.88089e-05
0.000325708
-9.75307e-05
0.000305811
-0.000120597
0.000281218
-0.000150171
0.000250353
-0.000192457
0.000212956
-0.000234323
0.000163572
-0.000313817
0.000110057
-0.000347818
4.395e-05
-0.000413061
-0.000288476
0.000373237
-4.38988e-05
0.000362206
-5.37776e-05
0.000348898
-6.5501e-05
0.000332539
-8.11719e-05
0.000312503
-0.000100561
0.000287649
-0.000125317
0.000256207
-0.000161015
0.000218011
-0.000196127
0.000167318
-0.000263125
0.000111948
-0.000292448
4.48598e-05
-0.000345973
-0.000243616
0.00037883
-3.49266e-05
0.000367898
-4.28455e-05
0.000354652
-5.22546e-05
0.000338304
-6.48244e-05
0.000318179
-8.04357e-05
0.000293149
-0.000100287
0.000261269
-0.000129135
0.000222472
-0.00015733
0.000170765
-0.000211417
0.000113883
-0.000235566
4.5918e-05
-0.000278008
-0.000197698
0.000383345
-2.60651e-05
0.000372508
-3.20077e-05
0.000359329
-3.90761e-05
0.000343016
-4.85118e-05
0.00032285
-6.02693e-05
0.000297725
-7.51626e-05
0.000265548
-9.69581e-05
0.000226345
-0.000118127
0.000173906
-0.000158978
0.000115863
-0.000177523
4.71387e-05
-0.000209283
-0.00015056
0.000386794
-1.73004e-05
0.000376045
-2.12588e-05
0.00036294
-2.59709e-05
0.000346685
-3.22563e-05
0.000326525
-4.01094e-05
0.000301385
-5.00224e-05
0.000269046
-6.46189e-05
0.00022963
-7.87112e-05
0.000176733
-0.000106082
0.000117883
-0.000118673
4.85323e-05
-0.000139933
-0.000102027
0.000389184
0.000378518
-1.05928e-05
0.000365491
-1.29439e-05
0.000349314
-1.60791e-05
0.000329207
-2.00021e-05
0.000304128
-2.49435e-05
0.00027176
-3.22508e-05
0.000232323
-3.92738e-05
0.000179235
-5.29945e-05
0.000119939
-5.9376e-05
5.01157e-05
-7.01094e-05
-5.19117e-05
0.000379927
0.000366984
0.000350903
0.000330897
0.000305949
0.000273693
0.000234413
0.000181413
0.00012203
5.19155e-05
0.000163531
-0.000273538
0.000142073
-0.000336366
0.000118329
-0.000416065
9.02041e-05
-0.000504738
6.09882e-05
-0.000647117
3.09685e-05
-0.000698619
-4.44665e-06
-0.000845564
-0.000447735
0.00023767
-0.000120368
0.00022567
-0.000144444
0.000211884
-0.000172749
0.000195823
-0.000210362
0.000177337
-0.000255053
0.000155352
-0.000314381
0.000130465
-0.000391177
0.000100619
-0.000474893
6.80876e-05
-0.000614585
3.47958e-05
-0.000665327
-4.11409e-06
-0.000806654
-0.000451849
0.000250231
-0.00011024
0.000238499
-0.000132712
0.000224899
-0.000159149
0.000208889
-0.000194352
0.000190248
-0.000236412
0.000167818
-0.000291951
0.000141915
-0.000365275
0.000110549
-0.000443527
7.50047e-05
-0.00057904
3.85886e-05
-0.000628911
-3.54377e-06
-0.000764522
-0.000455393
0.000261878
-0.000100421
0.000250407
-0.000121241
0.000236999
-0.000145742
0.000221065
-0.000178418
0.000202319
-0.000217665
0.000179535
-0.000269167
0.00015276
-0.000338501
0.00012009
-0.000410856
8.18645e-05
-0.000540815
4.2472e-05
-0.000589519
-2.8328e-06
-0.000719217
-0.000458225
0.00027262
0.000261407
0.000248197
0.000232365
0.00021356
0.000190516
0.00016302
0.000129275
8.8756e-05
4.66141e-05
-1.80417e-06
)
;

boundaryField
{
    inlet
    {
        type            calculated;
        value           nonuniform 0();
    }
    outlet
    {
        type            calculated;
        value           nonuniform 0();
    }
    polygon
    {
        type            calculated;
        value           uniform 0;
    }
    top
    {
        type            symmetryPlane;
        value           uniform 0;
    }
    bottom
    {
        type            symmetryPlane;
        value           uniform 0;
    }
    outside
    {
        type            calculated;
        value           nonuniform 0();
    }
    procBoundary34to26
    {
        type            processor;
        value           nonuniform List<scalar> 
11
(
-3.16007e-09
-6.21864e-10
1.55913e-09
3.33646e-09
4.65249e-09
5.52218e-09
5.97497e-09
6.08443e-09
6.04595e-09
5.52247e-09
3.87603e-09
)
;
    }
    procBoundary34to35
    {
        type            processor;
        value           nonuniform List<scalar> 
11
(
-0.000349475
-0.000359379
-0.000368141
-0.000375785
-0.000382333
-0.000387802
-0.000392207
-0.000395559
-0.000397866
-8.61871e-06
-0.000390516
)
;
    }
    procBoundary34to42
    {
        type            processor;
        value           nonuniform List<scalar> 
13
(
0.000291826
0.000357824
0.00043981
0.000532863
0.000676332
0.000728639
0.000880979
0.000443288
0.000130821
0.000156444
0.000186535
-0.000181819
0.000226423
)
;
    }
    procBoundary34to43
    {
        type            processor;
        value           nonuniform List<scalar> 4(-0.000248122 -0.00026036 -0.000271697 -0.000282143);
    }
}


// ************************************************************************* //
