/*--------------------------------*- C++ -*----------------------------------*\
  =========                 |
  \\      /  F ield         | OpenFOAM: The Open Source CFD Toolbox
   \\    /   O peration     | Website:  https://openfoam.org
    \\  /    A nd           | Version:  7
     \\/     M anipulation  |
\*---------------------------------------------------------------------------*/
FoamFile
{
    version     2.0;
    format      ascii;
    class       volVectorField;
    location    "62";
    object      U;
}
// * * * * * * * * * * * * * * * * * * * * * * * * * * * * * * * * * * * * * //

dimensions      [0 1 -1 0 0 0 0];

internalField   nonuniform List<vector> 
8000
(
(-0.346031 7.09603e-06 2.48513e-20)
(-0.346036 0.000140455 -8.96548e-20)
(-0.345988 0.000416925 9.03959e-20)
(-0.345838 0.000846809 -2.42414e-19)
(-0.345533 0.00142618 1.51399e-19)
(-0.345026 0.00213959 2.77475e-19)
(-0.344281 0.00296578 -3.77354e-19)
(-0.343271 0.00388149 -1.27823e-19)
(-0.341977 0.00486337 -8.43198e-20)
(-0.340387 0.00588923 -1.86678e-19)
(-0.338494 0.00693863 4.45585e-19)
(-0.336299 0.00799307 3.40988e-19)
(-0.333804 0.00903598 3.42068e-18)
(-0.331019 0.0100526 1.1953e-18)
(-0.327953 0.0110296 -5.95405e-19)
(-0.324621 0.0119552 -7.67733e-19)
(-0.321041 0.012819 -3.35102e-18)
(-0.317231 0.0136116 7.52481e-19)
(-0.313214 0.014325 -1.2731e-18)
(-0.309012 0.0149525 -2.53235e-19)
(-0.30465 0.0154887 -1.69225e-18)
(-0.300154 0.0159301 -3.25233e-18)
(-0.295549 0.0162745 -1.32381e-18)
(-0.29086 0.0165219 7.55221e-19)
(-0.286114 0.0166736 -1.01468e-19)
(-0.281335 0.0167326 -1.71292e-18)
(-0.276546 0.0167035 5.1634e-19)
(-0.271769 0.0165916 -3.3564e-18)
(-0.267026 0.0164036 -4.56106e-20)
(-0.262336 0.0161466 1.79819e-20)
(-0.257716 0.0158282 -1.56872e-18)
(-0.253182 0.0154565 -1.5693e-19)
(-0.248748 0.0150395 -7.3408e-18)
(-0.244425 0.014585 1.1969e-18)
(-0.240225 0.0141003 5.60409e-18)
(-0.236157 0.0135918 1.44843e-19)
(-0.232229 0.0130647 -3.56764e-19)
(-0.228449 0.0125222 -8.60074e-18)
(-0.224825 0.0119658 -3.51146e-18)
(-0.221364 0.0113952 -9.57871e-18)
(-0.218074 0.0108089 -2.78424e-18)
(-0.214962 0.0102045 -1.6843e-18)
(-0.212033 0.00957989 -9.31077e-18)
(-0.209294 0.00893406 7.68832e-19)
(-0.206747 0.00826806 -1.84716e-19)
(-0.204393 0.00758581 -7.72339e-19)
(-0.202227 0.00689346 7.44109e-18)
(-0.200243 0.00619955 9.23786e-19)
(-0.198431 0.00551428 -4.15325e-19)
(-0.196777 0.00484891 -1.22181e-18)
(-0.195266 0.00421477 -1.33796e-18)
(-0.193878 0.00362239 1.29587e-18)
(-0.192595 0.00308067 1.84083e-18)
(-0.191394 0.00259623 3.34334e-18)
(-0.190257 0.00217306 2.10882e-18)
(-0.189163 0.0018126 1.27274e-19)
(-0.188095 0.00151389 2.04497e-18)
(-0.187036 0.00127399 -1.92661e-19)
(-0.185972 0.0010886 8.24869e-19)
(-0.184889 0.000952582 -7.33776e-19)
(-0.183776 0.000860612 -6.12683e-18)
(-0.182624 0.000807614 -1.57161e-18)
(-0.181424 0.000788508 -6.4993e-18)
(-0.180169 0.000798619 -2.25159e-19)
(-0.17885 0.000835164 -6.21672e-19)
(-0.17746 0.000896189 -3.43999e-18)
(-0.175994 0.000979791 -1.83851e-18)
(-0.174445 0.00108502 -6.43486e-18)
(-0.172804 0.00121179 -1.79344e-18)
(-0.171065 0.00136114 -6.66005e-19)
(-0.169219 0.00153437 -5.2302e-18)
(-0.167259 0.0017341 -2.83914e-18)
(-0.165175 0.00196279 -6.15405e-18)
(-0.162958 0.00222363 -1.10423e-18)
(-0.160598 0.00252051 -1.37008e-18)
(-0.158083 0.0028581 1.28406e-18)
(-0.155402 0.00324192 1.03891e-18)
(-0.152541 0.00367855 -1.99823e-18)
(-0.149486 0.00417564 -2.97615e-18)
(-0.146224 0.00474241 -3.62853e-19)
(-0.142736 0.0053899 -2.06141e-18)
(-0.139007 0.00613144 -8.15811e-19)
(-0.135018 0.00698328 -2.15921e-18)
(-0.130748 0.00796541 1.0507e-18)
(-0.126178 0.00910259 -1.09306e-18)
(-0.121287 0.0104261 -1.02971e-18)
(-0.116056 0.0119745 -1.2471e-18)
(-0.110469 0.0138017 4.24282e-19)
(-0.104511 0.0159689 -4.90498e-19)
(-0.0981923 0.0185666 7.24161e-19)
(-0.091516 0.0216997 2.2902e-19)
(-0.084587 0.0255366 2.02709e-19)
(-0.0774055 0.0302338 6.29351e-20)
(-0.0705191 0.0361067 -4.62352e-21)
(-0.0634001 0.0433656 -5.78821e-20)
(-0.0590136 0.0519958 -3.16735e-19)
(-0.0526029 0.0632437 1.50184e-20)
(-0.0559595 0.0709885 1.13826e-18)
(-0.0469991 0.0838286 3.10455e-19)
(-0.0369859 0.0507788 2.61258e-19)
(-0.362275 8.00241e-06 2.98413e-20)
(-0.362273 0.000131342 -1.64802e-20)
(-0.362211 0.000382863 6.32804e-20)
(-0.362042 0.000771505 -1.04144e-19)
(-0.361712 0.0012942 1.50789e-19)
(-0.361175 0.00193792 4.92523e-19)
(-0.360393 0.00268421 1.37196e-19)
(-0.359335 0.00351249 -9.11204e-20)
(-0.357982 0.00440186 -9.6045e-21)
(-0.356319 0.00533226 -5.2696e-20)
(-0.354339 0.00628507 1.67996e-19)
(-0.35204 0.00724342 7.39965e-19)
(-0.349425 0.00819211 3.05127e-18)
(-0.346501 0.00911756 1.24917e-18)
(-0.343281 0.0100077 -1.39705e-18)
(-0.339778 0.0108516 -1.29573e-18)
(-0.33601 0.0116396 -1.61145e-18)
(-0.331997 0.0123633 2.90558e-19)
(-0.327763 0.0130152 -2.75169e-18)
(-0.323332 0.0135891 -1.84103e-19)
(-0.318729 0.01408 -7.56129e-20)
(-0.313983 0.0144845 -6.77145e-18)
(-0.309121 0.0148005 -5.18988e-18)
(-0.304169 0.0150278 1.80992e-18)
(-0.299157 0.0151677 2.00369e-19)
(-0.294109 0.0152227 -2.31898e-18)
(-0.289052 0.015197 2.28241e-18)
(-0.284011 0.0150955 -5.77646e-18)
(-0.279006 0.0149243 1.67888e-18)
(-0.27406 0.0146899 1.41139e-18)
(-0.269191 0.0143993 -2.03888e-18)
(-0.264416 0.0140599 1.37331e-18)
(-0.259749 0.0136791 -2.64451e-18)
(-0.255204 0.0132641 5.90013e-18)
(-0.25079 0.0128219 9.20328e-19)
(-0.246518 0.0123585 2.26271e-19)
(-0.242395 0.0118786 6.43819e-19)
(-0.23843 0.0113856 -3.71395e-18)
(-0.234628 0.0108811 -4.13949e-18)
(-0.230997 0.0103647 -4.8527e-18)
(-0.227545 0.00983482 -1.85689e-18)
(-0.224277 0.00928908 -1.14272e-18)
(-0.221201 0.00872501 -4.53938e-18)
(-0.218323 0.00814108 5.47699e-18)
(-0.215647 0.00753778 9.08463e-19)
(-0.213176 0.00691861 -1.13178e-19)
(-0.210908 0.00628838 3.5196e-18)
(-0.20884 0.00565401 7.48851e-19)
(-0.206965 0.00502446 -1.16609e-20)
(-0.205272 0.00440989 -1.09424e-18)
(-0.203747 0.00382075 -8.97281e-19)
(-0.202372 0.00326695 -2.06221e-18)
(-0.20113 0.00275703 2.63789e-18)
(-0.200001 0.00229756 7.61926e-19)
(-0.198963 0.00189279 3.59386e-18)
(-0.197997 0.00154456 6.26891e-19)
(-0.197083 0.00125251 5.69109e-18)
(-0.196205 0.00101434 4.79783e-19)
(-0.195345 0.000826375 3.12784e-18)
(-0.194488 0.000684019 -2.30492e-19)
(-0.193624 0.000582364 -1.75805e-18)
(-0.192739 0.000516888 -6.87276e-19)
(-0.191825 0.00048403 -2.84004e-18)
(-0.190873 0.000478522 2.078e-18)
(-0.189875 0.000496945 1.74413e-19)
(-0.188823 0.000536714 -5.92216e-18)
(-0.187711 0.000596397 -1.58275e-18)
(-0.186532 0.000675374 -3.08603e-18)
(-0.185278 0.000773738 -1.11624e-18)
(-0.183942 0.000893041 -5.33666e-19)
(-0.182516 0.00103369 -2.3685e-18)
(-0.180991 0.0011976 -4.72846e-18)
(-0.17936 0.00138727 -5.24261e-18)
(-0.177612 0.0016056 -9.84215e-19)
(-0.175737 0.00185605 -2.76022e-18)
(-0.173723 0.00214291 2.974e-18)
(-0.171559 0.00247126 2.19098e-18)
(-0.169229 0.00284716 -4.4706e-18)
(-0.16672 0.00327772 -8.01641e-19)
(-0.164014 0.0037715 -5.03866e-20)
(-0.161094 0.00433878 1.8257e-19)
(-0.157938 0.00499207 -1.12891e-18)
(-0.154526 0.00574662 -7.84489e-19)
(-0.150833 0.00662138 2.65001e-18)
(-0.146831 0.0076399 4.91225e-19)
(-0.142492 0.00883222 7.23141e-19)
(-0.137785 0.0102358 -2.37569e-19)
(-0.132678 0.0119028 1.14546e-18)
(-0.127134 0.0138946 4.35056e-19)
(-0.121136 0.0163018 1.49094e-18)
(-0.11464 0.0192329 3.02029e-19)
(-0.107703 0.02286 3.49336e-19)
(-0.100214 0.0273676 1.10268e-19)
(-0.0926458 0.0330514 -3.455e-21)
(-0.0842308 0.0402897 -1.00129e-19)
(-0.0776403 0.0488508 -5.92306e-19)
(-0.0680494 0.0606088 -2.02371e-20)
(-0.0651771 0.0683024 1.16617e-18)
(-0.0500566 0.0803244 3.62283e-19)
(-0.0252725 0.0465528 3.83206e-19)
(-0.376927 8.00736e-06 1.39561e-21)
(-0.376919 0.000119622 4.60501e-20)
(-0.376848 0.000344502 7.34555e-20)
(-0.376663 0.000690364 -4.62856e-20)
(-0.376314 0.0011548 3.59326e-19)
(-0.375753 0.00172692 2.10068e-19)
(-0.374939 0.00239089 -3.81706e-19)
(-0.373842 0.00312878 -1.34266e-19)
(-0.372438 0.00392214 6.2357e-20)
(-0.370712 0.00475311 4.64415e-20)
(-0.368655 0.00560506 6.47945e-20)
(-0.366264 0.00646279 -6.48868e-19)
(-0.363542 0.00731262 1.81898e-18)
(-0.360496 0.00814229 1.17996e-18)
(-0.357137 0.00894086 1.05001e-19)
(-0.35348 0.00969854 -2.483e-18)
(-0.349543 0.0104066 -6.21249e-19)
(-0.345347 0.0110574 4.0664e-19)
(-0.340917 0.0116441 -5.43175e-19)
(-0.336277 0.0121611 5.34855e-19)
(-0.331455 0.0126038 1.11771e-18)
(-0.326481 0.012969 -7.95224e-18)
(-0.321383 0.0132548 -3.06918e-18)
(-0.316191 0.0134607 -2.51107e-18)
(-0.310934 0.0135879 1.69992e-20)
(-0.30564 0.0136387 -4.43049e-18)
(-0.300338 0.0136167 5.86996e-18)
(-0.295052 0.0135264 -2.65652e-18)
(-0.289808 0.0133731 6.08084e-18)
(-0.284626 0.0131628 3.20953e-18)
(-0.279528 0.0129018 -4.30057e-18)
(-0.274531 0.0125969 4.17378e-18)
(-0.269651 0.0122547 1.54415e-19)
(-0.2649 0.0118818 3.15512e-18)
(-0.26029 0.0114846 -4.57863e-18)
(-0.255831 0.0110686 5.18207e-19)
(-0.25153 0.0106384 1.95242e-18)
(-0.247395 0.0101972 -1.88025e-18)
(-0.243431 0.00974647 -6.91797e-18)
(-0.239644 0.00928605 -2.86532e-18)
(-0.236042 0.00881445 -9.60516e-19)
(-0.232631 0.00832929 -1.0494e-18)
(-0.229418 0.00782805 -2.58774e-18)
(-0.22641 0.00730894 1.50403e-18)
(-0.223611 0.00677179 1.4387e-18)
(-0.221027 0.0062189 3.7302e-19)
(-0.218659 0.0056541 2.10343e-18)
(-0.216505 0.00508323 4.86666e-19)
(-0.214561 0.00451409 8.27859e-20)
(-0.21282 0.0039557 -1.66809e-18)
(-0.211268 0.00341753 -9.3649e-19)
(-0.209891 0.00290874 -6.56026e-18)
(-0.208672 0.00243736 5.20861e-18)
(-0.207592 0.00200978 -1.91699e-18)
(-0.206629 0.00163032 7.50973e-18)
(-0.205763 0.00130115 8.1892e-19)
(-0.204974 0.00102238 1.31976e-18)
(-0.204244 0.000792336 7.43595e-20)
(-0.203554 0.000607979 -3.93046e-18)
(-0.202889 0.000465362 -1.00367e-18)
(-0.202235 0.000360316 1.87438e-18)
(-0.201578 0.000289021 3.5275e-19)
(-0.200908 0.000245029 -1.23272e-18)
(-0.200217 0.000225035 6.54411e-18)
(-0.199495 0.000227341 5.70611e-19)
(-0.198735 0.000251381 -2.61875e-18)
(-0.197929 0.000294385 -1.4527e-18)
(-0.197069 0.000354744 -1.8604e-18)
(-0.196148 0.000431893 -5.86493e-19)
(-0.19516 0.000525475 -3.93262e-19)
(-0.194096 0.000637125 -1.21192e-18)
(-0.192948 0.000770313 -1.5043e-18)
(-0.191707 0.000926128 7.33955e-19)
(-0.190364 0.00110713 -5.2704e-19)
(-0.188908 0.00131654 -5.7864e-18)
(-0.187327 0.00155826 6.38135e-19)
(-0.185609 0.00183689 -1.69337e-18)
(-0.183737 0.00215793 -4.68376e-18)
(-0.181698 0.00252786 1.83199e-18)
(-0.179472 0.00295448 4.267e-19)
(-0.177039 0.00344722 2.48919e-18)
(-0.174377 0.00401754 -2.11789e-18)
(-0.17146 0.0046795 2.20813e-19)
(-0.168259 0.00545062 2.64955e-18)
(-0.164741 0.00635275 1.89089e-18)
(-0.16087 0.00741396 2.84799e-18)
(-0.156603 0.00866936 4.48538e-19)
(-0.151894 0.010168 6.69223e-19)
(-0.146684 0.0119689 1.31856e-18)
(-0.140931 0.0141587 1.63648e-18)
(-0.134543 0.0168441 3.04572e-19)
(-0.127533 0.0201905 6.237e-19)
(-0.119679 0.0243966 1.65129e-19)
(-0.11137 0.0297335 -1.54867e-20)
(-0.101617 0.036695 -1.75266e-19)
(-0.092774 0.0448958 -1.07119e-18)
(-0.0800323 0.0565097 -8.37998e-20)
(-0.0713494 0.063948 1.77461e-18)
(-0.0512304 0.074336 4.18434e-19)
(-0.0196575 0.0431098 5.79066e-19)
(-0.389915 7.49208e-06 -2.24789e-20)
(-0.389904 0.000106128 1.52319e-19)
(-0.389826 0.000303183 1.20389e-19)
(-0.38963 0.000605183 -2.23934e-21)
(-0.389266 0.00101025 2.2694e-19)
(-0.388685 0.00150939 -8.05927e-20)
(-0.387845 0.00208923 -2.5311e-19)
(-0.386715 0.00273438 -1.34932e-19)
(-0.385268 0.00342886 2.0936e-19)
(-0.383488 0.00415709 1.58289e-19)
(-0.381366 0.00490446 -2.29304e-20)
(-0.378896 0.00565759 1.54424e-19)
(-0.376081 0.00640439 2.09438e-18)
(-0.372927 0.00713403 1.31987e-18)
(-0.369446 0.00783679 1.00839e-18)
(-0.365653 0.00850404 -1.17912e-18)
(-0.361567 0.00912804 5.84188e-19)
(-0.357209 0.00970197 8.85294e-19)
(-0.352604 0.0102198 1.16075e-18)
(-0.347778 0.0106766 1.8373e-18)
(-0.342761 0.011068 2.01398e-18)
(-0.337582 0.0113913 -7.82206e-18)
(-0.332273 0.0116447 -1.16379e-18)
(-0.326865 0.0118277 4.26583e-19)
(-0.321388 0.0119411 -3.8952e-20)
(-0.315873 0.0119871 2.74999e-20)
(-0.310349 0.0119686 4.93379e-18)
(-0.304843 0.0118897 -2.22336e-18)
(-0.299382 0.0117551 5.02894e-18)
(-0.293988 0.0115701 5.16972e-18)
(-0.288683 0.0113403 9.49567e-19)
(-0.283486 0.0110716 -2.56566e-19)
(-0.278412 0.0107699 2.03427e-18)
(-0.273477 0.0104412 2.25987e-18)
(-0.268691 0.0100912 -1.65803e-18)
(-0.264063 0.00972481 2.42906e-18)
(-0.259602 0.00934633 4.17831e-18)
(-0.255313 0.00895865 -2.2682e-18)
(-0.251203 0.00856326 -9.55667e-19)
(-0.247277 0.00816011 -1.36947e-18)
(-0.243541 0.00774785 -4.55576e-19)
(-0.240001 0.00732425 -1.57513e-18)
(-0.236663 0.00688684 -2.15083e-18)
(-0.233535 0.00643374 -9.9859e-19)
(-0.230624 0.00596416 2.78243e-18)
(-0.227934 0.00547966 6.90222e-19)
(-0.22547 0.00498339 2.15278e-18)
(-0.223232 0.00448021 -1.55718e-19)
(-0.221219 0.00397676 -3.82204e-19)
(-0.219425 0.00348086 -3.24241e-18)
(-0.217839 0.00300088 -1.2923e-18)
(-0.216449 0.00254502 -2.1473e-18)
(-0.215239 0.00212063 -4.27936e-19)
(-0.21419 0.00173367 -6.56589e-18)
(-0.213281 0.0013883 4.97245e-18)
(-0.212493 0.00108682 -1.65054e-19)
(-0.211803 0.000829631 -2.46747e-18)
(-0.211193 0.00061552 -7.44346e-19)
(-0.210644 0.000441943 -2.07329e-18)
(-0.210137 0.000305436 -1.13702e-18)
(-0.209658 0.000202022 6.74678e-18)
(-0.209194 0.000127361 1.29451e-18)
(-0.208732 8.40176e-05 -3.74995e-19)
(-0.208262 6.2521e-05 5.20866e-18)
(-0.207774 5.91023e-05 2.67738e-19)
(-0.20726 6.96117e-05 -1.51979e-18)
(-0.206713 9.4568e-05 -1.72077e-18)
(-0.206125 0.000133815 -1.27784e-18)
(-0.20549 0.000187279 -4.20374e-19)
(-0.204799 0.000259967 -2.83093e-19)
(-0.204044 0.000349607 -6.67122e-19)
(-0.203216 0.000455059 9.82658e-19)
(-0.202309 0.000580725 -2.07335e-19)
(-0.201311 0.000728528 -4.95322e-19)
(-0.200212 0.000900864 -5.91244e-18)
(-0.199 0.00110113 2.01301e-19)
(-0.197661 0.00133344 -5.98325e-19)
(-0.19618 0.00160269 -1.86907e-18)
(-0.19454 0.00191466 1.1591e-18)
(-0.192723 0.00227632 6.98558e-19)
(-0.190705 0.00269608 1.77113e-18)
(-0.188462 0.00318422 -6.18462e-19)
(-0.185965 0.00375338 1.70734e-18)
(-0.183181 0.00441934 9.02958e-19)
(-0.180073 0.00520187 9.83067e-19)
(-0.176595 0.00612651 3.72161e-18)
(-0.172696 0.00722531 8.70622e-19)
(-0.168316 0.00854316 4.73182e-19)
(-0.163379 0.0101349 1.1274e-18)
(-0.157816 0.0120808 1.06824e-18)
(-0.151494 0.0144825 1.79489e-19)
(-0.144382 0.0174928 1.11966e-18)
(-0.136161 0.0213146 1.92223e-19)
(-0.12713 0.0261796 -2.67873e-20)
(-0.11611 0.0326474 -3.14521e-19)
(-0.105135 0.0402289 -1.10651e-18)
(-0.0894926 0.0512013 -1.1057e-19)
(-0.0756895 0.0582028 1.82412e-18)
(-0.0514733 0.0669048 4.20554e-19)
(-0.016835 0.039595 1.0334e-18)
(-0.401176 6.6355e-06 -5.02497e-20)
(-0.401164 9.13479e-05 1.91291e-19)
(-0.40108 0.000259554 1.95143e-19)
(-0.400876 0.00051666 2.5388e-20)
(-0.400501 0.00086123 2.42786e-19)
(-0.399904 0.00128597 -5.1939e-19)
(-0.399044 0.00177981 -2.65554e-19)
(-0.397886 0.00232986 -1.58621e-19)
(-0.396405 0.00292259 5.20165e-19)
(-0.39458 0.00354476 3.02463e-19)
(-0.392402 0.00418387 -2.29558e-19)
(-0.389866 0.00482844 1.28939e-18)
(-0.386971 0.00546807 1.00725e-18)
(-0.383726 0.00609341 1.84816e-18)
(-0.380141 0.00669612 2.02232e-18)
(-0.376231 0.00726872 -7.91593e-19)
(-0.372015 0.00780457 2.55108e-18)
(-0.367516 0.00829776 1.73494e-18)
(-0.362759 0.00874311 3.3725e-18)
(-0.357772 0.00913622 4.11129e-18)
(-0.352584 0.0094735 3.09687e-18)
(-0.347227 0.00975235 -1.35482e-17)
(-0.341733 0.0099712 1.98619e-18)
(-0.336134 0.0101296 3.69193e-18)
(-0.330464 0.0102282 9.12876e-20)
(-0.324754 0.0102686 4.55701e-18)
(-0.319035 0.0102536 7.35215e-18)
(-0.313336 0.0101866 -4.30989e-18)
(-0.307683 0.0100716 8.17291e-18)
(-0.302102 0.00991311 9.34114e-18)
(-0.296615 0.00971602 5.48814e-18)
(-0.291241 0.00948537 -4.6899e-18)
(-0.285998 0.00922636 5.03504e-18)
(-0.280899 0.0089441 2.06787e-18)
(-0.275958 0.00864353 -4.72865e-19)
(-0.271182 0.00832911 6.46253e-18)
(-0.26658 0.00800453 8.33276e-18)
(-0.262158 0.00767246 -4.95102e-18)
(-0.25792 0.00733426 4.73549e-18)
(-0.253871 0.00698997 -3.22539e-19)
(-0.250017 0.00663843 1.02795e-19)
(-0.246363 0.00627762 -3.00757e-18)
(-0.242916 0.00590523 -2.76396e-18)
(-0.239682 0.00551937 -3.37617e-18)
(-0.236669 0.00511902 6.14937e-18)
(-0.233884 0.00470532 8.1164e-19)
(-0.231332 0.00428077 3.36508e-18)
(-0.229016 0.00384924 -1.46693e-18)
(-0.226936 0.0034162 -8.13861e-19)
(-0.225089 0.00298821 -7.11138e-18)
(-0.223466 0.00257244 -1.78833e-18)
(-0.222056 0.00217599 1.41012e-18)
(-0.220845 0.00180535 -5.89592e-18)
(-0.219814 0.00146586 -1.56851e-17)
(-0.218944 0.00116138 7.04529e-18)
(-0.218214 0.000894172 -2.21979e-18)
(-0.217602 0.000664876 -8.2099e-18)
(-0.217087 0.000472721 -1.80386e-18)
(-0.216651 0.000315793 -1.39385e-18)
(-0.216274 0.000191308 -1.82903e-18)
(-0.21594 9.61103e-05 1.6175e-17)
(-0.215632 3.12886e-05 1.59338e-18)
(-0.21534 -1.85482e-05 6.95192e-20)
(-0.215055 -4.71718e-05 7.56595e-18)
(-0.214764 -5.81901e-05 -9.23268e-19)
(-0.214459 -5.58579e-05 -1.596e-18)
(-0.214131 -3.9372e-05 -3.12326e-18)
(-0.213771 -8.76269e-06 -1.26107e-18)
(-0.213372 3.64474e-05 -4.32319e-19)
(-0.212927 8.88409e-05 -5.53921e-19)
(-0.212431 0.000152503 -4.7048e-19)
(-0.211873 0.000236964 -3.59291e-18)
(-0.211244 0.00033635 -1.39807e-18)
(-0.210535 0.000453791 -1.00249e-18)
(-0.209736 0.000592044 -3.02697e-18)
(-0.208832 0.000754079 1.03699e-18)
(-0.207811 0.000943387 -8.49142e-20)
(-0.206657 0.00116414 -2.92315e-19)
(-0.205353 0.0014213 1.77775e-18)
(-0.203876 0.00172085 1.12826e-18)
(-0.202205 0.00207008 2.02189e-18)
(-0.200313 0.00247786 2.20273e-21)
(-0.198167 0.00295519 6.46787e-19)
(-0.195733 0.00351579 -6.16049e-19)
(-0.192965 0.00417691 4.74337e-19)
(-0.189816 0.00496097 3.97182e-18)
(-0.186222 0.00589615 1.12259e-18)
(-0.182115 0.00702196 4.14566e-19)
(-0.1774 0.00838742 1.47784e-18)
(-0.171988 0.010064 8.98608e-19)
(-0.165708 0.0121443 -6.52075e-20)
(-0.158494 0.0147639 1.0969e-18)
(-0.149935 0.01812 1.48545e-19)
(-0.140254 0.0223975 -8.77452e-20)
(-0.12811 0.0281762 -1.36909e-18)
(-0.115227 0.0349116 -1.62592e-18)
(-0.0970399 0.0448397 -1.95741e-19)
(-0.0788863 0.05124 1.31834e-18)
(-0.0512527 0.0584673 3.93845e-19)
(-0.0152686 0.0356119 8.80249e-19)
(-0.410653 5.58235e-06 -3.89853e-20)
(-0.41064 7.56839e-05 2.07419e-19)
(-0.410552 0.000214253 2.90095e-20)
(-0.410343 0.00042564 4.78158e-20)
(-0.409959 0.000708778 -2.94768e-19)
(-0.409351 0.00105791 -5.88555e-19)
(-0.408475 0.00146418 -3.19585e-19)
(-0.407296 0.0019171 -1.53156e-19)
(-0.405786 0.00240564 -2.0285e-19)
(-0.403926 0.00291889 4.30146e-19)
(-0.401703 0.00344656 -5.22428e-19)
(-0.399111 0.00397912 8.74543e-19)
(-0.396152 0.00450796 3.98125e-19)
(-0.392831 0.00502531 2.38543e-19)
(-0.389158 0.00552422 -2.15196e-20)
(-0.385151 0.00599849 -1.40655e-18)
(-0.380827 0.00644258 2.03398e-18)
(-0.376209 0.00685159 -1.71338e-18)
(-0.371324 0.00722119 2.2113e-18)
(-0.3662 0.00754769 2.44352e-18)
(-0.360868 0.00782809 3.68598e-18)
(-0.355359 0.00806017 -1.46889e-17)
(-0.349708 0.00824256 2.83151e-18)
(-0.343948 0.00837484 4.47906e-19)
(-0.338114 0.0084575 -4.25033e-19)
(-0.332238 0.00849192 3.72784e-18)
(-0.326352 0.00848027 3.32085e-18)
(-0.320487 0.00842537 -7.88803e-19)
(-0.314671 0.00833058 8.3433e-18)
(-0.30893 0.00819964 7.3648e-18)
(-0.303287 0.00803658 -3.64099e-19)
(-0.297763 0.00784562 -2.06535e-18)
(-0.292374 0.00763107 1.07664e-18)
(-0.287137 0.00739721 1.98125e-18)
(-0.282062 0.00714818 1.78517e-21)
(-0.277161 0.00688775 2.81723e-18)
(-0.272439 0.00661906 3.98136e-18)
(-0.267902 0.00634441 -1.23034e-20)
(-0.263556 0.00606503 1.80599e-18)
(-0.259403 0.005781 -5.5654e-19)
(-0.255448 0.00549137 6.24954e-19)
(-0.251698 0.0051944 -6.30357e-18)
(-0.248156 0.00488804 -4.59708e-18)
(-0.244832 0.00457051 -7.33059e-18)
(-0.241732 0.00424074 1.30372e-18)
(-0.238864 0.00389965 1.74086e-19)
(-0.236235 0.00354916 6.89817e-18)
(-0.233849 0.00319221 -4.43088e-18)
(-0.231709 0.00283315 -1.88224e-18)
(-0.229811 0.00247729 -2.87824e-18)
(-0.228152 0.00213052 -1.79759e-18)
(-0.22672 0.00179876 6.15931e-18)
(-0.225501 0.00148749 -3.48303e-18)
(-0.22448 0.00120129 -8.71036e-18)
(-0.223636 0.000943554 4.73682e-18)
(-0.222948 0.000716332 -7.33879e-18)
(-0.222395 0.000520344 -7.02928e-18)
(-0.221955 0.000355083 -2.47602e-18)
(-0.221608 0.000219008 -1.78609e-18)
(-0.221334 0.000109815 -3.12563e-18)
(-0.221114 2.64902e-05 1.49279e-17)
(-0.220937 -3.48851e-05 -5.66144e-19)
(-0.220788 -8.61489e-05 3.69042e-19)
(-0.22065 -0.000118904 4.55723e-18)
(-0.220517 -0.000135501 -4.38001e-18)
(-0.220378 -0.000136434 -2.77415e-18)
(-0.220224 -0.000124299 -6.37725e-18)
(-0.22005 -0.00010045 -1.41396e-18)
(-0.219848 -6.50272e-05 -4.28372e-19)
(-0.21961 -2.38318e-05 -1.22207e-18)
(-0.219324 2.97767e-05 -5.83973e-19)
(-0.218983 8.64013e-05 -2.58674e-18)
(-0.218583 0.000162355 -2.83073e-18)
(-0.218111 0.000254217 -1.94798e-18)
(-0.217555 0.000362972 -2.00619e-18)
(-0.216904 0.000490994 3.09581e-18)
(-0.216143 0.000641212 3.06002e-19)
(-0.215256 0.000817121 9.62053e-19)
(-0.214225 0.00102286 3.58773e-18)
(-0.213028 0.00126341 1.9621e-18)
(-0.21164 0.00154481 3.41217e-18)
(-0.210034 0.00187449 2.76733e-19)
(-0.208176 0.00226158 -1.1265e-19)
(-0.206026 0.00271755 8.3989e-19)
(-0.203538 0.00325681 3.4362e-19)
(-0.200657 0.00389816 3.94255e-18)
(-0.197313 0.0046653 1.23392e-18)
(-0.193429 0.00559143 3.79634e-19)
(-0.188894 0.00671828 8.83134e-19)
(-0.183604 0.00810625 9.3743e-19)
(-0.177357 0.00983589 -4.80613e-19)
(-0.170053 0.0120204 5.57691e-19)
(-0.161209 0.0148416 6.74005e-21)
(-0.150978 0.0184366 -1.84168e-19)
(-0.137891 0.0233649 -2.00632e-18)
(-0.123389 0.0290719 -1.55975e-18)
(-0.103062 0.0376316 -1.62081e-19)
(-0.0813262 0.0432492 1.57027e-18)
(-0.0507987 0.0492185 3.54515e-19)
(-0.0142424 0.0310359 1.33538e-18)
(-0.418297 4.4159e-06 -4.04384e-20)
(-0.418283 5.94269e-05 1.83527e-19)
(-0.418194 0.000167793 -1.82021e-19)
(-0.41798 0.000332856 4.76469e-20)
(-0.41759 0.00055386 -4.67397e-19)
(-0.416973 0.000826472 -1.83516e-19)
(-0.416086 0.00114391 -4.11186e-19)
(-0.414891 0.00149809 -1.4276e-19)
(-0.41336 0.00188043 -9.56818e-19)
(-0.411472 0.00228244 8.46258e-19)
(-0.409214 0.00269602 -1.14827e-18)
(-0.406579 0.00311373 1.26715e-18)
(-0.403568 0.00352875 -1.2948e-19)
(-0.400187 0.00393498 -1.39325e-18)
(-0.396445 0.00432695 -2.29562e-18)
(-0.392359 0.00469975 -2.83756e-18)
(-0.387948 0.00504903 -1.50325e-18)
(-0.383235 0.0053709 -1.49184e-18)
(-0.378247 0.00566195 -2.39376e-18)
(-0.373012 0.00591925 2.06237e-18)
(-0.367562 0.00614042 4.47128e-18)
(-0.361931 0.00632366 -1.21065e-17)
(-0.356152 0.00646787 2.28494e-18)
(-0.350261 0.00657267 -3.16699e-18)
(-0.344292 0.00663843 -1.37236e-18)
(-0.338281 0.00666619 5.8397e-18)
(-0.332259 0.00665764 6.20824e-19)
(-0.326259 0.00661499 1.77105e-18)
(-0.32031 0.00654088 4.88305e-18)
(-0.314438 0.00643826 8.06816e-18)
(-0.308668 0.00631029 2.3726e-18)
(-0.30302 0.0061603 -6.3655e-19)
(-0.297513 0.00599169 -1.40416e-18)
(-0.292161 0.00580784 2.66242e-18)
(-0.286979 0.00561205 1.69355e-19)
(-0.281974 0.0054073 1.1433e-18)
(-0.277154 0.00519615 1.56215e-18)
(-0.272525 0.00498046 3.86954e-18)
(-0.26809 0.00476126 -1.564e-19)
(-0.263852 0.00453865 -1.53383e-18)
(-0.259816 0.00431189 1.11819e-18)
(-0.255987 0.00407959 -1.44798e-18)
(-0.252369 0.00384003 -8.49204e-18)
(-0.248971 0.00359172 -1.7042e-18)
(-0.245799 0.00333358 -7.21323e-19)
(-0.242862 0.00306626 -6.31672e-19)
(-0.240169 0.00279147 1.48829e-17)
(-0.237724 0.00251127 1.28358e-18)
(-0.235532 0.00222895 -3.61505e-18)
(-0.233591 0.00194858 3.1242e-19)
(-0.231899 0.00167475 -2.15525e-18)
(-0.230444 0.00141214 1.54881e-17)
(-0.229217 0.00116514 -5.15962e-18)
(-0.228198 0.000937453 -6.72549e-18)
(-0.227371 0.00073188 7.48109e-18)
(-0.226714 0.000550187 -6.56495e-18)
(-0.226204 0.000393097 -9.12585e-18)
(-0.225821 0.000260381 -3.09668e-18)
(-0.225542 0.000151032 -2.71989e-18)
(-0.225347 6.34946e-05 -5.2331e-18)
(-0.225219 -4.68229e-06 1.32663e-17)
(-0.22514 -6.48742e-05 4.3236e-18)
(-0.225097 -0.000103907 1.11007e-18)
(-0.225077 -0.000129974 4.34581e-18)
(-0.225069 -0.00014486 -1.14689e-18)
(-0.225063 -0.0001498 -5.05123e-18)
(-0.225049 -0.000145582 -3.34254e-18)
(-0.225021 -0.000132862 -9.93921e-19)
(-0.224969 -0.00011129 -5.92031e-19)
(-0.224888 -7.6508e-05 -2.84582e-18)
(-0.224772 -3.07468e-05 -6.04127e-19)
(-0.224607 1.79262e-05 -3.20961e-18)
(-0.224383 7.11884e-05 -5.71006e-18)
(-0.224096 0.000137593 -3.69672e-18)
(-0.223732 0.00021737 -1.91514e-18)
(-0.22328 0.000312322 1.37609e-18)
(-0.222724 0.000424718 1.86529e-19)
(-0.222047 0.000557202 2.80943e-18)
(-0.221231 0.000712953 2.14088e-18)
(-0.220255 0.000895845 3.18505e-18)
(-0.219091 0.0011106 6.55505e-18)
(-0.217711 0.00136303 1.92924e-19)
(-0.21608 0.0016603 -1.04429e-18)
(-0.214155 0.00201146 -6.79185e-19)
(-0.211888 0.00242785 4.11713e-19)
(-0.209218 0.00292432 3.48374e-18)
(-0.206073 0.00351965 1.29996e-18)
(-0.202366 0.00424009 3.98051e-19)
(-0.197976 0.00511903 7.17604e-19)
(-0.192785 0.0062043 1.35902e-18)
(-0.186565 0.00756176 -3.81478e-20)
(-0.179194 0.00927947 4.18354e-19)
(-0.170127 0.0115144 -2.30366e-19)
(-0.159463 0.0143584 -2.92056e-19)
(-0.145631 0.0183084 -1.49523e-18)
(-0.129832 0.0228498 -1.94628e-18)
(-0.107791 0.0297819 -1.09721e-19)
(-0.0832155 0.0344315 7.47844e-19)
(-0.050249 0.0392637 1.98492e-19)
(-0.0134483 0.0257564 5.90951e-19)
(-0.424068 3.2019e-06 -5.91127e-20)
(-0.424054 4.27804e-05 7.87162e-20)
(-0.423963 0.000120533 -2.28382e-19)
(-0.423746 0.00023883 8.306e-20)
(-0.423352 0.000397176 -3.25542e-19)
(-0.42273 0.000592558 2.15647e-19)
(-0.421834 0.000820196 -7.35121e-19)
(-0.420628 0.00107435 -2.18578e-19)
(-0.419082 0.00134891 -6.50301e-19)
(-0.417174 0.00163777 1.58353e-19)
(-0.414891 0.00193514 -4.68259e-19)
(-0.412224 0.00223564 3.52214e-19)
(-0.409175 0.00253437 -1.2987e-18)
(-0.405748 0.00282691 -8.30333e-19)
(-0.401955 0.00310932 -2.20753e-18)
(-0.39781 0.00337804 -1.50577e-18)
(-0.393333 0.00362993 -6.47241e-19)
(-0.388549 0.00386218 -2.13104e-18)
(-0.383482 0.00407232 -2.0356e-18)
(-0.378164 0.00425822 4.24427e-18)
(-0.372625 0.00441814 6.25177e-18)
(-0.3669 0.00455077 -4.56996e-18)
(-0.361024 0.00465529 -1.17249e-18)
(-0.355033 0.00473139 -1.4351e-18)
(-0.348963 0.00477933 -1.87006e-18)
(-0.342848 0.00479983 3.57162e-18)
(-0.336723 0.00479411 6.22685e-18)
(-0.33062 0.00476375 5.82513e-18)
(-0.324569 0.00471064 4.97315e-18)
(-0.318597 0.00463691 2.62381e-18)
(-0.312729 0.00454485 4.30575e-18)
(-0.306987 0.00443685 -8.04765e-20)
(-0.301389 0.00431537 6.95682e-18)
(-0.295951 0.00418286 5.79183e-18)
(-0.290686 0.0040417 -3.19505e-19)
(-0.285602 0.00389409 3.30897e-19)
(-0.280708 0.0037419 4.94392e-19)
(-0.276008 0.00358651 9.75457e-18)
(-0.271505 0.00342869 9.85629e-18)
(-0.267203 0.00326855 -3.00841e-18)
(-0.263106 0.00310558 2.63264e-18)
(-0.259216 0.00293874 2.02098e-18)
(-0.25554 0.00276674 -4.69469e-18)
(-0.252085 0.0025884 4.049e-18)
(-0.248858 0.00240258 -2.60715e-18)
(-0.245869 0.0022098 -1.44479e-18)
(-0.243126 0.00201195 6.64672e-18)
(-0.240635 0.00181016 4.17546e-18)
(-0.238402 0.0016066 5.1045e-18)
(-0.236427 0.00140411 4.18078e-18)
(-0.234707 0.00120596 -3.72608e-18)
(-0.233234 0.00101549 1.05703e-17)
(-0.231997 0.000835877 -1.54899e-18)
(-0.230979 0.000669848 5.00837e-18)
(-0.230162 0.000519479 4.19151e-18)
(-0.229524 0.000386114 1.40138e-19)
(-0.229045 0.00027035 -3.63806e-18)
(-0.228701 0.000172095 -4.05902e-18)
(-0.228471 9.06336e-05 -5.15585e-18)
(-0.228334 2.48205e-05 1.46636e-18)
(-0.228273 -2.7804e-05 1.06944e-17)
(-0.228269 -7.10464e-05 9.45974e-18)
(-0.228306 -0.000103266 1.78495e-18)
(-0.228371 -0.000125831 6.84316e-18)
(-0.228454 -0.000139344 2.07387e-19)
(-0.228544 -0.000144508 -1.15531e-18)
(-0.228633 -0.000142371 -1.67403e-18)
(-0.228712 -0.000133674 -5.33675e-19)
(-0.228775 -0.000119015 -1.02983e-18)
(-0.228812 -9.95542e-05 -6.16155e-18)
(-0.228815 -7.39323e-05 -2.4821e-19)
(-0.228779 -3.49386e-05 -6.0269e-18)
(-0.228693 2.38429e-06 -4.15267e-18)
(-0.228543 4.63957e-05 -6.6879e-18)
(-0.228322 0.000101199 -2.35699e-18)
(-0.228016 0.000166958 8.73636e-19)
(-0.227611 0.000245107 2.47419e-19)
(-0.227091 0.00033756 6.56052e-19)
(-0.226435 0.000446606 1.49198e-18)
(-0.225621 0.000575031 1.17293e-18)
(-0.224624 0.000726227 3.97592e-18)
(-0.223412 0.000904364 -1.19928e-18)
(-0.22195 0.0011146 -2.69673e-18)
(-0.220193 0.00136343 -2.42149e-18)
(-0.21809 0.00165902 8.11967e-19)
(-0.21558 0.00201206 5.15387e-18)
(-0.212583 0.00243609 1.37278e-18)
(-0.20901 0.00294998 4.39092e-19)
(-0.20473 0.00357806 8.67498e-19)
(-0.199617 0.00435458 8.19171e-19)
(-0.193423 0.00532863 9.3181e-20)
(-0.186008 0.00656185 4.85011e-19)
(-0.176783 0.00817838 -6.24233e-19)
(-0.165806 0.0102276 -5.18186e-19)
(-0.151431 0.0131038 -1.68632e-18)
(-0.13467 0.0163864 -1.67042e-18)
(-0.111347 0.0214877 1.87282e-19)
(-0.0846502 0.0249935 3.94759e-19)
(-0.0497067 0.0286766 7.13586e-20)
(-0.0127852 0.0196908 3.41848e-19)
(-0.427934 1.91636e-06 -5.84682e-20)
(-0.42792 2.58141e-05 1.90824e-20)
(-0.427828 7.26922e-05 -1.09216e-19)
(-0.42761 0.000143958 1.93559e-19)
(-0.427214 0.00023933 -3.96092e-19)
(-0.426588 0.000357031 -7.95127e-20)
(-0.425687 0.000494218 -6.11687e-19)
(-0.424474 0.000647462 -3.26689e-19)
(-0.422919 0.000813088 -6.858e-19)
(-0.420998 0.000987431 -3.19023e-19)
(-0.418697 0.00116699 -1.70518e-19)
(-0.41601 0.00134852 -3.56195e-19)
(-0.412936 0.00152906 -6.22211e-19)
(-0.409479 0.00170592 -6.90355e-19)
(-0.405651 0.00187673 2.7635e-19)
(-0.401467 0.00203933 -4.69065e-19)
(-0.396947 0.0021918 -9.02941e-20)
(-0.392114 0.00233246 -4.20022e-18)
(-0.386996 0.0024598 -1.76878e-18)
(-0.381621 0.00257253 4.53517e-18)
(-0.376023 0.00266958 3.95703e-18)
(-0.370235 0.00275015 -2.28764e-18)
(-0.364294 0.00281374 -4.14905e-18)
(-0.358235 0.00286015 -7.83802e-19)
(-0.352095 0.00288952 -2.69059e-18)
(-0.345911 0.00290228 4.60434e-18)
(-0.339716 0.00289916 5.90473e-18)
(-0.333543 0.00288111 2.76237e-18)
(-0.327423 0.00284927 7.1395e-18)
(-0.321383 0.00280493 -2.12839e-18)