/*--------------------------------*- C++ -*----------------------------------*\
  =========                 |
  \\      /  F ield         | OpenFOAM: The Open Source CFD Toolbox
   \\    /   O peration     | Website:  https://openfoam.org
    \\  /    A nd           | Version:  7
     \\/     M anipulation  |
\*---------------------------------------------------------------------------*/
FoamFile
{
    version     2.0;
    format      ascii;
    class       volScalarField;
    location    "5";
    object      p;
}
// * * * * * * * * * * * * * * * * * * * * * * * * * * * * * * * * * * * * * //

dimensions      [0 2 -2 0 0 0 0];

internalField   nonuniform List<scalar> 
50
(
-0.404266
-0.453755
-0.579075
-0.667247
-0.804592
-0.638314
-0.395888
-0.440314
-0.555071
-0.630394
-0.770314
-0.680278
-0.432083
-0.540929
-0.620991
-0.74104
-0.696724
-0.417943
-0.517109
-0.59918
-0.711367
-0.700919
-0.404656
-0.496774
-0.576654
-0.687624
-0.68815
-0.388321
-0.474225
-0.544244
-0.676809
-0.668766
-0.372136
-0.452055
-0.505144
-0.674749
-0.620782
-0.35317
-0.423735
-0.465242
-0.6636
-0.639589
-0.394106
-0.429515
-0.593275
-0.55738
-0.37801
-0.397084
-0.493127
-1.17663
)
;

boundaryField
{
    inlet
    {
        type            zeroGradient;
    }
    outlet
    {
        type            fixedValue;
        value           nonuniform 0();
    }
    polygon
    {
        type            zeroGradient;
    }
    top
    {
        type            symmetryPlane;
    }
    bottom
    {
        type            symmetryPlane;
    }
    outside
    {
        type            slip;
    }
    procBoundary6to2
    {
        type            processor;
        value           nonuniform List<scalar> 
12
(
-0.365902
-0.360215
-0.388323
-0.388323
-0.378824
-0.369451
-0.358985
-0.348361
-0.336654
-0.334184
-0.334184
-0.323479
)
;
    }
    procBoundary6to3
    {
        type            processor;
        value           uniform -0.454473;
    }
    procBoundary6to5
    {
        type            processor;
        value           nonuniform List<scalar> 4(-0.373325 -0.37757 -0.511213 -0.698877);
    }
    procBoundary6to7
    {
        type            processor;
        value           nonuniform List<scalar> 5(-0.482211 -0.523577 -0.534759 -0.55303 -0.528369);
    }
}


// ************************************************************************* //
