/*--------------------------------*- C++ -*----------------------------------*\
  =========                 |
  \\      /  F ield         | OpenFOAM: The Open Source CFD Toolbox
   \\    /   O peration     | Website:  https://openfoam.org
    \\  /    A nd           | Version:  7
     \\/     M anipulation  |
\*---------------------------------------------------------------------------*/
FoamFile
{
    version     2.0;
    format      ascii;
    class       volVectorField;
    location    "5";
    object      U;
}
// * * * * * * * * * * * * * * * * * * * * * * * * * * * * * * * * * * * * * //

dimensions      [0 1 -1 0 0 0 0];

internalField   nonuniform List<vector> 
50
(
(1.26225 -0.145558 -1.28869e-17)
(1.23474 -0.122535 -2.85975e-18)
(1.10103 -0.10706 -1.26403e-17)
(0.684654 -0.042722 -4.23081e-17)
(0.0646076 -0.166568 3.35477e-18)
(-0.331551 -0.223596 -2.30523e-16)
(1.2645 -0.159919 2.18574e-17)
(1.2613 -0.152954 -8.65546e-18)
(1.17854 -0.154232 5.1338e-17)
(0.822882 -0.0925027 -5.13631e-17)
(0.178314 -0.145854 4.22991e-17)
(-0.332969 -0.219909 -1.71168e-17)
(1.26069 -0.164148 -1.33137e-17)
(1.19898 -0.173754 -2.95029e-17)
(0.906882 -0.126533 3.90682e-17)
(0.284496 -0.14996 6.97551e-17)
(-0.301769 -0.198977 -5.02457e-18)
(1.27144 -0.183771 -9.24978e-18)
(1.24184 -0.2048 6.25049e-19)
(1.01545 -0.160571 3.84608e-18)
(0.414156 -0.173016 1.06097e-16)
(-0.25308 -0.161184 -1.20763e-16)
(1.26481 -0.19325 -1.0791e-17)
(1.25575 -0.226178 -1.66744e-17)
(1.09863 -0.191108 -7.72165e-17)
(0.569244 -0.206938 -6.08707e-18)
(-0.185961 -0.112102 -3.80083e-17)
(1.26227 -0.204285 -8.72718e-18)
(1.27291 -0.248546 -3.97681e-18)
(1.17269 -0.217889 -5.14005e-17)
(0.738537 -0.244 -7.94019e-19)
(-0.0727659 -0.0770881 1.18738e-16)
(1.25018 -0.209534 -8.768e-18)
(1.27259 -0.265453 -1.41006e-18)
(1.22419 -0.244134 -6.57843e-18)
(0.914205 -0.28603 -2.83281e-17)
(0.0688876 -0.101739 4.4575e-17)
(1.23869 -0.213427 -8.92734e-18)
(1.26421 -0.278214 -3.94527e-18)
(1.25881 -0.267728 -2.29667e-17)
(1.07305 -0.321704 -3.68098e-17)
(0.335871 -0.164954 1.8739e-17)
(1.24293 -0.286049 1.00291e-18)
(1.27571 -0.290021 -9.04202e-18)
(1.17236 -0.36635 4.51209e-17)
(0.555259 -0.239543 -3.48345e-18)
(1.22578 -0.288833 4.82721e-19)
(1.27557 -0.295179 -3.09985e-17)
(1.21371 -0.386352 1.01049e-17)
(1.22116 -0.284967 1.05373e-17)
)
;

boundaryField
{
    inlet
    {
        type            uniformFixedValue;
        uniformValue    constant (1 0 0);
        value           nonuniform 0();
    }
    outlet
    {
        type            pressureInletOutletVelocity;
        value           nonuniform 0();
    }
    polygon
    {
        type            fixedValue;
        value           uniform (0 0 0);
    }
    top
    {
        type            symmetryPlane;
    }
    bottom
    {
        type            symmetryPlane;
    }
    outside
    {
        type            zeroGradient;
    }
    procBoundary6to2
    {
        type            processor;
        value           nonuniform List<vector> 
12
(
(1.24764 -0.142479 -2.01198e-17)
(1.24437 -0.148101 -1.8947e-17)
(1.25826 -0.166521 8.38601e-18)
(1.25826 -0.166521 8.38601e-18)
(1.25527 -0.176552 1.51393e-17)
(1.24643 -0.181607 1.34371e-17)
(1.23959 -0.187687 1.96961e-17)
(1.22931 -0.190614 2.20622e-17)
(1.21996 -0.193377 2.73726e-17)
(1.2228 -0.212815 -8.53853e-18)
(1.2228 -0.212815 -8.53853e-18)
(1.21445 -0.209348 -1.30363e-17)
)
;
    }
    procBoundary6to3
    {
        type            processor;
        value           uniform (1.28196 -0.0510769 -1.17361e-16);
    }
    procBoundary6to5
    {
        type            processor;
        value           nonuniform List<vector> 4((1.2159 -0.288615 -2.09326e-17) (1.2698 -0.287514 2.61514e-19) (1.28929 -0.544568 2.37421e-17) (1.32856 -0.453331 5.733e-18));
    }
    procBoundary6to7
    {
        type            processor;
        value           nonuniform List<vector> 5((1.20089 -0.0217252 -1.34103e-16) (0.948167 -0.0135602 -1.36265e-16) (0.41416 0.0325001 -2.40924e-17) (-0.369722 0.0170515 -1.55291e-16) (-0.738644 0.0353271 -1.42171e-16));
    }
}


// ************************************************************************* //
