/*--------------------------------*- C++ -*----------------------------------*\
  =========                 |
  \\      /  F ield         | OpenFOAM: The Open Source CFD Toolbox
   \\    /   O peration     | Website:  https://openfoam.org
    \\  /    A nd           | Version:  7
     \\/     M anipulation  |
\*---------------------------------------------------------------------------*/
FoamFile
{
    version     2.0;
    format      ascii;
    class       volScalarField;
    location    "5";
    object      p;
}
// * * * * * * * * * * * * * * * * * * * * * * * * * * * * * * * * * * * * * //

dimensions      [0 2 -2 0 0 0 0];

internalField   nonuniform List<scalar> 
125
(
-0.000438551
-0.00132004
-0.00211086
-0.00339225
-0.00307871
-0.00561539
-0.0130361
-0.0166496
-0.000437904
-0.00131891
-0.00210559
-0.00338308
-0.00305178
-0.00550997
-0.0128843
-0.0161142
-0.000437284
-0.0013177
-0.00210061
-0.00337491
-0.00302892
-0.00541473
-0.0127541
-0.0156032
-0.000436705
-0.00131659
-0.00209608
-0.00336758
-0.00300897
-0.00532949
-0.0126401
-0.0151531
-0.000436137
-0.00131552
-0.00209169
-0.00336059
-0.00298996
-0.00524778
-0.012531
-0.0147175
-0.000435575
-0.00131444
-0.00208739
-0.00335389
-0.0029717
-0.000447288
-0.00133567
-0.00238695
-0.00412854
-0.00524951
-0.0113238
-0.0195342
-0.0321328
-0.00045073
-0.00134107
-0.0023782
-0.00410599
-0.00514956
-0.0111835
-0.0196565
-0.0327995
-0.000451344
-0.00134167
-0.00236066
-0.00406104
-0.00500289
-0.0108947
-0.0194817
-0.0323083
-0.000451728
-0.00134126
-0.00233773
-0.00400162
-0.00482227
-0.010514
-0.0192365
-0.0319457
-0.000451217
-0.00133918
-0.00230874
-0.00392539
-0.00459762
-0.00999561
-0.0187173
-0.0305783
-0.000450052
-0.00133617
-0.00227586
-0.00383725
-0.00434254
-0.00937963
-0.0180996
-0.0292788
-0.000448547
-0.00133267
-0.00223963
-0.00373679
-0.00405091
-0.00862317
-0.0171377
-0.0266817
-0.00044629
-0.00132858
-0.00220186
-0.0036318
-0.00374953
-0.00779911
-0.0161334
-0.0245217
-0.000444271
-0.00132599
-0.00216696
-0.00352828
-0.00344064
-0.00687776
-0.0147492
-0.020643
-0.000442252
-0.00132436
-0.00213626
-0.0034308
-0.00319348
-0.00607048
-0.0136617
-0.0185364
)
;

boundaryField
{
    inlet
    {
        type            zeroGradient;
    }
    outlet
    {
        type            fixedValue;
        value           uniform 0;
    }
    polygon
    {
        type            zeroGradient;
    }
    top
    {
        type            symmetryPlane;
    }
    bottom
    {
        type            symmetryPlane;
    }
    outside
    {
        type            slip;
    }
    procBoundary15to10
    {
        type            processor;
        value           nonuniform List<scalar> 10(-0.0978894 -0.0966459 -0.0958161 -0.0950446 -0.094264 -0.0992464 -0.100195 -0.106078 -0.100825 -0.106761);
    }
    procBoundary15to11
    {
        type            processor;
        value           nonuniform List<scalar> 9(-0.00516863 -0.0124258 -0.0142882 -0.000435023 -0.00131337 -0.00208319 -0.00334749 -0.00516863 -0.00295424);
    }
    procBoundary15to14
    {
        type            processor;
        value           nonuniform List<scalar> 5(-0.0758169 -0.0830333 -0.0853308 -0.0909633 -0.0938012);
    }
}


// ************************************************************************* //
