/*--------------------------------*- C++ -*----------------------------------*\
  =========                 |
  \\      /  F ield         | OpenFOAM: The Open Source CFD Toolbox
   \\    /   O peration     | Website:  https://openfoam.org
    \\  /    A nd           | Version:  7
     \\/     M anipulation  |
\*---------------------------------------------------------------------------*/
FoamFile
{
    version     2.0;
    format      ascii;
    class       volVectorField;
    location    "5";
    object      U;
}
// * * * * * * * * * * * * * * * * * * * * * * * * * * * * * * * * * * * * * //

dimensions      [0 1 -1 0 0 0 0];

internalField   nonuniform List<vector> 
125
(
(1.02364 -0.000371604 -2.93988e-20)
(1.02135 -0.00120621 -1.42122e-19)
(1.01634 -0.00277303 -5.03073e-19)
(1.00512 -0.00664516 -8.82563e-20)
(0.978237 -0.0131931 -3.4891e-19)
(0.93303 -0.0245427 -9.47066e-19)
(0.849332 -0.0393388 6.22602e-19)
(0.73238 -0.0519367 1.06199e-18)
(1.02363 -0.000355075 -2.41204e-20)
(1.02131 -0.00115295 -1.39986e-19)
(1.01624 -0.00265117 -3.99036e-19)
(1.00482 -0.00635822 -1.42228e-19)
(0.977366 -0.0126391 -2.91296e-19)
(0.930755 -0.0235408 -8.21258e-19)
(0.844046 -0.0377967 3.0319e-19)
(0.721662 -0.04984 1.12598e-18)
(1.02362 -0.00033847 -2.95353e-20)
(1.02128 -0.00109927 -1.47062e-19)
(1.01614 -0.00252842 -3.28693e-19)
(1.00453 -0.00606793 -2.19518e-19)
(0.976538 -0.0120783 -2.87613e-19)
(0.928584 -0.0225273 -8.91133e-19)
(0.838997 -0.0362301 1.56259e-19)
(0.71143 -0.0477565 4.67412e-19)
(1.02361 -0.000321736 -2.11331e-20)
(1.02125 -0.00104513 -1.63954e-19)
(1.01605 -0.00240436 -2.98992e-19)
(1.00426 -0.00577347 -3.05168e-19)
(0.975753 -0.0115069 -2.96638e-19)
(0.926525 -0.0214918 -6.82025e-19)
(0.834202 -0.034618 1.13345e-19)
(0.701726 -0.0456403 -1.04241e-19)
(1.0236 -0.000304852 -1.45336e-20)
(1.02122 -0.000990435 -1.28764e-19)
(1.01596 -0.0022788 -3.00514e-19)
(1.004 -0.00547468 -2.51082e-19)
(0.975014 -0.0109241 -3.00993e-19)
(0.924581 -0.0204298 -4.37201e-19)
(0.829676 -0.0329535 2.02835e-19)
(0.692583 -0.0434499 3.77775e-20)
(1.0236 -0.000287829 -2.11506e-20)
(1.0212 -0.000935227 -1.52041e-19)
(1.01588 -0.00215185 -3.12369e-19)
(1.00376 -0.00517193 -3.31688e-19)
(0.974322 -0.0103308 -4.11737e-19)
(1.02482 -0.000953661 -1.18806e-20)
(1.02496 -0.00287192 -5.77951e-20)
(1.02514 -0.00630302 -1.86977e-19)
(1.02565 -0.0132193 -4.09545e-20)
(1.02395 -0.0242028 -3.60818e-19)
(1.02599 -0.0385926 -2.23103e-19)
(1.02188 -0.0479306 1.94563e-19)
(1.03568 -0.0436541 -6.37494e-18)
(1.02475 -0.000973347 -3.4735e-20)
(1.02478 -0.00291285 -2.4085e-19)
(1.0248 -0.00633132 -9.1755e-19)
(1.02506 -0.01325 1.84277e-19)
(1.02303 -0.0241038 -2.34111e-19)
(1.02474 -0.0386703 -3.88468e-19)
(1.02024 -0.0491404 2.09651e-19)
(1.03342 -0.0477036 -8.25146e-20)
(1.02463 -0.000968886 -3.4024e-20)
(1.02449 -0.00290069 -2.49092e-19)
(1.02422 -0.00629003 -9.36227e-19)
(1.02407 -0.0131687 1.73477e-19)
(1.02152 -0.0239216 -4.07856e-19)
(1.02293 -0.0385167 -2.81014e-19)
(1.01868 -0.0497287 6.06508e-19)
(1.0329 -0.0497185 6.58939e-18)
(1.0245 -0.000954704 -7.7374e-21)
(1.02414 -0.00286084 -6.11536e-20)
(1.02353 -0.0062018 -1.61891e-19)
(1.02283 -0.0130297 -5.61966e-20)
(1.01958 -0.0236887 -4.79941e-19)
(1.02051 -0.0383925 -5.7704e-19)
(1.01645 -0.0505566 2.46152e-19)
(1.03138 -0.0528748 -6.16758e-18)
(1.02437 -0.000922054 8.53453e-22)
(1.02377 -0.00277689 -1.25806e-20)
(1.02277 -0.00604362 -5.98872e-20)
(1.02146 -0.0128012 -5.93089e-20)
(1.01739 -0.0233999 -4.34931e-19)
(1.0177 -0.0383622 -8.05148e-19)
(1.01392 -0.0518479 3.75993e-19)
(1.02995 -0.0570551 -6.61874e-18)
(1.02423 -0.000873046 -8.47136e-21)
(1.02338 -0.0026484 -4.61301e-20)
(1.02196 -0.00580522 -1.62786e-19)
(1.01989 -0.0124421 -3.37643e-20)
(1.01469 -0.0229198 -4.0812e-19)
(1.01382 -0.0380072 -7.91633e-19)
(1.00944 -0.052409 3.10972e-19)
(1.02518 -0.0594375 -6.31118e-18)
(1.02409 -0.000803236 -2.67754e-20)
(1.02297 -0.00246814 -1.95031e-19)
(1.02103 -0.00548053 -8.14357e-19)
(1.01796 -0.0119633 1.75603e-19)
(1.01104 -0.0223678 -1.67864e-19)
(1.00801 -0.0378834 -4.76431e-19)
(1.00197 -0.054235 1.70913e-19)
(1.01653 -0.0657904 -4.85038e-19)
(1.02395 -0.000717906 -1.01684e-20)
(1.02252 -0.00223518 -5.33847e-20)
(1.01988 -0.00502773 -1.74945e-19)
(1.01521 -0.0112128 1.95765e-20)
(1.00505 -0.0212921 -2.97986e-19)
(0.996785 -0.0367679 -8.14119e-19)
(0.984105 -0.0537778 1.63803e-19)
(0.990476 -0.0661893 -4.23659e-18)
(1.02381 -0.00059953 -8.95017e-21)
(1.02202 -0.00190417 -4.40905e-20)
(1.01844 -0.00436482 -1.59911e-19)
(1.01134 -0.010035 3.75191e-20)
(0.995485 -0.0196219 1.22409e-19)
(0.976156 -0.035169 3.14169e-19)
(0.945819 -0.0544059 -1.23372e-19)
(0.926788 -0.0729373 1.66548e-19)
(1.02369 -0.000463437 -1.67251e-20)
(1.02153 -0.00149735 -1.92639e-19)
(1.01692 -0.0034353 -7.81744e-19)
(1.00685 -0.00817556 1.14483e-19)
(0.983101 -0.0160938 -2.93562e-19)
(0.945468 -0.0296365 -1.2203e-18)
(0.877564 -0.0469779 -1.04698e-19)
(0.788314 -0.0615734 1.49094e-18)
)
;

boundaryField
{
    inlet
    {
        type            uniformFixedValue;
        uniformValue    constant (1 0 0);
        value           nonuniform 0();
    }
    outlet
    {
        type            pressureInletOutletVelocity;
        value           nonuniform List<vector> 
16
(
(1.02364 -0.000371604 -2.93988e-20)
(1.02363 -0.000355075 -2.41204e-20)
(1.02362 -0.00033847 -2.95353e-20)
(1.02361 -0.000321736 -2.11331e-20)
(1.0236 -0.000304852 -1.45336e-20)
(1.0236 -0.000287829 -2.11506e-20)
(1.02482 -0.000953661 -1.18806e-20)
(1.02475 -0.000973347 -3.4735e-20)
(1.02463 -0.000968886 -3.4024e-20)
(1.0245 -0.000954704 -7.7374e-21)
(1.02437 -0.000922054 8.53453e-22)
(1.02423 -0.000873046 -8.47136e-21)
(1.02409 -0.000803236 -2.67754e-20)
(1.02395 -0.000717906 -1.01684e-20)
(1.02381 -0.00059953 -8.95017e-21)
(1.02369 -0.000463437 -1.67251e-20)
)
;
    }
    polygon
    {
        type            fixedValue;
        value           nonuniform 0();
    }
    top
    {
        type            symmetryPlane;
    }
    bottom
    {
        type            symmetryPlane;
    }
    outside
    {
        type            zeroGradient;
    }
    procBoundary15to10
    {
        type            processor;
        value           nonuniform List<vector> 10((0.582405 -0.0558095 6.96177e-18) (0.564455 -0.0520326 4.14953e-18) (0.547648 -0.0486721 1.51306e-18) (0.532026 -0.0453643 -9.57552e-19) (0.517614 -0.042117 -3.846e-18) (1.07297 -0.0687268 -2.59946e-17) (1.0667 -0.0852025 -2.94775e-18) (1.03532 -0.0864621 -2.25127e-17) (0.934538 -0.106491 -1.59216e-18) (0.675375 -0.0791597 2.50484e-17));
    }
    procBoundary15to11
    {
        type            processor;
        value           nonuniform List<vector> 9((0.922759 -0.0193432 -4.08532e-19) (0.825429 -0.0312408 3.83358e-19) (0.684025 -0.0411915 1.51534e-19) (1.02359 -0.000270679 -2.09746e-20) (1.02117 -0.000879547 -1.69329e-19) (1.0158 -0.00202365 -3.37678e-19) (1.00353 -0.00486561 -3.75884e-19) (0.922759 -0.0193432 -4.08532e-19) (0.973677 -0.00972805 -4.95157e-19));
    }
    procBoundary15to14
    {
        type            processor;
        value           nonuniform List<vector> 5((1.06109 -0.0227213 -1.52464e-17) (1.06246 -0.0348387 3.58681e-19) (1.0665 -0.0406097 2.19686e-17) (1.06985 -0.0504377 -1.63238e-17) (1.0735 -0.0615037 -2.43269e-17));
    }
}


// ************************************************************************* //
