/*--------------------------------*- C++ -*----------------------------------*\
  =========                 |
  \\      /  F ield         | OpenFOAM: The Open Source CFD Toolbox
   \\    /   O peration     | Website:  https://openfoam.org
    \\  /    A nd           | Version:  7
     \\/     M anipulation  |
\*---------------------------------------------------------------------------*/
FoamFile
{
    version     2.0;
    format      ascii;
    class       volScalarField;
    location    "72";
    object      p;
}
// * * * * * * * * * * * * * * * * * * * * * * * * * * * * * * * * * * * * * //

dimensions      [0 2 -2 0 0 0 0];

internalField   nonuniform List<scalar> 
125
(
-0.026464
-0.0272279
-0.0280276
-0.0288622
-0.029731
-0.0306332
-0.0315681
-0.0325352
-0.033534
-0.034564
-0.0356246
-0.0367156
-0.0231311
-0.0236958
-0.0243014
-0.0249467
-0.0256307
-0.0263522
-0.0271102
-0.0279039
-0.0287323
-0.0295947
-0.0304903
-0.0314186
-0.0323788
-0.0333705
-0.0343931
-0.0354461
-0.0365291
-0.0230292
-0.0235879
-0.0241873
-0.0248263
-0.0255038
-0.0262189
-0.0269704
-0.0277575
-0.0285792
-0.0294349
-0.0303238
-0.0312452
-0.0321984
-0.033183
-0.0341983
-0.0352438
-0.0363189
-0.0228933
-0.0234454
-0.0240384
-0.0246709
-0.0253421
-0.0260508
-0.026796
-0.027577
-0.0283927
-0.0292425
-0.0301255
-0.0310411
-0.0319886
-0.0329674
-0.0339768
-0.0350162
-0.036085
-0.0226991
-0.0232454
-0.0238327
-0.0244598
-0.0251258
-0.0258296
-0.0265703
-0.027347
-0.0281589
-0.0290051
-0.0298848
-0.0307974
-0.0317421
-0.0327181
-0.0337249
-0.0347614
-0.0358271
-0.0224151
-0.0229577
-0.0235417
-0.0241661
-0.0248299
-0.0255322
-0.0262721
-0.0270485
-0.0278607
-0.0287078
-0.029589
-0.0305034
-0.0314503
-0.0324287
-0.0334379
-0.0344768
-0.0355444
-0.0220029
-0.0225459
-0.0231313
-0.0237581
-0.0244253
-0.0251319
-0.0258771
-0.0266598
-0.0274791
-0.0283342
-0.0292239
-0.0301474
-0.0311038
-0.0320919
-0.0331106
-0.0341587
-0.0352349
-0.0214198
-0.0219705
-0.022565
-0.0232022
-0.0238813
-0.0246013
-0.025361
-0.0261595
-0.0269957
-0.0278684
-0.0287765
)
;

boundaryField
{
    inlet
    {
        type            zeroGradient;
    }
    outlet
    {
        type            fixedValue;
        value           nonuniform 0();
    }
    polygon
    {
        type            zeroGradient;
    }
    top
    {
        type            symmetryPlane;
    }
    bottom
    {
        type            symmetryPlane;
    }
    outside
    {
        type            slip;
    }
    procBoundary12to4
    {
        type            processor;
        value           nonuniform List<scalar> 
18
(
-0.0297188
-0.030694
-0.0317008
-0.0327378
-0.0338033
-0.0348956
-0.020624
-0.0211931
-0.0218078
-0.0224673
-0.0231705
-0.0239162
-0.0247032
-0.0255302
-0.0263958
-0.0272986
-0.0297188
-0.0282371
)
;
    }
    procBoundary12to5
    {
        type            processor;
        value           uniform -0.0209138;
    }
    procBoundary12to11
    {
        type            processor;
        value           nonuniform List<scalar> 7(-0.0378365 -0.0376416 -0.037423 -0.0371823 -0.0369208 -0.0366395 -0.0363376);
    }
    procBoundary12to13
    {
        type            processor;
        value           nonuniform List<scalar> 6(-0.0226085 -0.0225126 -0.022383 -0.0221948 -0.021915 -0.0215031);
    }
    procBoundary12to20
    {
        type            processor;
        value           nonuniform List<scalar> 
18
(
-0.0265632
-0.0273318
-0.0281365
-0.0289762
-0.0298503
-0.030758
-0.0316987
-0.0326719
-0.0336769
-0.0347134
-0.0357808
-0.0368789
-0.0232156
-0.0237855
-0.0243964
-0.0250472
-0.0257367
-0.0257367
)
;
    }
}


// ************************************************************************* //
