/*--------------------------------*- C++ -*----------------------------------*\
  =========                 |
  \\      /  F ield         | OpenFOAM: The Open Source CFD Toolbox
   \\    /   O peration     | Website:  https://openfoam.org
    \\  /    A nd           | Version:  7
     \\/     M anipulation  |
\*---------------------------------------------------------------------------*/
FoamFile
{
    version     2.0;
    format      ascii;
    class       surfaceScalarField;
    location    "70";
    object      phi;
}
// * * * * * * * * * * * * * * * * * * * * * * * * * * * * * * * * * * * * * //

dimensions      [0 3 -1 0 0 0 0];

internalField   nonuniform List<scalar> 
321
(
0.000406159
2.42615e-06
0.000405276
2.95665e-06
0.000404276
3.71245e-06
0.000403134
4.70692e-06
0.000401826
5.96223e-06
7.50644e-06
0.000219705
-6.17316e-05
0.00021238
-7.04478e-05
0.000204463
-8.0492e-05
0.000195899
-9.21822e-05
0.000186623
-0.000105713
0.00017657
-0.000121672
-0.000140233
0.000279475
-1.57789e-05
0.000276311
-1.74768e-05
0.000272913
-1.95569e-05
0.00026926
-2.20452e-05
0.000265328
-2.49783e-05
0.000261092
-2.84038e-05
0.000256524
-3.23792e-05
0.000251592
-3.69795e-05
0.000246262
-4.22872e-05
0.000240496
-4.84177e-05
0.000234251
-5.54863e-05
0.000227478
-6.36754e-05
0.000220125
-7.31385e-05
0.00021213
-8.41874e-05
0.000203426
-9.70089e-05
0.000193936
-0.000112183
0.000183576
-0.000129873
-0.000151259
0.000288817
-1.31625e-05
0.000286004
-1.46638e-05
0.000282974
-1.65275e-05
0.000279707
-1.8778e-05
0.000276179
-2.14502e-05
0.000272364
-2.45892e-05
0.000268235
-2.82499e-05
0.00026376
-3.25041e-05
0.000258903
-3.74309e-05
0.000253627
-4.31412e-05
0.000247886
-4.97456e-05
0.000241632
-5.74209e-05
0.000234807
-6.63137e-05
0.000227348
-7.67283e-05
0.000219181
-8.88421e-05
0.000210223
-0.000103225
0.000200379
-0.000120028
-0.00014042
0.000297582
-1.08575e-05
0.000295097
-1.21785e-05
0.000292411
-1.38422e-05
0.000289505
-1.58715e-05
0.000286354
-1.82992e-05
0.000282933
-2.11683e-05
0.000279214
-2.45308e-05
0.000275165
-2.84552e-05
0.000270751
-3.30169e-05
0.000265932
-3.83224e-05
0.000260663
-4.44768e-05
0.000254893
-5.16507e-05
0.000248563
-5.99834e-05
0.000241604
-6.97702e-05
0.00023394
-8.11782e-05
0.00022548
-9.47648e-05
0.000216119
-0.000110667
-0.000130034
0.00030579
-8.84282e-06
0.00030361
-9.99876e-06
0.000301246
-1.14779e-05
0.000298676
-1.33013e-05
0.000295877
-1.55002e-05
0.000292823
-1.81149e-05
0.000289487
-2.11947e-05
0.000285837
-2.48048e-05
0.000281836
-2.90165e-05
0.000277445
-3.39314e-05
0.000272617
-3.96491e-05
0.0002673
-4.63333e-05
0.000261432
-5.41155e-05
0.000254943
-6.32808e-05
0.000247749
-7.3985e-05
0.000239755
-8.67701e-05
0.000230845
-0.000101757
-0.000120073
0.000313454
-7.0977e-06
0.000311558
-8.10311e-06
0.000309493
-9.41213e-06
0.000307236
-1.10443e-05
0.000304764
-1.30289e-05
0.000302053
-1.54038e-05
0.000299074
-1.82155e-05
0.000295795
-2.15257e-05
0.00029218
-2.54014e-05
0.000288188
-2.99392e-05
0.000283771
-3.52329e-05
0.000278877
-4.14387e-05
0.000273441
-4.86796e-05
0.00026739
-5.72296e-05
0.000260637
-6.72322e-05
0.000253079
-7.92117e-05
0.000244594
-9.32725e-05
-0.00011051
0.000320589
-5.60228e-06
0.000318957
-6.47073e-06
0.000317168
-7.62322e-06
0.000315201
-9.07772e-06
0.000313034
-1.08617e-05
0.000310641
-1.30105e-05
0.000307993
-1.55679e-05
0.000305059
-1.85916e-05
0.000301802
-2.21447e-05
0.000298181
-2.63183e-05
0.000294148
-3.11999e-05
0.000289648
-3.6938e-05
0.000284615
-4.36467e-05
0.000278973
-5.15874e-05
0.000272632
-6.08913e-05
0.000265482
-7.20619e-05
0.000257396
-8.51861e-05
-0.000101323
0.000327209
-4.33744e-06
0.00032582
-5.08166e-06
0.000324287
-6.09035e-06
0.000322589
-7.37992e-06
0.000320704
-8.976e-06
0.000318605
-1.09116e-05
0.000316264
-1.32275e-05
0.00031365
-1.59776e-05
0.000310726
-1.92205e-05
0.00030745
-2.30418e-05
0.000303772
-2.75229e-05
0.000299638
-3.28034e-05
0.00029498
-3.89887e-05
0.000289719
-4.63265e-05
0.000283763
-5.49349e-05
0.000276995
-6.52944e-05
0.000269283
-7.74742e-05
-9.24908e-05
0.000333329
-3.28483e-06
0.000332164
-3.91669e-06
0.000330867
-4.79344e-06
0.000329417
-5.92995e-06
0.000327791
-7.35011e-06
0.000325964
-9.08444e-06
0.000323907
-1.11708e-05
0.000321589
-1.36591e-05
0.000318972
-1.66037e-05
0.000316015
-2.00842e-05
0.000312667
-2.41755e-05
0.000308872
-2.90085e-05
0.000304563
-3.4679e-05
0.000299656
-4.14203e-05
0.000294059
-4.93371e-05
0.000287649
-5.88847e-05
0.000280289
-7.01144e-05
-8.39945e-05
0.000338953
0.000337993
0.000336912
0.000335689
0.000334301
0.000332723
0.000330927
0.00032888
0.000326546
0.000323882
0.000320838
0.000317357
0.000313369
0.000308791
0.000303527
0.000297451
0.000290421
)
;

boundaryField
{
    inlet
    {
        type            calculated;
        value           nonuniform 0();
    }
    outlet
    {
        type            calculated;
        value           nonuniform 0();
    }
    polygon
    {
        type            calculated;
        value           nonuniform 0();
    }
    top
    {
        type            symmetryPlane;
        value           uniform 0;
    }
    bottom
    {
        type            symmetryPlane;
        value           uniform 0;
    }
    outside
    {
        type            calculated;
        value           nonuniform 0();
    }
    procBoundary43to34
    {
        type            processor;
        value           nonuniform List<scalar> 4(0.000248209 0.000260451 0.000271793 0.000282243);
    }
    procBoundary43to35
    {
        type            processor;
        value           nonuniform List<scalar> 
19
(
-1.63913e-06
-2.07395e-06
-2.71193e-06
-3.56518e-06
-4.6544e-06
0.000400325
-6.00513e-06
-9.37444e-06
-1.16122e-05
-1.42695e-05
-1.742e-05
-2.1132e-05
-2.55269e-05
-3.06913e-05
-3.68427e-05
-4.40726e-05
-5.28088e-05
-6.30848e-05
-7.5816e-05
)
;
    }
    procBoundary43to36
    {
        type            processor;
        value           nonuniform List<scalar> 2(-0.000406946 -0.000339812);
    }
    procBoundary43to42
    {
        type            processor;
        value           nonuniform List<scalar> 7(0.000165663 0.000162581 0.000172253 0.000189541 0.000205733 0.000220884 0.000235031);
    }
    procBoundary43to44
    {
        type            processor;
        value           nonuniform List<scalar> 8(-0.000282425 -0.000291433 -0.000299887 -0.000307804 -0.000315199 -0.000322084 -0.000328474 -0.000334382);
    }
    procBoundary43to51
    {
        type            processor;
        value           nonuniform List<scalar> 
18
(
1.87293e-05
2.06411e-05
2.29549e-05
2.56984e-05
2.89101e-05
3.26398e-05
3.69475e-05
4.19112e-05
4.76169e-05
-0.000226488
5.41837e-05
6.85154e-05
7.77723e-05
8.84086e-05
0.000100747
0.000114989
0.000131725
0.00015114
)
;
    }
}


// ************************************************************************* //
