/*--------------------------------*- C++ -*----------------------------------*\
  =========                 |
  \\      /  F ield         | OpenFOAM: The Open Source CFD Toolbox
   \\    /   O peration     | Website:  https://openfoam.org
    \\  /    A nd           | Version:  7
     \\/     M anipulation  |
\*---------------------------------------------------------------------------*/
FoamFile
{
    version     2.0;
    format      ascii;
    class       volVectorField;
    location    "15";
    object      U;
}
// * * * * * * * * * * * * * * * * * * * * * * * * * * * * * * * * * * * * * //

dimensions      [0 1 -1 0 0 0 0];

internalField   nonuniform List<vector> 
75
(
(1.17899 -0.10014 1.49073e-17)
(1.18521 -0.104817 -6.01323e-18)
(1.1901 -0.102964 -5.81972e-18)
(1.20075 -0.105482 -3.69779e-18)
(1.21557 -0.0987984 -1.11479e-17)
(1.23835 -0.0929835 1.13156e-17)
(1.17876 -0.100761 1.67861e-17)
(1.18499 -0.106442 -7.18414e-18)
(1.18987 -0.105299 -5.0868e-18)
(1.2006 -0.109279 1.12381e-17)
(1.21566 -0.104734 -1.28285e-17)
(1.23936 -0.102638 1.44786e-17)
(1.17807 -0.100877 1.98877e-17)
(1.18424 -0.107417 -8.15197e-18)
(1.18911 -0.10676 2.02269e-17)
(1.19991 -0.111752 8.65195e-18)
(1.21526 -0.108474 -2.39473e-19)
(1.23966 -0.108432 1.59075e-17)
(1.17741 -0.101126 1.09011e-17)
(1.18351 -0.108616 -9.48573e-18)
(1.18832 -0.108542 2.05433e-18)
(1.19911 -0.114749 -2.10139e-18)
(1.21462 -0.113102 -2.11403e-17)
(1.23939 -0.115783 3.89714e-18)
(1.17657 -0.101273 1.68921e-17)
(1.18256 -0.109712 -1.02314e-17)
(1.18729 -0.110187 8.74804e-18)
(1.19799 -0.117543 1.67277e-17)
(1.21352 -0.117358 -1.81713e-17)
(1.2383 -0.122393 -6.82868e-18)
(1.17563 -0.101394 1.89151e-17)
(1.18147 -0.110812 1.1995e-18)
(1.18606 -0.111846 -5.96923e-18)
(1.19659 -0.120381 9.22006e-19)
(1.21202 -0.121686 -2.2775e-17)
(1.2365 -0.129136 -4.54223e-18)
(1.17455 -0.101453 8.44815e-18)
(1.18019 -0.111863 -2.67506e-18)
(1.18459 -0.113442 -2.05877e-18)
(1.19485 -0.123134 8.06039e-18)
(1.20998 -0.125849 -9.16647e-18)
(1.23372 -0.135571 -6.69064e-18)
(1.17333 -0.101454 1.17596e-18)
(1.17874 -0.112866 -2.24966e-18)
(1.18289 -0.114975 -3.8732e-18)
(1.19275 -0.1258 7.4507e-18)
(1.20737 -0.129853 -1.51396e-17)
(1.2299 -0.141756 -2.41568e-17)
(1.17197 -0.101387 4.61984e-18)
(1.17716 -0.113806 -2.42138e-18)
(1.18105 -0.116417 -4.66058e-18)
(1.19054 -0.128329 -3.79416e-18)
(1.2046 -0.133587 -1.38618e-17)
(1.22576 -0.147501 -5.83779e-18)
(1.17048 -0.101256 -9.39661e-18)
(1.17551 -0.114696 -1.61029e-17)
(1.17933 -0.117793 8.4112e-18)
(1.18869 -0.130756 -1.56363e-17)
(1.20267 -0.13711 -1.7089e-17)
(1.2233 -0.152914 2.39226e-18)
(1.0654 0.0353059 3.50386e-18)
(1.1428 -0.00825122 -5.38974e-19)
(1.21431 -0.0966024 -6.9317e-19)
(1.06863 0.0277541 2.96026e-17)
(1.14271 -0.0208439 1.25255e-18)
(1.21152 -0.102429 6.09608e-17)
(1.06805 0.017116 -3.11076e-18)
(1.13586 -0.03085 -4.35942e-17)
(1.20526 -0.104198 7.10573e-17)
(1.06502 0.0134711 -5.44153e-18)
(1.12985 -0.0382329 -5.05608e-17)
(1.20208 -0.10764 1.20775e-17)
(1.06307 0.00102334 -1.70951e-18)
(1.12063 -0.0532928 -1.11651e-17)
(1.19535 -0.111706 -5.26979e-17)
)
;

boundaryField
{
    inlet
    {
        type            uniformFixedValue;
        uniformValue    constant (1 0 0);
        value           nonuniform 0();
    }
    outlet
    {
        type            pressureInletOutletVelocity;
        value           nonuniform 0();
    }
    polygon
    {
        type            fixedValue;
        value           nonuniform 0();
    }
    top
    {
        type            symmetryPlane;
    }
    bottom
    {
        type            symmetryPlane;
    }
    outside
    {
        type            zeroGradient;
    }
    procBoundary2to1
    {
        type            processor;
        value           nonuniform List<vector> 6((1.16884 -0.101068 -6.08898e-18) (1.17374 -0.115578 -1.53863e-17) (1.17769 -0.119181 -7.36754e-18) (1.18716 -0.133218 -1.39029e-17) (1.20157 -0.140677 -4.37407e-18) (1.2226 -0.158457 -1.80403e-17));
    }
    procBoundary2to3
    {
        type            processor;
        value           nonuniform List<vector> 5((1.00998 0.0422593 -1.04422e-18) (1.01558 0.0372414 -1.23474e-17) (1.01805 0.0303368 -9.73247e-19) (1.01818 0.0274883 -6.09378e-19) (1.02 0.0191532 -5.0949e-19));
    }
    procBoundary2to6
    {
        type            processor;
        value           nonuniform List<vector> 
14
(
(1.26118 -0.066016 -3.29644e-17)
(1.20955 -0.0934322 2.63643e-18)
(1.26669 -0.0819053 -1.97008e-17)
(1.26982 -0.0908584 -2.83012e-17)
(1.27227 -0.102646 -1.07452e-17)
(1.27287 -0.113074 -3.05122e-19)
(1.2723 -0.123835 -5.56159e-18)
(1.26988 -0.134116 -3.72949e-18)
(1.26556 -0.144138 -5.01949e-18)
(1.26044 -0.153512 1.30024e-17)
(1.2582 -0.162128 9.77235e-18)
(1.0482 0.0442846 5.29009e-19)
(1.12962 6.37111e-05 1.16621e-19)
(1.20955 -0.0934322 2.63643e-18)
)
;
    }
}


// ************************************************************************* //
