/*--------------------------------*- C++ -*----------------------------------*\
  =========                 |
  \\      /  F ield         | OpenFOAM: The Open Source CFD Toolbox
   \\    /   O peration     | Website:  https://openfoam.org
    \\  /    A nd           | Version:  7
     \\/     M anipulation  |
\*---------------------------------------------------------------------------*/
FoamFile
{
    version     2.0;
    format      ascii;
    class       volScalarField;
    location    "104";
    object      p;
}
// * * * * * * * * * * * * * * * * * * * * * * * * * * * * * * * * * * * * * //

dimensions      [0 2 -2 0 0 0 0];

internalField   nonuniform List<scalar> 
4000
(
0.004436
0.0143809
0.0179145
0.0240629
0.027369
0.0311718
0.0332969
0.0352906
0.0354059
0.0352119
0.0317294
0.0285353
0.0179727
0.00964826
-0.0154962
-0.0435931
-0.106503
-0.220163
-0.384574
-0.903758
-0.0054448
0.00412967
0.00740983
0.0129146
0.0157123
0.0187471
0.0200728
0.0208866
0.0196224
0.0174457
0.0117865
0.0049022
-0.00986641
-0.0275806
-0.0611242
-0.0959598
-0.151248
-0.165339
-0.250042
-0.0289582
-0.0146948
-0.00526284
-0.00220818
0.00287368
0.00514834
0.00747302
0.007825
0.00729622
0.0043392
-0.000296685
-0.00889626
-0.0207738
-0.0411774
-0.0675323
-0.107678
-0.148732
-0.203233
-0.255179
-0.303733
-0.443701
-0.0235472
-0.0143485
-0.0115917
-0.00696226
-0.00528744
-0.00377719
-0.00450896
-0.00647351
-0.0111271
-0.0182508
-0.0301857
-0.0468904
-0.0721278
-0.103654
-0.143588
-0.176799
-0.212788
-0.20947
-0.267192
-0.152426
-0.0321449
-0.0232975
-0.0209099
-0.0167912
-0.0157481
-0.0150618
-0.0168179
-0.0201274
-0.0264915
-0.0360785
-0.0511019
-0.0719195
-0.100905
-0.13485
-0.170833
-0.195152
-0.218319
-0.243942
-0.248185
-0.269044
-0.0404868
-0.0320536
-0.0300699
-0.0265091
-0.0261419
-0.0263528
-0.0291867
-0.0340308
-0.0425682
-0.0549719
-0.0730405
-0.0970113
-0.12753
-0.159881
-0.18721
-0.200704
-0.219582
-0.212848
-0.232964
-0.183217
-0.0485363
-0.0405535
-0.0389803
-0.0359951
-0.0362861
-0.0373499
-0.0411827
-0.047274
-0.0572269
-0.0712665
-0.0910413
-0.116729
-0.147463
-0.176607
-0.196463
-0.206325
-0.217568
-0.222314
-0.21928
-0.21124
-0.0562658
-0.0487668
-0.0476047
-0.0452287
-0.0461798
-0.0481068
-0.0530976
-0.0607973
-0.0728427
-0.0894038
-0.111549
-0.13875
-0.168118
-0.191682
-0.204809
-0.211086
-0.217615
-0.207088
-0.20856
-0.181937
-0.0636714
-0.0567007
-0.0559308
-0.0541902
-0.0557395
-0.0584734
-0.0643032
-0.0727984
-0.085302
-0.101744
-0.122951
-0.148593
-0.176043
-0.19638
-0.207455
-0.211429
-0.212459
-0.204353
-0.200038
-0.183248
-0.0707259
-0.0643315
-0.0639128
-0.0628532
-0.0649693
-0.0685859
-0.0753776
-0.0852095
-0.0996218
-0.118601
-0.142789
-0.171791
-0.200727
-0.221434
-0.228287
-0.2214
-0.210271
-0.193934
-0.187212
-0.164953
0.107564
0.125258
0.131789
0.146739
0.156808
0.171835
0.185176
0.20216
0.220141
0.242137
0.26717
0.29793
0.332945
0.376653
0.424214
0.48488
0.541052
0.627045
0.672802
0.814832
0.097321
0.114559
0.120519
0.134785
0.143835
0.15778
0.169605
0.184806
0.200337
0.219421
0.240513
0.267072
0.296265
0.334209
0.371499
0.427388
0.465249
0.551584
0.567467
0.704257
0.087147
0.103659
0.109169
0.122436
0.130566
0.143202
0.153561
0.166959
0.180269
0.196871
0.214827
0.238322
0.263586
0.299369
0.333081
0.389038
0.425691
0.511549
0.532669
0.652566
0.0770223
0.0927527
0.0978843
0.110218
0.117532
0.128972
0.137986
0.149728
0.160932
0.175095
0.189708
0.209668
0.229495
0.261034
0.285877
0.339135
0.361757
0.452087
0.458641
0.590518
0.0668072
0.0817492
0.0865098
0.0979432
0.104462
0.114712
0.122377
0.13241
0.141413
0.152957
0.163982
0.180126
0.194443
0.221266
0.239011
0.286344
0.304838
0.381987
0.397829
0.505218
0.0564662
0.0706053
0.0750078
0.0855313
0.091283
0.100328
0.106675
0.115
0.121835
0.130763
0.138293
0.15054
0.159599
0.181292
0.191982
0.234039
0.242679
0.324628
0.327005
0.480353
0.0460533
0.0593713
0.0634567
0.0730658
0.0781129
0.0859702
0.0910947
0.0977668
0.102562
0.108857
0.113047
0.121176
0.124966
0.140029
0.143848
0.173947
0.176634
0.223151
0.235886
0.309461
0.0356127
0.0480946
0.051925
0.0606376
0.0650772
0.0717902
0.075833
0.0809547
0.0839306
0.0880868
0.0893795
0.0941991
0.092704
0.103055
0.0987885
0.12811
0.119501
0.19931
0.178634
0.421263
0.0252064
0.036844
0.0405031
0.0483322
0.0522611
0.0578811
0.0610183
0.0647584
0.066397
0.0687314
0.0676731
0.0690642
0.0631383
0.0656133
0.0527467
0.0616587
0.0396547
0.0270538
-0.0100612
-0.0612406
0.0148014
0.0255864
0.0291659
0.0361481
0.0397144
0.0443266
0.0467923
0.0494792
0.0501195
0.0510011
0.0481908
0.0473461
0.0385572
0.0382962
0.0232954
0.0402844
0.0396676
0.133238
0.139978
0.472967
0.0148014
0.0255863
0.0291659
0.0361481
0.0397144
0.0443266
0.0467923
0.0494792
0.0501196
0.0510012
0.0481908
0.0473462
0.0385572
0.0382962
0.0232955
0.0402845
0.0396676
0.133238
0.139979
0.472967
0.0252064
0.036844
0.0405031
0.0483322
0.0522611
0.0578811
0.0610183
0.0647584
0.066397
0.0687314
0.0676731
0.0690643
0.0631383
0.0656133
0.0527468
0.0616587
0.0396547
0.0270538
-0.0100611
-0.0612405
0.0356127
0.0480946
0.051925
0.0606376
0.0650772
0.0717902
0.0758331
0.0809547
0.0839306
0.0880868
0.0893795
0.0941991
0.092704
0.103055
0.0987886
0.12811
0.119501
0.19931
0.178634
0.421263
0.0460532
0.0593713
0.0634567
0.0730658
0.0781129
0.0859702
0.0910947
0.0977668
0.102562
0.108857
0.113047
0.121176
0.124966
0.140029
0.143848
0.173947
0.176634
0.223151
0.235886
0.309461
0.0564662
0.0706053
0.0750077
0.0855313
0.091283
0.100328
0.106675
0.115
0.121835
0.130763
0.138293
0.15054
0.159599
0.181292
0.191982
0.234039
0.242679
0.324628
0.327005
0.480353
0.0668072
0.0817492
0.0865098
0.0979432
0.104462
0.114712
0.122377
0.13241
0.141413
0.152957
0.163982
0.180126
0.194443
0.221266
0.239011
0.286344
0.304838
0.381987
0.397829
0.505218
0.0770223
0.0927527
0.0978843
0.110218
0.117532
0.128972
0.137986
0.149728
0.160932
0.175095
0.189708
0.209668
0.229495
0.261034
0.285877
0.339135
0.361757
0.452088
0.458641
0.590519
0.087147
0.103659
0.109169
0.122436
0.130566
0.143202
0.153561
0.166959
0.180269
0.196871
0.214827
0.238322
0.263586
0.299369
0.333081
0.389038
0.425691
0.511549
0.532669
0.652566
0.097321
0.114559
0.120519
0.134785
0.143835
0.15778
0.169605
0.184806
0.200337
0.219421
0.240513
0.267072
0.296265
0.334209
0.371499
0.427388
0.465249
0.551584
0.567467
0.704257
0.107564
0.125258
0.131789
0.146739
0.156808
0.171835
0.185176
0.20216
0.220141
0.242137
0.26717
0.29793
0.332945
0.376653
0.424214
0.48488
0.541052
0.627045
0.672802
0.814832
-0.070726
-0.0643316
-0.0639129
-0.0628532
-0.0649694
-0.0685859
-0.0753775
-0.0852095
-0.0996218
-0.118601
-0.142789
-0.171791
-0.200726
-0.221434
-0.228287
-0.2214
-0.210271
-0.193934
-0.187212
-0.164953
-0.0636715
-0.0567008
-0.0559308
-0.0541902
-0.0557395
-0.0584734
-0.0643032
-0.0727984
-0.085302
-0.101744
-0.12295
-0.148593
-0.176043
-0.19638
-0.207455
-0.211429
-0.212459
-0.204353
-0.200038
-0.183248
-0.0562659
-0.0487668
-0.0476047
-0.0452287
-0.0461798
-0.0481068
-0.0530976
-0.0607973
-0.0728427
-0.0894038
-0.111549
-0.13875
-0.168118
-0.191682
-0.204809
-0.211086
-0.217614
-0.207088
-0.20856
-0.181937
-0.0485363
-0.0405536
-0.0389804
-0.0359952
-0.0362861
-0.0373499
-0.0411826
-0.047274
-0.0572268
-0.0712664
-0.0910413
-0.116728
-0.147463
-0.176607
-0.196463
-0.206325
-0.217568
-0.222314
-0.21928
-0.21124
-0.0404868
-0.0320536
-0.0300699
-0.0265091
-0.0261419
-0.0263528
-0.0291867
-0.0340308
-0.0425681
-0.0549719
-0.0730405
-0.0970112
-0.12753
-0.159881
-0.18721
-0.200704
-0.219582
-0.212848
-0.232964
-0.183217
-0.0321449
-0.0232975
-0.0209099
-0.0167912
-0.0157481
-0.0150618
-0.0168179
-0.0201273
-0.0264914
-0.0360785
-0.0511019
-0.0719195
-0.100905
-0.13485
-0.170833
-0.195152
-0.218319
-0.243942
-0.248184
-0.269044
-0.0235472
-0.0143485
-0.0115917
-0.00696227
-0.00528745
-0.00377719
-0.00450896
-0.0064735
-0.011127
-0.0182508
-0.0301857
-0.0468904
-0.0721277
-0.103654
-0.143588
-0.176799
-0.212787
-0.20947
-0.267192
-0.152426
-0.0146948
-0.00526287
-0.00220819
0.00287367
0.00514833
0.00747301
0.007825
0.00729623
0.00433922
-0.00029666
-0.00889623
-0.0207737
-0.0411774
-0.0675323
-0.107678
-0.148732
-0.203233
-0.255179
-0.303733
-0.443701
-0.00544482
0.00412965
0.00740981
0.0129146
0.0157123
0.0187471
0.0200728
0.0208866
0.0196224
0.0174457
0.0117865
0.00490224
-0.00986637
-0.0275805
-0.0611242
-0.0959598
-0.151247
-0.165339
-0.250042
-0.0289581
0.00443598
0.0143809
0.0179145
0.0240629
0.027369
0.0311718
0.0332969
0.0352906
0.0354059
0.035212
0.0317294
0.0285353
0.0179727
0.0096483
-0.0154962
-0.043593
-0.106503
-0.220163
-0.384574
-0.903758
0.14048
0.158724
0.167327
0.181916
0.194578
0.209402
0.224817
0.241953
0.260903
0.282203
0.306303
0.33391
0.365693
0.402346
0.4439
0.490624
0.540595
0.595074
0.64523
0.694137
0.183656
0.19997
0.208595
0.222438
0.23552
0.250542
0.266854
0.28482
0.304519
0.326126
0.349709
0.37529
0.402737
0.43181
0.462058
0.492902
0.522767
0.552524
0.574324
0.595927
0.219989
0.234333
0.241881
0.253776
0.264906
0.277328
0.290468
0.304508
0.319496
0.335477
0.352456
0.370369
0.389098
0.408389
0.42789
0.446907
0.464966
0.480569
0.492821
0.500421
0.24731
0.259233
0.265742
0.276002
0.285703
0.296518
0.307911
0.319941
0.332542
0.345624
0.359068
0.372722
0.38638
0.399797
0.412647
0.424609
0.435159
0.44398
0.450248
0.453838
0.268222
0.27753
0.282524
0.290354
0.297634
0.305661
0.314016
0.322725
0.331738
0.340983
0.350373
0.35979
0.369093
0.378096
0.386596
0.394323
0.401044
0.406421
0.410249
0.412252
0.284023
0.291461
0.295507
0.301852
0.307769
0.314268
0.32097
0.327879
0.334919
0.342006
0.349049
0.355946
0.362582
0.368837
0.374575
0.379667
0.383962
0.387342
0.389669
0.390865
0.295345
0.300741
0.303664
0.30824
0.312492
0.317139
0.321913
0.326812
0.331782
0.336765
0.341696
0.346504
0.35111
0.355426
0.359363
0.362827
0.365732
0.367993
0.369548
0.370339
0.304012
0.308287
0.310597
0.314216
0.317558
0.321196
0.324902
0.328672
0.332455
0.3362
0.339856
0.343368
0.346682
0.349742
0.352493
0.354884
0.356864
0.358392
0.359431
0.359957
0.310016
0.312987
0.314605
0.317137
0.319486
0.322041
0.324645
0.327296
0.329955
0.33259
0.335161
0.337632
0.339963
0.342113
0.344045
0.34572
0.347105
0.348171
0.348896
0.349263
0.314668
0.317031
0.318301
0.32029
0.322116
0.324094
0.326094
0.328115
0.330125
0.332099
0.334009
0.335826
0.337524
0.339077
0.340461
0.341653
0.342632
0.343382
0.34389
0.344147
0.317825
0.319425
0.320295
0.321662
0.322925
0.324298
0.325691
0.327103
0.328512
0.329899
0.331243
0.332526
0.333727
0.334827
0.335808
0.336654
0.337349
0.337882
0.338242
0.338424
0.320309
0.321594
0.322282
0.323359
0.324344
0.325408
0.32648
0.327558
0.328626
0.32967
0.330676
0.331628
0.332514
0.333321
0.334037
0.334651
0.335154
0.335538
0.335797
0.335928
0.321961
0.322816
0.323278
0.32401
0.324682
0.325414
0.326155
0.326904
0.32765
0.328382
0.329089
0.329761
0.330389
0.330961
0.33147
0.331908
0.332266
0.332541
0.332726
0.33282
0.323288
0.323988
0.32436
0.324944
0.325476
0.326049
0.326626
0.327204
0.327776
0.328333
0.328869
0.329375
0.329845
0.330272
0.33065
0.330973
0.331238
0.33144
0.331576
0.331645
0.324148
0.324609
0.324854
0.325249
0.325608
0.326001
0.326398
0.326799
0.327197
0.327588
0.327965
0.328324
0.328657
0.328961
0.329231
0.329463
0.329653
0.329798
0.329895
0.329945
0.324861
0.325249
0.325453
0.325776
0.326067
0.326383
0.326699
0.327017
0.32733
0.327635
0.327928
0.328205
0.328462
0.328695
0.328901
0.329077
0.329221
0.329331
0.329405
0.329442
0.325301
0.325559
0.32569
0.325913
0.32611
0.326331
0.326551
0.326775
0.326998
0.327217
0.327427
0.327628
0.327814
0.327984
0.328135
0.328264
0.32837
0.328451
0.328506
0.328533
0.325666
0.325891
0.326009
0.326199
0.326369
0.326556
0.326743
0.326931
0.327117
0.327298
0.327472
0.327637
0.32779
0.327929
0.328051
0.328157
0.328242
0.328308
0.328352
0.328374
0.325855
0.326005
0.326078
0.326215
0.326331
0.326469
0.326604
0.326746
0.326886
0.327025
0.327159
0.327287
0.327407
0.327517
0.327614
0.327698
0.327766
0.327819
0.327854
0.327872
0.326045
0.326185
0.326267
0.326398
0.326521
0.326656
0.326795
0.326935
0.327075
0.327213
0.327345
0.327471
0.327588
0.327695
0.32779
0.327871
0.327937
0.327987
0.328022
0.328039
-0.000777707
-0.00130296
-0.00154034
-0.0015702
-0.00139315
-0.000942175
-0.000159223
0.00100337
0.00258528
0.00460872
0.00707134
0.00994276
0.0131638
0.0166493
0.0202894
0.0239456
0.0274388
0.0305314
0.0329119
0.0342289
-0.00323314
-0.00446369
-0.00517681
-0.00574684
-0.0062634
-0.0067243
-0.0071378
-0.00751179
-0.00783864
-0.00809256
-0.00823212
-0.00820398
-0.00794936
-0.00741383
-0.00656077
-0.0053862
-0.00393823
-0.00235965
-0.000935987
-6.00119e-05
-0.00659408
-0.0083377
-0.00923209
-0.00978167
-0.00997603
-0.00972147
-0.00896478
-0.00766452
-0.005789
-0.00332956
-0.000307412
0.0032174
0.00714418
0.0113333
0.0156086
0.0197629
0.0235626
0.0267634
0.0291096
0.0303572
-0.0109138
-0.0134513
-0.0148954
-0.0161482
-0.0171747
-0.0179043
-0.0183156
-0.0183803
-0.0180569
-0.0173044
-0.0160941
-0.0144185
-0.012299
-0.00979718
-0.00702017
-0.00412107
-0.0013072
0.00118636
0.00303709
0.00412117
-0.0162786
-0.0195313
-0.0212379
-0.0227097
-0.0237723
-0.0243063
-0.0242731
-0.0236339
-0.0223613
-0.020456
-0.0179531
-0.0149271
-0.0114861
-0.00776792
-0.00393758
-0.000180578
0.00328876
0.00627364
0.00845433
0.00958605
-0.0228823
-0.0271899
-0.0295232
-0.0318353
-0.0337968
-0.0353058
-0.0363262
-0.0367965
-0.0366541
-0.0358604
-0.0344119
-0.0323469
-0.0297545
-0.0267716
-0.0235782
-0.0203888
-0.0174481
-0.0149864
-0.0131639
-0.0122404
-0.0307868
-0.0361239
-0.038924
-0.0418554
-0.0443271
-0.0462546
-0.0475967
-0.0482843
-0.0482678
-0.0475341
-0.0461054
-0.0440443
-0.0414478
-0.0384448
-0.0351927
-0.031882
-0.0287239
-0.0260297
-0.0239919
-0.0228977
-0.0401131
-0.0466938
-0.0501661
-0.0540763
-0.0575085
-0.060418
-0.0627423
-0.0643631
-0.0651947
-0.0652006
-0.0643913
-0.0628332
-0.0606455
-0.0579915
-0.0550651
-0.052098
-0.0492826
-0.0468855
-0.0451307
-0.0441993
-0.050857
-0.0586507
-0.0627207
-0.0675358
-0.0717856
-0.0754769
-0.0785372
-0.0808243
-0.0822553
-0.0828031
-0.0824845
-0.0813639
-0.0795459
-0.0771704
-0.0744116
-0.0714804
-0.0686473
-0.0661473
-0.0642703
-0.0632575
-0.0629935
-0.0720371
-0.0767681
-0.0826121
-0.0878082
-0.092419
-0.0963357
-0.0993693
-0.101424
-0.102476
-0.102553
-0.101747
-0.100192
-0.0980545
-0.0955287
-0.0928296
-0.090174
-0.0878313
-0.0860642
-0.0851081
-0.0763817
-0.0865384
-0.0918386
-0.098603
-0.104596
-0.109964
-0.114566
-0.118195
-0.12077
-0.122281
-0.122768
-0.122323
-0.121072
-0.119174
-0.116821
-0.11422
-0.111636
-0.109331
-0.107583
-0.106634
-0.0908208
-0.101953
-0.107769
-0.115376
-0.122059
-0.12806
-0.133189
-0.137233
-0.140134
-0.141903
-0.14261
-0.142366
-0.141311
-0.139604
-0.137443
-0.135017
-0.132574
-0.130375
-0.128696
-0.127782
-0.105994
-0.11785
-0.124041
-0.132282
-0.139429
-0.145843
-0.15129
-0.155582
-0.15869
-0.160645
-0.161533
-0.161469
-0.160591
-0.159061
-0.157044
-0.154761
-0.15244
-0.150342
-0.148735
-0.147859
-0.121525
-0.133846
-0.140273
-0.148929
-0.15631
-0.162902
-0.168436
-0.172767
-0.175896
-0.177884
-0.178834
-0.178865
-0.178114
-0.176733
-0.174887
-0.17277
-0.170603
-0.168635
-0.167124
-0.1663
-0.136974
-0.149462
-0.155954
-0.164767
-0.172142
-0.178693
-0.184128
-0.188355
-0.191403
-0.193354
-0.194316
-0.19441
-0.193764
-0.192513
-0.190817
-0.188857
-0.18684
-0.185003
-0.183591
-0.18282
-0.151892
-0.164275
-0.170674
-0.179405
-0.186558
-0.192873
-0.198044
-0.202037
-0.204906
-0.206749
-0.207675
-0.207796
-0.207231
-0.206104
-0.204559
-0.202761
-0.200905
-0.19921
-0.197906
-0.197194
-0.16585
-0.177885
-0.184046
-0.192489
-0.199252
-0.205191
-0.210001
-0.213687
-0.216332
-0.218034
-0.218898
-0.219029
-0.218529
-0.21751
-0.216102
-0.214456
-0.212753
-0.211196
-0.209998
-0.209344
-0.178474
-0.18998
-0.195791
-0.203793
-0.210049
-0.215523
-0.219906
-0.223246
-0.225639
-0.227182
-0.227972
-0.228099
-0.227653
-0.226733
-0.225454
-0.223953
-0.222396
-0.220971
-0.219875
-0.219277
-0.189467
-0.20033
-0.205714
-0.213187
-0.218874
-0.223849
-0.227786
-0.230775
-0.232915
-0.234298
-0.235008
-0.235124
-0.234721
-0.233886
-0.23272
-0.231349
-0.229925
-0.228622
-0.227621
-0.227074
-0.198617
-0.208799
-0.213717
-0.220631
-0.22573
-0.23021
-0.233706
-0.236361
-0.238259
-0.239489
-0.240122
-0.240223
-0.239856
-0.239094
-0.23803
-0.236775
-0.235472
-0.23428
-0.233365
-0.232865
-0.205796
-0.215335
-0.219779
-0.226164
-0.230691
-0.234717
-0.237802
-0.240155
-0.241832
-0.242923
-0.243483
-0.243567
-0.243226
-0.242526
-0.241549
-0.240394
-0.239198
-0.238104
-0.237266
-0.236809
-0.210949
-0.219953
-0.223939
-0.229873
-0.233866
-0.237503
-0.240215
-0.242306
-0.243787
-0.244755
-0.245248
-0.245314
-0.244997
-0.244344
-0.243442
-0.242378
-0.241275
-0.240267
-0.239495
-0.239075
-0.214083
-0.222728
-0.226288
-0.231897
-0.2354
-0.238739
-0.241115
-0.24299
-0.244298
-0.245161
-0.245593
-0.245638
-0.245336
-0.24473
-0.243889
-0.242901
-0.241877
-0.240945
-0.240232
-0.239845
-0.215253
-0.223777
-0.226943
-0.232398
-0.235444
-0.238601
-0.240657
-0.242386
-0.243522
-0.244308
-0.244677
-0.24471
-0.244417
-0.243846
-0.243058
-0.242136
-0.241184
-0.240319
-0.239659
-0.239301
-0.214519
-0.223238
-0.226036
-0.231558
-0.234158
-0.237281
-0.239001
-0.24068
-0.241625
-0.242362
-0.242674
-0.242688
-0.242403
-0.241861
-0.241121
-0.240259
-0.239371
-0.238567
-0.237955
-0.237624
-0.211877
-0.22124
-0.223679
-0.229568
-0.23169
-0.234973
-0.236311
-0.238015
-0.238789
-0.239475
-0.239738
-0.239733
-0.239454
-0.238939
-0.238243
-0.237437
-0.236611
-0.235865
-0.235299
-0.234993
-0.207291
-0.21799
-0.219988
-0.226665
-0.228204
-0.231844
-0.232811
-0.234535
-0.235176
-0.235807
-0.236025
-0.236002
-0.235728
-0.23524
-0.234587
-0.233836
-0.233071
-0.232384
-0.231864
-0.231584
-0.201068
-0.213936
-0.215274
-0.223066
-0.224062
-0.227968
-0.228731
-0.230391
-0.230952
-0.231508
-0.23169
-0.231648
-0.231381
-0.23092
-0.230313
-0.229622
-0.228921
-0.228294
-0.227821
-0.227567
-0.195106
-0.209263
-0.210553
-0.218714
-0.219692
-0.223505
-0.224248
-0.225753
-0.226269
-0.226737
-0.226885
-0.226826
-0.226567
-0.226139
-0.225583
-0.224956
-0.224324
-0.223761
-0.223339
-0.223112
-0.189374
-0.204223
-0.20578
-0.213939
-0.215097
-0.21869
-0.21947
-0.220791
-0.221268
-0.221647
-0.221761
-0.221688
-0.221443
-0.221053
-0.220555
-0.219998
-0.219442
-0.218949
-0.218579
-0.218381
-0.18384
-0.199131
-0.200993
-0.209022
-0.210379
-0.213722
-0.214531
-0.215671
-0.216098
-0.216395
-0.216473
-0.21639
-0.216164
-0.215819
-0.215386
-0.214907
-0.214432
-0.214012
-0.2137
-0.213532
-0.17846
-0.194063
-0.196192
-0.204081
-0.205612
-0.208732
-0.209552
-0.210532
-0.2109
-0.211123
-0.211168
-0.21108
-0.210879
-0.210586
-0.210225
-0.20983
-0.20944
-0.209099
-0.208845
-0.208709
-0.173328
-0.189147
-0.191502
-0.199252
-0.200929
-0.203855
-0.20467
-0.205509
-0.205814
-0.205974
-0.205989
-0.205902
-0.205732
-0.205495
-0.205211
-0.204903
-0.204602
-0.20434
-0.204146
-0.204042
-0.168562
-0.184446
-0.187006
-0.194604
-0.196422
-0.199181
-0.199993
-0.200714
-0.200961
-0.201069
-0.20106
-0.20098
-0.200846
-0.20067
-0.200464
-0.200246
-0.200034
-0.19985
-0.199714
-0.199642
-0.164345
-0.180088
-0.182841
-0.190243
-0.192206
-0.194813
-0.195629
-0.196252
-0.196451
-0.196516
-0.196492
-0.196424
-0.196329
-0.196214
-0.196087
-0.195955
-0.195829
-0.19572
-0.19564
-0.195598
-0.160824
-0.176157
-0.179096
-0.186232
-0.18835
-0.190817
-0.191652
-0.1922
-0.192364
-0.192399
-0.192368
-0.192317
-0.192262
-0.192208
-0.192155
-0.192105
-0.192058
-0.192019
-0.19199
-0.191975
-0.158139
-0.172768
-0.175873
-0.182654
-0.184925
-0.187259
-0.188122
-0.188623
-0.188764
-0.188782
-0.188751
-0.18872
-0.188705
-0.188706
-0.188722
-0.188744
-0.188769
-0.188791
-0.188807
-0.188816
-0.156358
-0.169989
-0.173224
-0.179559
-0.181969
-0.184172
-0.185075
-0.185552
-0.185685
-0.185699
-0.185675
-0.185666
-0.185688
-0.185739
-0.185813
-0.185898
-0.185983
-0.186057
-0.186111
-0.18614
-0.155508
-0.167889
-0.171194
-0.177
-0.17951
-0.181585
-0.182533
-0.183002
-0.183145
-0.183164
-0.183154
-0.183168
-0.183222
-0.183315
-0.183437
-0.183572
-0.183704
-0.183819
-0.183903
-0.183948
-0.155543
-0.166488
-0.169786
-0.174999
-0.177552
-0.179504
-0.180491
-0.180967
-0.181133
-0.18117
-0.181179
-0.181215
-0.181296
-0.181421
-0.181578
-0.18175
-0.181917
-0.182061
-0.182167
-0.182222
-0.15638
-0.165782
-0.168984
-0.173566
-0.176087
-0.17792
-0.178932
-0.17943
-0.179628
-0.179692
-0.179726
-0.179783
-0.179886
-0.180033
-0.180213
-0.180408
-0.180597
-0.180759
-0.180878
-0.180941
-0.15788
-0.16572
-0.168736
-0.172678
-0.175089
-0.176808
-0.177824
-0.178351
-0.178588
-0.178688
-0.178749
-0.178826
-0.178945
-0.179105
-0.179297
-0.179502
-0.1797
-0.17987
-0.179994
-0.180059
-0.159882
-0.166224
-0.168975
-0.172292
-0.174528
-0.176128
-0.177129
-0.177686
-0.177968
-0.178109
-0.178203
-0.178304
-0.178435
-0.178601
-0.178795
-0.179001
-0.179197
-0.179366
-0.179489
-0.179554
-0.162207
-0.167178
-0.169606
-0.172343
-0.174356
-0.175825
-0.176796
-0.177379
-0.177706
-0.177892
-0.17802
-0.17814
-0.17828
-0.178446
-0.178634
-0.178829
-0.179016
-0.179175
-0.179291
-0.179352
-0.164675
-0.16845
-0.170526
-0.172749
-0.17451
-0.175841
-0.176773
-0.177377
-0.177753
-0.17799
-0.178161
-0.178312
-0.178467
-0.178632
-0.178811
-0.178993
-0.179164
-0.17931
-0.179416
-0.179472
-0.16711
-0.169887
-0.171615
-0.173401
-0.17491
-0.176106
-0.176994
-0.177613
-0.178033
-0.178318
-0.178525
-0.178693
-0.178849
-0.179011
-0.179175
-0.179336
-0.179485
-0.179611
-0.179702
-0.17975
-0.169352
-0.171335
-0.172744
-0.174175
-0.175465
-0.176546
-0.177401
-0.178044
-0.178521
-0.178874
-0.179145
-0.17937
-0.179568
-0.179731
-0.179885
-0.18003
-0.18016
-0.180268
-0.180345
-0.180386
-0.171253
-0.172632
-0.173772
-0.174938
-0.176063
-0.177063
-0.177903
-0.178574
-0.179097
-0.179496
-0.179791
-0.180014
-0.180182
-0.180341
-0.18048
-0.180601
-0.180703
-0.180786
-0.180844
-0.180874
-0.172676
-0.173619
-0.174551
-0.175544
-0.176576
-0.177557
-0.178441
-0.179191
-0.179821
-0.180343
-0.180766
-0.181108
-0.181385
-0.181584
-0.181724
-0.181835
-0.181922
-0.181987
-0.182032
-0.182055
-0.173477
-0.174119
-0.174909
-0.175816
-0.176836
-0.177866
-0.178847
-0.179701
-0.18041
-0.180971
-0.181385
-0.181671
-0.181859
-0.181995
-0.182115
-0.182195
-0.182248
-0.182282
-0.182303
-0.182313
-0.173491
-0.173936
-0.174665
-0.175575
-0.176681
-0.177867
-0.179071
-0.180183
-0.181165
-0.182012
-0.182721
-0.183282
-0.183713
-0.18403
-0.184168
-0.184259
-0.184303
-0.184323
-0.18433
-0.184331
-0.172528
-0.172862
-0.173592
-0.174569
-0.175835
-0.177253
-0.178746
-0.180137
-0.18131
-0.182208
-0.182841
-0.183231
-0.183448
-0.183523
-0.183626
-0.183657
-0.183648
-0.183621
-0.183593
-0.183575
-0.170396
-0.170631
-0.171419
-0.172534
-0.174074
-0.175879
-0.177889
-0.179898
-0.181757
-0.183355
-0.18468
-0.185714
-0.186465
-0.186991
-0.18723
-0.187297
-0.187289
-0.187237
-0.187183
-0.187149
-0.166758
-0.166865
-0.167742
-0.169026
-0.170884
-0.173118
-0.175669
-0.178235
-0.180531
-0.182279
-0.183442
-0.184103
-0.184392
-0.184453
-0.184451
-0.184432
-0.184325
-0.184192
-0.184072
-0.184
-0.161179
-0.161146
-0.162172
-0.163701
-0.166015
-0.1689
-0.172355
-0.176113
-0.179882
-0.18327
-0.186053
-0.188192
-0.189686
-0.190624
-0.191142
-0.191144
-0.19102
-0.190775
-0.190552
-0.190405
-0.153173
-0.152885
-0.154037
-0.155755
-0.158482
-0.161935
-0.16612
-0.170673
-0.175165
-0.178921
-0.181504
-0.182918
-0.183542
-0.183708
-0.183595
-0.183617
-0.183391
-0.183068
-0.182747
-0.182527
-0.142349
-0.141627
-0.142853
-0.144716
-0.147986
-0.152385
-0.158035
-0.164677
-0.171963
-0.179181
-0.18549
-0.190331
-0.193713
-0.195666
-0.196661
-0.196572
-0.196009
-0.195017
-0.194123
-0.1934
-0.128169
-0.126727
-0.127834
-0.129505
-0.132817
-0.13737
-0.143341
-0.150462
-0.158329
-0.165915
-0.171885
-0.175498
-0.177137
-0.178057
-0.178588
-0.179131
-0.179299
-0.178772
-0.178058
-0.177234
-0.109971
-0.107571
-0.10872
-0.110537
-0.114597
-0.120493
-0.128627
-0.138963
-0.151436
-0.165439
-0.17978
-0.192311
-0.20113
-0.205963
-0.207757
-0.207128
-0.20492
-0.200313
-0.196483
-0.191809
-0.0869875
-0.0822801
-0.0824417
-0.0829748
-0.086117
-0.0913773
-0.0992204
-0.109408
-0.121561
-0.13412
-0.143589
-0.147446
-0.147307
-0.14956
-0.1568
-0.163404
-0.168628
-0.170846
-0.171702
-0.169197
0.326045
0.326185
0.326267
0.326398
0.326521
0.326656
0.326795
0.326935
0.327075
0.327213
0.327345
0.327471
0.327588
0.327695
0.32779
0.327871
0.327937
0.327987
0.328021
0.328039
0.325855
0.326005
0.326078
0.326215
0.326331
0.326469
0.326604
0.326746
0.326886
0.327025
0.327159
0.327287
0.327407
0.327517
0.327614
0.327698
0.327766
0.327819
0.327854
0.327872
0.325666
0.325891
0.326009
0.326199
0.326369
0.326556
0.326743
0.326931
0.327117
0.327298
0.327472
0.327637
0.32779
0.327929
0.328051
0.328157
0.328242
0.328308
0.328352
0.328374
0.325301
0.325559
0.32569
0.325913
0.32611
0.326331
0.326551
0.326775
0.326998
0.327217
0.327427
0.327628
0.327814
0.327984
0.328135
0.328264
0.32837
0.328451
0.328506
0.328533
0.324861
0.325249
0.325453
0.325776
0.326067
0.326383
0.326699
0.327017
0.32733
0.327635
0.327928
0.328205
0.328462
0.328695
0.328901
0.329077
0.329221
0.329331
0.329405
0.329442
0.324148
0.324609
0.324854
0.325249
0.325608
0.326001
0.326398
0.326799
0.327197
0.327588
0.327965
0.328324
0.328657
0.328961
0.329231
0.329463
0.329653
0.329798
0.329895
0.329945
0.323288
0.323988
0.32436
0.324944
0.325476
0.326049
0.326626
0.327204
0.327776
0.328333
0.328869
0.329375
0.329845
0.330272
0.33065
0.330973
0.331238
0.33144
0.331576
0.331645
0.321961
0.322816
0.323278
0.32401
0.324682
0.325414
0.326155
0.326904
0.32765
0.328382
0.329089
0.329761
0.330389
0.330961
0.33147
0.331908
0.332266
0.332541
0.332726
0.33282
0.320309
0.321594
0.322282
0.323359
0.324344
0.325408
0.32648
0.327558
0.328626
0.32967
0.330676
0.331628
0.332514
0.333321
0.334037
0.334651
0.335154
0.335538
0.335797
0.335928
0.317825
0.319425
0.320295
0.321662
0.322925
0.324298
0.325691
0.327103
0.328512
0.329899
0.331243
0.332526
0.333727
0.334827
0.335808
0.336654
0.337349
0.337882
0.338242
0.338424
0.314668
0.317031
0.318301
0.32029
0.322116
0.324094
0.326094
0.328115
0.330125
0.332099
0.334009
0.335826
0.337524
0.339077
0.340461
0.341653
0.342632
0.343382
0.34389
0.344147
0.310016
0.312987
0.314605
0.317137
0.319486
0.322041
0.324645
0.327296
0.329955
0.33259
0.335161
0.337632
0.339963
0.342113
0.344045
0.34572
0.347105
0.348171
0.348896
0.349263
0.304012
0.308287
0.310597
0.314216
0.317558
0.321196
0.324902
0.328672
0.332455
0.3362
0.339856
0.343368
0.346682
0.349742
0.352493
0.354884
0.356864
0.358392
0.359431
0.359957
0.295345
0.300741
0.303664
0.30824
0.312492
0.317139
0.321913
0.326812
0.331782
0.336765
0.341696
0.346504
0.35111
0.355426
0.359363
0.362827
0.365732
0.367993
0.369548
0.370339
0.284023
0.291461
0.295507
0.301852
0.307769
0.314268
0.32097
0.327879
0.334919
0.342006
0.349049
0.355946
0.362582
0.368837
0.374575
0.379667
0.383962
0.387342
0.389669
0.390865
0.268222
0.27753
0.282524
0.290354
0.297634
0.305661
0.314016
0.322725
0.331738
0.340983
0.350373
0.35979
0.369093
0.378096
0.386596
0.394323
0.401044
0.406421
0.410249
0.412252
0.24731
0.259233
0.265742
0.276002
0.285703
0.296518
0.307911
0.319941
0.332542
0.345624
0.359068
0.372722
0.38638
0.399797
0.412647
0.424609
0.435159
0.44398
0.450248
0.453838
0.219989
0.234333
0.241881
0.253776
0.264906
0.277328
0.290468
0.304508
0.319496
0.335477
0.352456
0.370369
0.389098
0.408389
0.42789
0.446907
0.464966
0.480569
0.492821
0.500421
0.183656
0.19997
0.208595
0.222438
0.23552
0.250542
0.266854
0.28482
0.304519
0.326126
0.349709
0.37529
0.402737
0.43181
0.462058
0.492902
0.522767
0.552524
0.574324
0.595927
0.14048
0.158724
0.167327
0.181916
0.194578
0.209402
0.224817
0.241953
0.260903
0.282203
0.306303
0.33391
0.365693
0.402346
0.4439
0.490624
0.540595
0.595074
0.64523
0.694137
-0.0869874
-0.0822801
-0.0824417
-0.0829747
-0.0861169
-0.0913773
-0.0992204
-0.109408
-0.121561
-0.13412
-0.143589
-0.147446
-0.147307
-0.14956
-0.1568
-0.163404
-0.168628
-0.170846
-0.171702
-0.169197
-0.109971
-0.107571
-0.10872
-0.110537
-0.114597
-0.120493
-0.128627
-0.138963
-0.151436
-0.165439
-0.17978
-0.192311
-0.20113
-0.205964
-0.207758
-0.207129
-0.20492
-0.200313
-0.196483
-0.191809
-0.128169
-0.126727
-0.127834
-0.129505
-0.132817
-0.13737
-0.143341
-0.150462
-0.158329
-0.165915
-0.171885
-0.175498
-0.177137
-0.178058
-0.178588
-0.179131
-0.179299
-0.178772
-0.178058
-0.177234
-0.142349
-0.141626
-0.142853
-0.144716
-0.147986
-0.152385
-0.158035
-0.164677
-0.171963
-0.179181
-0.185491
-0.190331
-0.193713
-0.195666
-0.196661
-0.196572
-0.196009
-0.195017
-0.194123
-0.1934
-0.153173
-0.152885
-0.154037
-0.155755
-0.158482
-0.161935
-0.16612
-0.170673
-0.175165
-0.178921
-0.181504
-0.182918
-0.183542
-0.183708
-0.183595
-0.183617
-0.183391
-0.183068
-0.182747
-0.182527
-0.161179
-0.161146
-0.162172
-0.163701
-0.166015
-0.168899
-0.172355
-0.176112
-0.179882
-0.18327
-0.186053
-0.188192
-0.189686
-0.190624
-0.191142
-0.191144
-0.19102
-0.190775
-0.190552
-0.190405
-0.166757
-0.166865
-0.167741
-0.169025
-0.170883
-0.173118
-0.175669
-0.178235
-0.180531
-0.182279
-0.183442
-0.184103
-0.184392
-0.184453
-0.184451
-0.184432
-0.184325
-0.184192
-0.184072
-0.184
-0.170395
-0.17063
-0.171418
-0.172534
-0.174073
-0.175879
-0.177889
-0.179898
-0.181756
-0.183355
-0.18468
-0.185714
-0.186465
-0.18699
-0.187229
-0.187297
-0.187289
-0.187237
-0.187183
-0.187149
-0.172527
-0.172861
-0.173592
-0.174569
-0.175835
-0.177252
-0.178745
-0.180137
-0.18131
-0.182208
-0.182841
-0.18323
-0.183447
-0.183523
-0.183626
-0.183657
-0.183648
-0.183621
-0.183592
-0.183575
-0.17349
-0.173935
-0.174664
-0.175575
-0.17668
-0.177867
-0.17907
-0.180182
-0.181165
-0.182011
-0.18272
-0.183282
-0.183712
-0.184029
-0.184167
-0.184258
-0.184303
-0.184322
-0.184329
-0.184331
-0.173476
-0.174118
-0.174908
-0.175816
-0.176835
-0.177866
-0.178846
-0.1797
-0.180409
-0.18097
-0.181385
-0.18167
-0.181858
-0.181994
-0.182115
-0.182194
-0.182247
-0.182282
-0.182303
-0.182313
-0.172675