/*--------------------------------*- C++ -*----------------------------------*\
  =========                 |
  \\      /  F ield         | OpenFOAM: The Open Source CFD Toolbox
   \\    /   O peration     | Website:  https://openfoam.org
    \\  /    A nd           | Version:  7
     \\/     M anipulation  |
\*---------------------------------------------------------------------------*/
FoamFile
{
    version     2.0;
    format      ascii;
    class       surfaceScalarField;
    location    "104";
    object      phi;
}
// * * * * * * * * * * * * * * * * * * * * * * * * * * * * * * * * * * * * * //

dimensions      [0 3 -1 0 0 0 0];

internalField   nonuniform List<scalar> 
7840
(
-0.00147438
0.00976862
-0.00939943
-0.0018392
0.00973246
-0.00936764
-0.00220384
0.00967598
-0.00931133
-0.00256802
0.00963176
-0.00926758
-0.0029334
0.00958256
-0.00921718
-0.00329993
0.00954112
-0.0091746
-0.00366953
0.00949738
-0.00912778
-0.00404315
0.00945871
-0.00908509
-0.00442269
0.00941976
-0.00904022
-0.0048093
0.00938726
-0.00900065
-0.00520852
0.00935336
-0.00895414
-0.0056209
0.00933479
-0.0089224
-0.00606284
0.00930884
-0.0088669
-0.00652485
0.00932401
-0.008862
-0.00700843
0.00927333
-0.00878976
-0.00733763
0.00914943
-0.00882023
-0.00719713
0.00843704
-0.00857755
-0.0057925
0.00698162
-0.00838624
-0.00317788
0.00401699
-0.00663162
0.0010906
-0.00426847
-0.00150059
0.0101388
-0.0018679
0.0100998
-0.00223552
0.0100436
-0.00260331
0.00999955
-0.00297262
0.00995187
-0.00334404
0.00991255
-0.00371928
0.00987262
-0.00409996
0.00983939
-0.00448869
0.00980848
-0.00488797
0.00978654
-0.0053043
0.00976969
-0.00574241
0.0097729
-0.00621132
0.00977775
-0.00666781
0.0097805
-0.00698622
0.00959175
-0.00683412
0.00899733
-0.00585939
0.00746231
-0.00382414
0.00494637
-0.00144304
0.00163589
-0.000352441
-0.00152571
0.0105102
-0.00189503
0.0104691
-0.00226532
0.0104139
-0.00263632
0.0103706
-0.00300981
0.0103254
-0.00338653
0.0102893
-0.00376844
0.0102545
-0.00415714
0.0102281
-0.00455547
0.0102068
-0.00496672
0.0101978
-0.00539698
0.0102
-0.00584483
0.0102207
-0.00627984
0.0102128
-0.0065732
0.0100739
-0.00647545
0.00949399
-0.00563155
0.00815343
-0.00390708
0.00573785
-0.00162715
0.00266644
-9.16281e-05
0.000100364
-0.000444069
-0.00154964
0.0108828
-0.00192079
0.0108402
-0.00229327
0.0107864
-0.00266694
0.0107442
-0.00304346
0.0107019
-0.00342353
0.0106693
-0.00380921
0.0106402
-0.00420284
0.0106217
-0.00460849
0.0106125
-0.0050303
0.0106196
-0.00546787
0.0106375
-0.0058931
0.010646
-0.00621353
0.0105332
-0.00622333
0.0100837
-0.00564411
0.00891478
-0.00427789
0.00678721
-0.00236138
0.00382134
-0.000731893
0.00103695
-5.84202e-05
-0.000573109
-0.000502489
-0.00157219
0.0112563
-0.00194499
0.011213
-0.00231949
0.0111609
-0.00269591
0.0111206
-0.00307606
0.011082
-0.00346127
0.0110545
-0.00385415
0.0110331
-0.00425684
0.0110244
-0.00467121
0.0110268
-0.00509547
0.0110439
-0.00551216
0.0110542
-0.00585537
0.0109892
-0.0059734
0.0106512
-0.00562328
0.00973354
-0.00458842
0.00787991
-0.0029224
0.00512119
-0.00122275
0.00212169
-0.000163247
-2.25553e-05
0.000113873
-0.000850229
-0.000388616
-0.00159342
0.0116308
-0.00196776
0.0115874
-0.00234407
0.0115372
-0.00272274
0.0114993
-0.00310516
0.0114644
-0.00349235
0.0114417
-0.00388588
0.0114266
-0.0042876
0.0114261
-0.00469885
0.0114381
-0.00511126
0.0114563
-0.00548258
0.0114255
-0.00569912
0.0112057
-0.00556332
0.0105154
-0.00485242
0.00902264
-0.00350518
0.00653267
-0.00187375
0.00348977
-0.000627306
0.000875243
-6.67569e-05
-0.000583104
6.20374e-06
-0.00092319
-0.000382412
-0.00161313
0.012006
-0.00198868
0.0119629
-0.00236647
0.011915
-0.00274733
0.0118802
-0.00313275
0.0118499
-0.00352466
0.0118337
-0.00392525
0.0118272
-0.00433599
0.0118369
-0.00475095
0.011853
-0.00513968
0.011845
-0.00542179
0.0117076
-0.0054476
0.0112315
-0.00502079
0.0100886
-0.00400145
0.00800331
-0.00253131
0.00506252
-0.00115335
0.00211182
-0.000342109
6.39973e-05
-3.44865e-05
-0.000890727
6.90815e-06
-0.000964585
-0.000375504
-0.00163167
0.0123818
-0.00200848
0.0123398
-0.00238772
0.0122942
-0.00277043
0.0122629
-0.00315735
0.0122368
-0.00354938
0.0122257
-0.00394608
0.0122239
-0.00434393
0.0122347
-0.00472753
0.0122366
-0.00505065
0.0121681
-0.00521131
0.0118683
-0.0050422
0.0110624
-0.00436524
0.00941165
-0.00315792
0.00679598
-0.0017667
0.00367131
-0.000732392
0.00107751
-0.000212856
-0.000455539
-3.82789e-05
-0.0010653
-2.17511e-05
-0.000981112
-0.000397255
-0.00164851
0.0127579
-0.00202595
0.0127172
-0.00240585
0.0126741
-0.00279004
0.0126471
-0.00317872
0.0126255
-0.0035738
0.0126208
-0.00397531
0.0126254
-0.00437802
0.0126374
-0.00475485
0.0126135
-0.00502921
0.0124425
-0.00505673
0.0118958
-0.00465819
0.0106639
-0.00373462
0.00848808
-0.00244138
0.00550274
-0.00123216
0.00246208
-0.000461974
0.000307331
-0.000101665
-0.000815848
5.23749e-06
-0.00117221
5.41545e-06
-0.00098129
-0.00039184
-0.00166413
0.0131337
-0.00204358
0.0130966
-0.00242482
0.0130553
-0.00281104
0.0130333
-0.00320057
0.013015
-0.00359424
0.0130144
-0.00398598
0.0130171
-0.0043575
0.013009
-0.00465771
0.0129137
-0.00478496
0.0125697
-0.0045982
0.0117091
-0.00398114
0.0100468
-0.00294989
0.00745683
-0.00175395
0.0043068
-0.000787083
0.00149521
-0.000223444
-0.000256307
2.59425e-05
-0.00106523
5.88797e-05
-0.00120514
1.40715e-05
-0.000936482
-0.000377768
-0.000617933
0.0115516
-0.011774
-0.000403543
0.0114581
-0.0116724
-0.000194115
0.0113586
-0.011568
3.50477e-06
0.0112311
-0.0114288
0.000192096
0.0111128
-0.0113014
0.000366357
0.0109644
-0.0111387
0.000526642
0.0108157
-0.010976
0.000668583
0.0106355
-0.0107775
0.000789262
0.0104368
-0.0105575
0.000884449
0.0101969
-0.0102921
0.0009489
0.00991812
-0.00998257
0.000977743
0.00957483
-0.00960367
0.000962411
0.0091709
-0.00915557
0.000905172
0.00866945
-0.00861222
0.000796649
0.00811515
-0.00800663
0.000644159
0.00740954
-0.00725705
0.000441447
0.00670863
-0.00650592
0.000178103
0.00574891
-0.00548557
-6.71914e-06
0.00458921
-0.00440439
0.00218184
-0.00218856
-0.000642661
0.0113261
-0.00042596
0.0112414
-0.000213942
0.0111465
-1.35208e-05
0.0110307
0.000178034
0.0109213
0.000355362
0.0107871
0.00051872
0.0106523
0.000663675
0.0104906
0.000787514
0.010313
0.000885714
0.0100987
0.000953168
0.00985066
0.000985055
0.00954294
0.000974854
0.0091811
0.000921055
0.00872325
0.000821117
0.00821509
0.000667724
0.00756293
0.00048513
0.00689122
0.000229992
0.00600405
7.37466e-05
0.00474546
0.00225559
-0.000667325
0.0110978
-0.000447428
0.0110215
-0.000232473
0.0109316
-2.86661e-05
0.0108269
0.000166481
0.0107261
0.000347678
0.0106059
0.00051507
0.0104849
0.000664142
0.0103415
0.000792017
0.0101851
0.000893659
0.00999705
0.000963364
0.00978096
0.00099524
0.00951107
0.0009811
0.00919524
0.000916707
0.00878765
0.000798781
0.00833302
0.000618977
0.00774274
0.000403833
0.00710637
0.000120128
0.00628775
-3.65486e-05
0.00490213
0.00221904
-0.000691452
0.0108664
-0.000468025
0.010798
-0.000249708
0.0107133
-4.20613e-05
0.0106193
0.000157105
0.010527
0.000342764
0.0104202
0.000514934
0.0103128
0.000669146
0.0101873
0.000802575
0.0100517
0.000910023
0.0098896
0.000986005
0.00970497
0.00102376
0.00947331
0.00101652
0.00920248
0.000954711
0.00884946
0.000841901
0.00844583
0.0006502
0.00793444
0.000434261
0.00732231
0.000154891
0.00656712
-1.62651e-05
0.00507329
0.00220278
-0.000715224
0.0106317
-0.000488033
0.0105708
-0.000266086
0.0104913
-5.42488e-05
0.0104074
0.000149342
0.0103234
0.000340008
0.0102295
0.00051776
0.010135
0.000678309
0.0100268
0.000819036
0.00991093
0.000934561
0.00977408
0.0010197
0.00961984
0.00106652
0.00942649
0.00106906
0.00919993
0.00101538
0.00890314
0.000909632
0.00855158
0.000732691
0.00811138
0.000506556
0.00754844
0.000230499
0.00684318
2.60835e-05
0.0052777
0.00222886
-0.000738135
0.0103933
-0.000506705
0.0103394
-0.000280511
0.0102651
-6.37441e-05
0.0101907
0.000145165
0.0101145
0.00034198
0.0100327
0.000526815
0.00995017
0.000695591
0.00985798
0.000846159
0.00976036
0.000972945
0.00964729
0.0010717
0.00952109
0.00113202
0.00936617
0.00115082
0.00918113
0.0011061
0.00894786
0.00100808
0.0086496
0.000801366
0.00831809
0.000564166
0.00778564
0.000241757
0.00716559
2.5105e-05
0.00549436
0.00225397
-0.000760977
0.0101512
-0.000525358
0.0101038
-0.000294953
0.0100347
-7.33248e-05
0.00996904
0.000140872
0.00990027
0.000343744
0.00982986
0.000535595
0.00975832
0.000712759
0.00968081
0.000873447
0.00959967
0.00101189
0.00950885
0.00112415
0.00940883
0.00119977
0.00929056
0.00123607
0.00914483
0.00121565
0.00896827
0.00114833
0.00871692
0.00102509
0.00844133
0.000822985
0.00798775
0.000569004
0.00741957
0.000226239
0.00583712
0.0024802
-0.00078212
0.00990484
-0.000541458
0.00986313
-0.000305624
0.0097989
-7.77613e-05
0.00974118
0.000143326
0.00967918
0.000354252
0.00961893
0.000555719
0.00955685
0.000744335
0.0094922
0.000918723
0.00942529
0.0010733
0.00935427
0.00120593
0.0092762
0.00130504
0.00919145
0.00136831
0.00908156
0.00136781
0.00896878
0.00130459
0.00878013
0.00110856
0.00863737
0.000846906
0.0082494
0.000434747
0.00783173
0.000160969
0.0061109
0.00264117
-0.000804551
0.00965464
-0.000560037
0.00961862
-0.000320183
0.00955904
-8.77687e-05
0.00950876
0.000138382
0.00945303
0.000354928
0.00940238
0.000562883
0.0093489
0.000758785
0.0092963
0.00094165
0.00924242
0.00110664
0.00918928
0.00125191
0.00913093
0.00136727
0.00907608
0.00145176
0.00899707
0.00148939
0.00893115
0.00149554
0.00877398
0.00148266
0.00865025
0.00142157
0.0083105
0.00126898
0.00798432
0.000772571
0.00660731
0.00341374
-0.000822687
-0.000571706
-0.000323994
-8.28106e-05
0.00015304
0.000380826
0.000601941
0.000813149
0.00101535
0.00120398
0.00138077
0.00153445
0.00166462
0.00173376
0.00171799
0.00154801
0.00128097
0.000879039
0.000854729
-0.000822687
-0.00965465
0.00939944
-0.000571706
-0.00961862
0.00936764
-0.000323994
-0.00955904
0.00931133
-8.28109e-05
-0.00950876
0.00926758
0.000153039
-0.00945303
0.00921718
0.000380826
-0.00940238
0.0091746
0.000601941
-0.0093489
0.00912778
0.000813149
-0.0092963
0.00908509
0.00101535
-0.00924242
0.00904022
0.00120398
-0.00918928
0.00900065
0.00138077
-0.00913093
0.00895414
0.00153445
-0.00907608
0.0089224
0.00166462
-0.00899707
0.0088669
0.00173376
-0.00893115
0.008862
0.00171799
-0.00877398
0.00878976
0.00154801
-0.00865025
0.00882023
0.00128097
-0.0083105
0.00857755
0.000879038
-0.00798432
0.00838624
0.000854729
-0.00660731
0.00663162
-0.00341374
0.00426847
-0.000804552
-0.00990484
-0.000560037
-0.00986313
-0.000320183
-0.0097989
-8.7769e-05
-0.00974118
0.000138382
-0.00967918
0.000354928
-0.00961893
0.000562883
-0.00955685
0.000758785
-0.0094922
0.00094165
-0.00942529
0.00110664
-0.00935427
0.00125191
-0.0092762
0.00136727
-0.00919145
0.00145176
-0.00908156
0.00148939
-0.00896878
0.00149554
-0.00878013
0.00148266
-0.00863737
0.00142157
-0.0082494
0.00126898
-0.00783173
0.000772571
-0.0061109
-0.00264117
-0.00078212
-0.0101512
-0.000541458
-0.0101038
-0.000305625
-0.0100347
-7.77615e-05
-0.00996904
0.000143325
-0.00990027
0.000354252
-0.00982986
0.000555719
-0.00975832
0.000744335
-0.00968081
0.000918723
-0.00959967
0.0010733
-0.00950885
0.00120593
-0.00940883
0.00130504
-0.00929055
0.00136831
-0.00914483
0.00136781
-0.00896827
0.00130459
-0.00871692
0.00110856
-0.00844133
0.000846905
-0.00798775
0.000434747
-0.00741957
0.000160969
-0.00583712
-0.0024802
-0.000760977
-0.0103933
-0.000525358
-0.0103394
-0.000294953
-0.0102651
-7.33249e-05
-0.0101907
0.000140872
-0.0101145
0.000343743
-0.0100327
0.000535595
-0.00995017
0.000712759
-0.00985798
0.000873447
-0.00976036
0.00101189
-0.00964729
0.00112415
-0.00952109
0.00119977
-0.00936617
0.00123607
-0.00918113
0.00121565
-0.00894786
0.00114833
-0.0086496
0.00102509
-0.00831809
0.000822985
-0.00778564
0.000569004
-0.00716559
0.000226239
-0.00549436
-0.00225397
-0.000738135
-0.0106317
-0.000506705
-0.0105708
-0.000280512
-0.0104913
-6.37443e-05
-0.0104074
0.000145165
-0.0103234
0.00034198
-0.0102295
0.000526815
-0.010135
0.00069559
-0.0100268
0.000846159
-0.00991093
0.000972945
-0.00977408
0.00107169
-0.00961984
0.00113202
-0.00942649
0.00115082
-0.00919993
0.0011061
-0.00890314
0.00100808
-0.00855158
0.000801366
-0.00811138
0.000564166
-0.00754844
0.000241757
-0.00684318
2.5105e-05
-0.0052777
-0.00222886
-0.000715224
-0.0108664
-0.000488033
-0.010798
-0.000266086
-0.0107133
-5.4249e-05
-0.0106193
0.000149341
-0.010527
0.000340008
-0.0104202
0.00051776
-0.0103128
0.000678309
-0.0101873
0.000819036
-0.0100517
0.000934561
-0.0098896
0.0010197
-0.00970497
0.00106652
-0.00947331
0.00106906
-0.00920248
0.00101538
-0.00884946
0.000909631
-0.00844583
0.000732691
-0.00793444
0.000506556
-0.00732231
0.000230499
-0.00656712
2.60835e-05
-0.00507329
-0.00220278
-0.000691452
-0.0110978
-0.000468025
-0.0110215
-0.000249709
-0.0109316
-4.20615e-05
-0.0108269
0.000157105
-0.0107261
0.000342764
-0.0106059
0.000514934
-0.0104849
0.000669146
-0.0103415
0.000802575
-0.0101851
0.000910023
-0.00999705
0.000986005
-0.00978096
0.00102376
-0.00951107
0.00101652
-0.00919524
0.000954711
-0.00878765
0.000841901
-0.00833302
0.0006502
-0.00774274
0.000434261
-0.00710637
0.000154891
-0.00628775
-1.62651e-05
-0.00490213
-0.00221904
-0.000667325
-0.0113261
-0.000447428
-0.0112414
-0.000232473
-0.0111465
-2.86662e-05
-0.0110307
0.00016648
-0.0109213
0.000347678
-0.0107871
0.00051507
-0.0106523
0.000664142
-0.0104906
0.000792017
-0.010313
0.000893659
-0.0100987
0.000963364
-0.00985066
0.00099524
-0.00954294
0.0009811
-0.0091811
0.000916707
-0.00872325
0.000798781
-0.00821509
0.000618977
-0.00756293
0.000403833
-0.00689122
0.000120128
-0.00600405
-3.65486e-05
-0.00474546
-0.00225559
-0.000642661
-0.0115516
-0.000425961
-0.0114581
-0.000213942
-0.0113586
-1.35209e-05
-0.0112311
0.000178033
-0.0111128
0.000355362
-0.0109644
0.000518719
-0.0108157
0.000663675
-0.0106355
0.000787514
-0.0104368
0.000885714
-0.0101969
0.000953168
-0.00991812
0.000985055
-0.00957483
0.000974854
-0.0091709
0.000921054
-0.00866945
0.000821117
-0.00811515
0.000667724
-0.00740954
0.00048513
-0.00670863
0.000229992
-0.00574891
7.37466e-05
-0.00458921
-0.00218184
-0.000617933
-0.011774
-0.000403543
-0.0116725
-0.000194115
-0.011568
3.50464e-06
-0.0114288
0.000192096
-0.0113014
0.000366357
-0.0111387
0.000526642
-0.010976
0.000668583
-0.0107775
0.000789262
-0.0105575
0.000884449
-0.0102921
0.0009489
-0.00998257
0.000977743
-0.00960367
0.000962411
-0.00915557
0.000905172
-0.00861222
0.000796649
-0.00800663
0.000644159
-0.00725705
0.000441446
-0.00650592
0.000178103
-0.00548557
-6.71915e-06
-0.00440439
-0.00218856
-0.00166413
-0.0127579
0.0131337
-0.00204358
-0.0127172
0.0130966
-0.00242482
-0.0126741
0.0130553
-0.00281104
-0.0126471
0.0130333
-0.00320057
-0.0126255
0.013015
-0.00359424
-0.0126208
0.0130144
-0.00398598
-0.0126254
0.0130171
-0.0043575
-0.0126374
0.013009
-0.00465772
-0.0126135
0.0129137
-0.00478496
-0.0124425
0.0125697
-0.0045982
-0.0118958
0.0117091
-0.00398114
-0.0106639
0.0100468
-0.00294989
-0.00848808
0.00745683
-0.00175395
-0.00550274
0.0043068
-0.000787082
-0.00246208
0.00149521
-0.000223444
-0.000307331
-0.000256308
2.59427e-05
0.000815848
-0.00106523
5.88798e-05
0.00117221
-0.00120514
1.40715e-05
0.00098129
-0.000936482
0.000391839
-0.000377768
-0.00164851
-0.0123818
-0.00202595
-0.0123398
-0.00240585
-0.0122942
-0.00279004
-0.0122629
-0.00317872
-0.0122368
-0.0035738
-0.0122257
-0.00397531
-0.0122239
-0.00437802
-0.0122347
-0.00475485
-0.0122366
-0.00502921
-0.0121681
-0.00505673
-0.0118683
-0.00465819
-0.0110624
-0.00373462
-0.00941165
-0.00244138
-0.00679598
-0.00123216
-0.0036713
-0.000461973
-0.00107751
-0.000101665
0.000455539
5.23766e-06
0.0010653
5.41549e-06
0.000981112
0.000397255
-0.00163167
-0.012006
-0.00200848
-0.0119629
-0.00238772
-0.011915
-0.00277043
-0.0118802
-0.00315735
-0.0118499
-0.00354938
-0.0118337
-0.00394608
-0.0118272
-0.00434393
-0.0118369
-0.00472753
-0.011853
-0.00505065
-0.011845
-0.00521131
-0.0117076
-0.0050422
-0.0112315
-0.00436524
-0.0100886
-0.00315792
-0.00800331
-0.0017667
-0.00506252
-0.000732392
-0.00211182
-0.000212855
-6.39971e-05
-3.82787e-05
0.000890727
-2.1751e-05
0.000964584
0.000375504
-0.00161313
-0.0116308
-0.00198868
-0.0115874
-0.00236647
-0.0115372
-0.00274733
-0.0114993
-0.00313275
-0.0114644
-0.00352467
-0.0114417
-0.00392525
-0.0114266
-0.00433599
-0.0114261
-0.00475095
-0.0114381
-0.00513968
-0.0114563
-0.00542179
-0.0114255
-0.0054476
-0.0112057
-0.00502079
-0.0105154
-0.00400145
-0.00902264
-0.00253131
-0.00653267
-0.00115335
-0.00348977
-0.000342109
-0.000875243
-3.44863e-05
0.000583104
6.90825e-06
0.00092319
0.000382412
-0.00159342
-0.0112563
-0.00196776
-0.011213
-0.00234407
-0.0111609
-0.00272274
-0.0111206
-0.00310516
-0.011082
-0.00349235
-0.0110545
-0.00388588
-0.0110331
-0.0042876
-0.0110244
-0.00469885
-0.0110268
-0.00511126
-0.0110439
-0.00548259
-0.0110542
-0.00569912
-0.0109892
-0.00556332
-0.0106512
-0.00485242
-0.00973354
-0.00350518
-0.00787991
-0.00187375
-0.00512119
-0.000627306
-0.00212169
-6.67568e-05
2.25553e-05
6.20381e-06
0.000850229
0.000388616
-0.00157219
-0.0108828
-0.00194499
-0.0108402
-0.00231949
-0.0107864
-0.00269591
-0.0107442
-0.00307606
-0.0107019
-0.00346127
-0.0106693
-0.00385415
-0.0106402
-0.00425684
-0.0106217
-0.00467121
-0.0106125
-0.00509548
-0.0106196
-0.00551216
-0.0106375
-0.00585537
-0.010646
-0.0059734
-0.0105332
-0.00562328
-0.0100837
-0.00458842
-0.00891478
-0.0029224
-0.00678721
-0.00122275
-0.00382134
-0.000163247
-0.00103695
0.000113873
0.000573109
0.000502489
-0.00154964
-0.0105102
-0.00192079
-0.0104691
-0.00229327
-0.0104139
-0.00266694
-0.0103706
-0.00304347
-0.0103254
-0.00342353
-0.0102893
-0.00380921
-0.0102545
-0.00420284
-0.0102281
-0.00460849
-0.0102068
-0.0050303
-0.0101978
-0.00546787
-0.0102
-0.0058931
-0.0102207
-0.00621353
-0.0102128
-0.00622333
-0.0100739
-0.00564411
-0.00949399
-0.00427789
-0.00815343
-0.00236138
-0.00573785
-0.000731893
-0.00266644
-5.84202e-05
-0.000100364
0.000444069
-0.00152571
-0.0101388
-0.00189503
-0.0100998
-0.00226532
-0.0100436
-0.00263632
-0.00999955
-0.00300981
-0.00995187
-0.00338653
-0.00991255
-0.00376844
-0.00987262
-0.00415714
-0.00983939
-0.00455547
-0.00980848
-0.00496672
-0.00978654
-0.00539698
-0.00976969
-0.00584483
-0.0097729
-0.00627984
-0.00977775
-0.0065732
-0.0097805
-0.00647545
-0.00959175
-0.00563155
-0.00899733
-0.00390708
-0.00746231
-0.00162715
-0.00494637
-9.16281e-05
-0.00163589
0.000352441
-0.00150059
-0.00976862
-0.0018679
-0.00973246
-0.00223552
-0.00967598
-0.00260331
-0.00963176
-0.00297262
-0.00958256
-0.00334404
-0.00954112
-0.00371928
-0.00949738
-0.00409996
-0.00945871
-0.00448869
-0.00941976
-0.00488797
-0.00938726
-0.0053043
-0.00935336
-0.00574241
-0.00933479
-0.00621132
-0.00930884
-0.00666781
-0.00932401
-0.00698622
-0.00927333
-0.00683412
-0.00914943
-0.00585939
-0.00843704
-0.00382414
-0.00698162
-0.00144304
-0.00401699
-0.0010906
-0.00147438
-0.0018392
-0.00220384
-0.00256802
-0.0029334
-0.00329993
-0.00366953
-0.00404315
-0.00442269
-0.0048093
-0.00520852
-0.0056209
-0.00606284
-0.00652485
-0.00700843
-0.00733763
-0.00719713
-0.0057925
-0.00317788
-0.00453418
-0.0113782
-0.00493185
-0.0112748
-0.00533759
-0.0111622
-0.00573724
-0.0110291
-0.00614883
-0.0108898
-0.00655248
-0.010735
-0.00696053
-0.0105679
-0.00735364
-0.0103844
-0.00772723
-0.0101839
-0.00806271
-0.0099566
-0.00834426
-0.00970102
-0.00853516
-0.00941277
-0.00860319
-0.00908754
-0.00849765
-0.00871775
-0.00820223
-0.00830205
-0.00761875
-0.00784053
-0.00678093
-0.00734374
-0.0054544
-0.0068121
-0.0035268
-0.00633199
-0.00571536
-8.0369e-11
-0.00350716
-0.0110697
-0.00380066
-0.0109813
-0.0040829
-0.01088
-0.00435274
-0.0107593
-0.00461385
-0.0106287
-0.00486166
-0.0104872
-0.00509668
-0.0103329
-0.00531552
-0.0101655
-0.00551601
-0.00998341
-0.00568627
-0.00978634
-0.00581351
-0.00957378
-0.00587956
-0.00934672
-0.0058606
-0.0091065
-0.00572164
-0.00885671
-0.00542365
-0.00860005
-0.00492249
-0.00834168
-0.00417688
-0.00808935
-0.00313876
-0.00785022
-0.00181624
-0.0076545
-0.00753161
-1.07483e-10
-0.00288268
-0.0108022
-0.00313757
-0.0107264
-0.00337498
-0.0106426
-0.00359122
-0.0105431
-0.00378103
-0.0104389
-0.00394227
-0.0103259
-0.00407037
-0.0102048
-0.00416078
-0.0100751
-0.00420706
-0.00993712
-0.00420309
-0.00979031
-0.00414188
-0.00963499
-0.00401694
-0.00947166
-0.00382164
-0.0093018
-0.00355043
-0.00912792
-0.0031958
-0.00895468
-0.00274922
-0.00878827
-0.00220321
-0.00863535
-0.00154958
-0.00850386
-0.00079913
-0.00840495
-0.00833074
-1.34748e-10
-0.00208041
-0.0106007
-0.00226789
-0.0105389
-0.00244011
-0.0104704
-0.00259557
-0.0103876
-0.0027345
-0.0103
-0.0028545
-0.0102059
-0.00295267
-0.0101066
-0.00302518
-0.0100026
-0.00306774
-0.00989456
-0.00307454
-0.00978351
-0.00303898
-0.00967055
-0.00295356
-0.00955707
-0.00281073
-0.00944464
-0.00260356
-0.00933509
-0.00232776
-0.00923048
-0.00198256
-0.00913346
-0.0015704
-0.00904752
-0.00109697
-0.00897729
-0.000574532
-0.00892739
-0.00890527
-1.35467e-10
-0.00167615
-0.0104444
-0.00181649
-0.0103986
-0.00193972
-0.0103471
-0.00204233
-0.010285
-0.00212284
-0.0102195
-0.00217942
-0.0101494
-0.00221036
-0.0100757
-0.00221419
-0.00999878
-0.00218963
-0.00991913
-0.00213585
-0.00983729
-0.00205229
-0.0097541
-0.00193869
-0.00967068
-0.00179481
-0.00958852
-0.00162038
-0.00950952
-0.00141493
-0.00943592
-0.00117844
-0.00936996
-0.000912264
-0.0093137
-0.00062095
-0.0092686
-0.000311982
-0.00923636
-0.00921725
-1.39066e-10
-0.0011664
-0.0103244
-0.00127787
-0.0102871
-0.00137838
-0.0102466
-0.00146601
-0.0101974
-0.00153956
-0.0101459
-0.00159747
-0.0100915
-0.00163807
-0.0100351
-0.00165944
-0.00997742
-0.00165946
-0.00991911
-0.00163586
-0.00986088
-0.0015865
-0.00980347
-0.00150957
-0.00974761
-0.001404
-0.00969408
-0.00126984
-0.00964368
-0.00110844
-0.00959732
-0.000922341
-0.00955606
-0.00071491
-0.00952113
-0.00048952
-0.00949399
-0.00025013
-0.00947575
-0.00946738
-1.29592e-10
-0.000922951
-0.0102392
-0.000996369
-0.0102137
-0.00105847
-0.0101845
-0.00110668
-0.0101491
-0.00114071
-0.0101119
-0.00115981
-0.0100724
-0.00116368
-0.0100312
-0.00115225
-0.00998885
-0.00112567
-0.00994569
-0.00108434
-0.00990221
-0.00102876
-0.00985904
-0.000959494
-0.00981688
-0.000877002
-0.00977657
-0.000781666
-0.00973902
-0.000673869
-0.00970512
-0.000554307
-0.00967562
-0.000424322
-0.00965111
-0.000286396
-0.00963192
-0.00014371
-0.00961843
-0.00961109
-1.25512e-10
-0.000637824
-0.0101712
-0.000701259
-0.0101503
-0.000757884
-0.0101279
-0.000806402
-0.0101006
-0.000845834
-0.0100725
-0.000875254
-0.0100429
-0.000893712
-0.0100128
-0.000900254
-0.00998231
-0.000893951
-0.00995199
-0.000873977
-0.00992219
-0.000839744
-0.00989327
-0.000791031
-0.00986559
-0.000728117
-0.00983948
-0.000651836
-0.0098153
-0.000563528
-0.00979342
-0.00046485
-0.0097743
-0.000357543
-0.00975842
-0.000243166
-0.00974629
-0.000123336
-0.00973826
-0.00973442
-1.12381e-10
-0.00049106
-0.0101261
-0.000528799
-0.0101125
-0.000559814
-0.0100969
-0.00058255
-0.0100779
-0.000597125
-0.0100579
-0.000603323
-0.0100367
-0.000601262
-0.0100148
-0.000591186
-0.00999238
-0.000573469
-0.00996971
-0.000548563
-0.0099471
-0.000516935
-0.0099249
-0.000479005
-0.00990352
-0.000435107
-0.00988338
-0.000385502
-0.00986491
-0.000330463
-0.00984846
-0.000270429
-0.00983433
-0.000206148
-0.0098227
-0.000138774
-0.00981367
-6.96523e-05
-0.00980738
-0.00980408
-1.05391e-10
-0.000345673
-0.0100886
-0.000380902
-0.0100773
-0.000412342
-0.0100654
-0.000439223
-0.010051
-0.000460859
-0.0100363
-0.000476683
-0.0100209
-0.000486135
-0.0100054
-0.000488699
-0.00998982
-0.00048392
-0.00997449
-0.000471466
-0.00995955
-0.000451183
-0.00994518
-0.000423165
-0.00993154
-0.000387782
-0.00991877
-0.000345672
-0.00990702
-0.000297673
-0.00989646
-0.000244699
-0.00988731
-0.000187631
-0.00987977
-0.000127248
-0.00987405
-6.43577e-05
-0.00987027
-0.00986843
-9.11872e-11
-0.00025394
-0.0100651
-0.000273142
-0.0100581
-0.000288524
-0.0100501
-0.000299227
-0.0100403
-0.000305446
-0.01003
-0.000307175
-0.0100192
-0.000304604
-0.0100079
-0.000297986
-0.00999644
-0.000287625
-0.00998485
-0.000273846
-0.00997333
-0.000256946
-0.00996208
-0.000237166
-0.00995132
-0.000214678
-0.00994125
-0.000189601
-0.00993209
-0.000162067
-0.009924
-0.000132295
-0.00991708
-0.000100657
-0.00991141
-6.76898e-05
-0.00990702
-3.39783e-05
-0.00990398
-0.00990241
-8.27231e-11
-0.000186977
-0.0100446
-0.000206429
-0.0100386
-0.000223896
-0.0100326
-0.000238929
-0.0100253
-0.00025109
-0.0100179
-0.000260015
-0.0100103
-0.000265359
-0.0100026
-0.000266813
-0.00999499
-0.000264123
-0.00998754
-0.000257123
-0.00998033
-0.00024577
-0.00997344
-0.000230171
-0.00996692
-0.000210589
-0.00996084
-0.000187423
-0.00995526
-0.000161159
-0.00995026
-0.0001323
-0.00994594
-0.000101312
-0.00994239
-6.86174e-05
-0.00993971
-3.46603e-05
-0.00993794
-0.00993707
-6.87567e-11
-0.000126559
-0.0100324
-0.000136241
-0.0100289
-0.000143784
-0.010025
-0.000148748
-0.0100203
-0.000151298
-0.0100153
-0.000151506
-0.01001
-0.000149537
-0.0100046
-0.000145588
-0.00999894
-0.000139873
-0.00999325
-0.000132601
-0.0099876
-0.000123947
-0.00998209
-0.000114037
-0.00997683
-0.000102947
-0.00997193
-9.07186e-05
-0.00996749
-7.73985e-05
-0.00996358
-6.30815e-05
-0.00996026
-4.79406e-05
-0.00995753
-3.22186e-05
-0.00995543
-1.61716e-05
-0.00995399
-0.00995324
-5.94042e-11
-0.000100862
-0.0100211
-0.000111646
-0.0100182
-0.000121434
-0.0100153
-0.000129958
-0.0100118
-0.000136958
-0.0100083
-0.000142188
-0.0100048
-0.000145432
-0.0100013
-0.000146492
-0.00999788
-0.000145209
-0.00999453
-0.000141487
-0.00999132
-0.000135305
-0.00998827
-0.000126737
-0.0099854
-0.000115946
-0.00998272
-0.00010317
-0.00998026
-8.86865e-05
-0.00997806
-7.27781e-05
-0.00997616
-5.57041e-05
-0.00997461
-3.77046e-05
-0.00997343
-1.90339e-05
-0.00997266
-0.00997228
-4.65343e-11
-5.86823e-05
-0.0100149
-6.35041e-05
-0.0100133
-6.71225e-05
-0.0100116
-6.93431e-05
-0.0100096
-7.02811e-05
-0.0100074
-7.0032e-05
-0.0100051
-6.87203e-05
-0.0100026
-6.64899e-05
-0.0100001
-6.34864e-05
-0.00999754
-5.98411e-05
-0.00999497
-5.56562e-05
-0.00999246
-5.09957e-05
-0.00999006
-4.58873e-05
-0.00998783
-4.03355e-05
-0.00998581
-3.43458e-05
-0.00998405
-2.79488e-05
-0.00998256
-2.12147e-05
-0.00998134
-1.42457e-05
-0.0099804
-7.14759e-06
-0.00997976
-0.00997943
-3.71664e-11
-5.34112e-05
-0.0100087
-5.94138e-05
-0.0100073
-6.49434e-05
-0.0100061
-6.98302e-05
-0.0100047
-7.39351e-05
-0.0100033
-7.70848e-05
-0.0100019
-7.91486e-05
-0.0100006
-7.99929e-05
-0.00999926
-7.95156e-05
-0.00999802
-7.76525e-05
-0.00999683
-7.43897e-05
-0.00999572
-6.97698e-05
-0.00999468
-6.38895e-05
-0.00999371
-5.68869e-05
-0.00999282
-4.89218e-05
-0.00999202
-4.01544e-05
-0.00999133
-3.07334e-05
-0.00999076
-2.07984e-05
-0.00999034
-1.04966e-05
-0.00999006
-0.00998992
-2.63596e-11
-2.23751e-05
-0.0100057
-2.46592e-05
-0.0100051
-2.62511e-05
-0.0100045
-2.71156e-05
-0.0100038
-2.73131e-05
-0.0100031
-2.69547e-05
-0.0100023
-2.61215e-05
-0.0100014
-2.49238e-05
-0.0100005
-2.34588e-05
-0.00999948
-2.1811e-05
-0.00999848
-2.00402e-05
-0.00999749
-1.8178e-05
-0.00999654
-1.6229e-05
-0.00999566
-1.41815e-05
-0.00999486
-1.20214e-05
-0.00999418
-9.74681e-06
-0.0099936
-7.37544e-06
-0.00999313
-4.94002e-06
-0.00999277
-2.47435e-06
-0.00999252
-0.0099924
-1.81937e-11
-2.61862e-05
-0.0100023
-2.93852e-05
-0.0100019
-3.24088e-05
-0.0100015
-3.51206e-05
-0.0100011
-3.74848e-05
-0.0100007
-3.93586e-05
-0.0100004
-4.06803e-05
-0.0100001
-4.13506e-05
-0.00999979
-4.13075e-05
-0.00999952
-4.05049e-05
-0.00999928
-3.89312e-05
-0.00999906
-3.66076e-05
-0.00999886
-3.35882e-05
-0.00999867
-2.99505e-05
-0.0099985
-2.57838e-05
-0.00999835
-2.11775e-05
-0.00999821
-1.62149e-05
-0.0099981
-1.09746e-05
-0.00999801
-5.53865e-06
-0.00999796
-0.00999794
-1.04147e-11
-2.28509e-06
-0.0100013
-2.98597e-06
-0.0100012
-3.2987e-06
-0.0100012
-3.32427e-06
-0.0100011
-3.03403e-06
-0.010001
-2.58466e-06
-0.0100008
-1.99502e-06
-0.0100007
-1.3727e-06
-0.0100004
-7.71358e-07
-0.0100001
-2.52084e-07
-0.0099998
1.53634e-07
-0.00999947
4.31619e-07
-0.00999914
5.90986e-07
-0.00999883
6.52476e-07
-0.00999856
6.41937e-07
-0.00999833
5.80143e-07
-0.00999815
4.79196e-07
-0.009998
3.44325e-07
-0.00999788
1.80825e-07
-0.0099978
-0.00999775
-4.66625e-12
-9.80511e-06
-1.09617e-05
-1.2143e-05
-1.3218e-05
-1.42341e-05
-1.50818e-05
-1.57458e-05
-1.61574e-05
-1.6282e-05
-1.60846e-05
-1.55535e-05
-1.46931e-05
-1.35271e-05
-1.20908e-05
-1.04257e-05
-8.57261e-06
-6.5687e-06
-4.44799e-06
-2.24541e-06
-5.5805e-13
0.00505346
-0.00680785
0.00507979
-0.00679302
0.00510587
-0.00676782
0.00512865
-0.00673149
0.00514507
-0.00668252
0.00515115
-0.00661793
0.00514145
-0.00653255
0.00510876
-0.00641883
0.00504427
-0.0062676
0.00493814
-0.00606952
0.00478034
-0.00581673
0.00456152
-0.00550408
0.00427354
-0.00512985
0.00390962
-0.00469561
0.00346422
-0.00420581
0.00293289
-0.00366834
0.00231296
-0.00309984
0.00160632
-0.00254014
0.000825458
-0.00206807
-0.001791
1.08874e-08
0.00504743
-0.00685122
0.00509069
-0.00683627
0.0051333
-0.00681043
0.00517344
-0.00677162
0.00520792
-0.00671701
0.00523192
-0.00664193
0.00523799
-0.00653863
0.00521609
-0.00639692
0.00515432
-0.00620584
0.00504045
-0.00595564
0.00486338
-0.00563966
0.0046145
-0.0052552
0.00428827
-0.00480361
0.00388222
-0.00428957
0.00339668
-0.00372027
0.00283449
-0.00310615
0.00220148
-0.00246683
0.00150741
-0.00184607
0.00076666
-0.00132732
-0.00102434
-2.21563e-09
0.00502081
-0.00690401
0.00506852
-0.00688399
0.00511007
-0.00685199
0.00514262
-0.00680417
0.00516215
-0.00673654
0.00516238
-0.00664216
0.00513444
-0.00651069
0.00506767
-0.00633015
0.00495116
-0.00608932
0.00477558
-0.00578006
0.00453453
-0.00539862
0.00422529
-0.00494596
0.00384875
-0.00442707
0.00340904
-0.00384986
0.00291311
-0.00322434
0.00237065
-0.00256369
0.00179433
-0.00189051
0.00119925
-0.00125098
0.000598981
-0.000727054
-0.000425349
-1.1443e-08
0.00498866
-0.00697345
0.00505704
-0.00695237
0.00512417
-0.00691912
0.00518771
-0.0068677
0.00524292
-0.00679176
0.00528181
-0.00668104
0.00529322