/*--------------------------------*- C++ -*----------------------------------*\
  =========                 |
  \\      /  F ield         | OpenFOAM: The Open Source CFD Toolbox
   \\    /   O peration     | Website:  https://openfoam.org
    \\  /    A nd           | Version:  7
     \\/     M anipulation  |
\*---------------------------------------------------------------------------*/
FoamFile
{
    version     2.0;
    format      ascii;
    class       surfaceScalarField;
    location    "112";
    object      phi;
}
// * * * * * * * * * * * * * * * * * * * * * * * * * * * * * * * * * * * * * //

dimensions      [0 3 -1 0 0 0 0];

internalField   nonuniform List<scalar> 
316
(
-0.000924441
-0.00820065
0.00791657
-0.000513224
-0.00553152
0.0051203
-0.00015847
-0.00221884
0.00186409
-9.75198e-06
9.24981e-05
-0.000241216
0.000564272
-0.000574024
-0.000985183
-0.00846923
-0.000570703
-0.005946
-0.000190344
-0.0025992
-1.86279e-05
-7.92178e-05
0.000545644
-0.00104925
-0.00871693
-0.00063719
-0.00635805
-0.000226635
-0.00300976
-2.50594e-05
-0.000280793
0.000520584
-0.00111285
-0.00894218
-0.00070794
-0.00676297
-0.000266925
-0.00345077
-3.12897e-05
-0.000516429
0.000489295
-0.00117575
-0.000783164
-0.00715555
-0.000313594
-0.00392034
-3.92093e-05
-0.000790814
0.000450085
-0.000862478
-0.00753053
-0.000368358
-0.00441446
-5.07061e-05
-0.00110847
0.000399379
-0.000945128
-0.00788289
-0.000432683
-0.00492691
-6.78144e-05
-0.00147333
0.000331565
-0.00103045
-0.0082079
-0.000507894
-0.00544946
-9.29083e-05
-0.00188832
0.000238657
-0.00111694
-0.00850192
-0.000593544
-0.00597286
-0.000128753
-0.00235311
0.000109903
-0.00120025
-0.000683185
-0.000171612
5.70936e-05
0.000709733
2.86788e-05
0.000750365
-5.14233e-06
0.000890148
0.000442069
0.000200312
0.000233742
0.000187122
0.000267405
0.00017284
0.000301383
0.000157066
0.000341879
0.000139749
0.000386261
0.000119948
0.000445592
9.87456e-05
0.000518078
7.39647e-05
0.000602929
4.98902e-05
0.000733808
2.4908e-05
0.000775347
-4.98952e-06
0.000920045
0.000437079
0.000184477
0.000246354
0.000171047
0.000280835
0.000156647
0.000315783
0.000140943
0.000357583
0.000123966
0.000403237
0.000104902
0.000464656
8.51187e-05
0.000537861
6.24542e-05
0.000625594
4.22585e-05
0.000754003
2.08774e-05
0.000796728
-4.16747e-06
0.00094509
0.000432912
0.000167561
0.000259316
0.000153878
0.000294518
0.000139353
0.000330308
0.000123726
0.000373211
0.000107109
0.000419854
8.88285e-05
0.000482937
7.05359e-05
0.000556154
5.01077e-05
0.000646022
3.39969e-05
0.000770114
1.64362e-05
0.000814289
-2.3647e-06
0.000963891
0.000430547
0.000149511
0.000272652
0.000135555
0.000308474
0.000120895
0.000344968
0.00010534
0.000388766
8.90957e-05
0.000436098
7.16191e-05
0.000500413
5.48629e-05
0.00057291
3.67226e-05
0.000664162
2.48548e-05
0.000781982
1.14078e-05
0.000827736
8.82838e-07
0.000974416
0.00043143
0.00014408
0.000251622
0.000130338
0.000286394
0.00011609
0.000322721
0.000101273
0.000359786
8.58022e-05
0.000404236
6.99127e-05
0.000451987
5.32928e-05
0.000517033
3.7972e-05
0.000588231
2.21712e-05
0.000679963
1.45183e-05
0.000789635
5.38812e-06
0.000836866
5.86401e-06
0.00097394
0.000437294
0.000587556
0.000308446
0.000529664
0.000344286
0.000471828
0.000380557
0.00041448
0.000417134
0.000360359
0.000458358
0.000310876
0.00050147
0.00027145
0.000556459
0.00024936
0.000610321
0.000247651
0.000681672
0.000290219
0.000747067
0.000360045
0.00076704
0.000450975
0.00088301
0.000314245
2.40134e-05
0.000378986
-4.63461e-05
0.000414646
-0.000115248
0.000449458
-0.000181593
0.00048348
-0.000242355
0.00051912
-0.000295169
0.000554284
-0.000333667
0.000594957
-0.000349173
0.000625827
-0.000339246
0.000671745
-0.000258441
0.000666262
-0.000169386
0.000677985
0.000128685
0.000584939
0.000201715
-0.000717867
0.00047135
-0.000810543
0.000507322
-0.000902653
0.000541568
-0.000993498
0.000574324
-0.00108109
0.00060671
-0.0011645
0.000637694
-0.0012385
0.000668961
-0.00130446
0.000691788
-0.00135407
0.000721351
-0.00138819
0.000700385
-0.0014459
0.000735691
-0.00145922
0.000598266
0.000606578
-0.00167683
0.000598946
-0.00180842
0.000638918
-0.00194466
0.000677799
-0.00208666
0.000716332
-0.00223572
0.000755767
-0.00239467
0.000796647
-0.00256643
0.00084072
-0.00276204
0.000887391
-0.00298643
0.000945744
-0.00328576
0.000999713
-0.003678
0.00112794
-0.00423387
0.00115413
0.00149301
-0.00288772
-0.0030802
-0.00328729
-0.00351302
-0.00376264
-0.00404355
-0.00436508
-0.00474088
-0.00518291
-0.00572264
-0.00633462
-0.0070913
)
;

boundaryField
{
    inlet
    {
        type            calculated;
        value           nonuniform 0();
    }
    outlet
    {
        type            calculated;
        value           nonuniform 0();
    }
    polygon
    {
        type            calculated;
        value           uniform 0;
    }
    top
    {
        type            symmetryPlane;
        value           uniform 0;
    }
    bottom
    {
        type            symmetryPlane;
        value           uniform 0;
    }
    outside
    {
        type            calculated;
        value           nonuniform 0();
    }
    procBoundary18to10
    {
        type            processor;
        value           nonuniform List<scalar> 
24
(
0.00120852
0.00125377
0.00129695
0.0013381
0.00137709
-0.00914352
0.00123746
0.00129748
0.00135546
0.00141096
0.00146276
0.000779799
0.000831404
0.000884888
0.000942063
0.00100539
0.00107755
0.00116225
0.00126319
0.00138777
0.00153945
0.00173991
0.00191081
0.00231828
)
;
    }
    procBoundary18to11
    {
        type            processor;
        value           nonuniform List<scalar> 6(-0.00015736 -0.00064438 -9.45536e-05 0.000625503 0.00154923 0.00270686);
    }
    procBoundary18to19
    {
        type            processor;
        value           nonuniform List<scalar> 5(-0.000212593 -0.000197089 -0.000180523 -0.000162847 -0.000238341);
    }
    procBoundary18to25
    {
        type            processor;
        value           nonuniform List<scalar> 4(-0.00876443 -0.00648992 -0.00286468 -6.17084e-05);
    }
    procBoundary18to26
    {
        type            processor;
        value           nonuniform List<scalar> 
13
(
-0.000682024
-0.00072195
-0.000856326
-0.000447211
-0.000221461
-0.000254216
-0.000287101
-0.000326104
-0.000368945
-0.000425791
-0.000496875
-8.48033e-05
-0.000578148
)
;
    }
}


// ************************************************************************* //
