/*--------------------------------*- C++ -*----------------------------------*\
  =========                 |
  \\      /  F ield         | OpenFOAM: The Open Source CFD Toolbox
   \\    /   O peration     | Website:  https://openfoam.org
    \\  /    A nd           | Version:  7
     \\/     M anipulation  |
\*---------------------------------------------------------------------------*/
FoamFile
{
    version     2.0;
    format      ascii;
    class       volScalarField;
    location    "8";
    object      p;
}
// * * * * * * * * * * * * * * * * * * * * * * * * * * * * * * * * * * * * * //

dimensions      [0 2 -2 0 0 0 0];

internalField   nonuniform List<scalar> 
4000
(
-0.278044
-0.266407
-0.262045
-0.254327
-0.24969
-0.244222
-0.240325
-0.236193
-0.233759
-0.231136
-0.231498
-0.231055
-0.237713
-0.241494
-0.261701
-0.283804
-0.339517
-0.445695
-0.604372
-1.09673
-0.289468
-0.278196
-0.274095
-0.267075
-0.262971
-0.258293
-0.255195
-0.252175
-0.250933
-0.250157
-0.252517
-0.255591
-0.265562
-0.277316
-0.303007
-0.330261
-0.376365
-0.384147
-0.462536
-0.250009
-0.300245
-0.289077
-0.285177
-0.278554
-0.274945
-0.270861
-0.268592
-0.266723
-0.266901
-0.268201
-0.273082
-0.280197
-0.294193
-0.31306
-0.343587
-0.374457
-0.421625
-0.469803
-0.517549
-0.652649
-0.310642
-0.299701
-0.296114
-0.289952
-0.286956
-0.283649
-0.282391
-0.281835
-0.283579
-0.286972
-0.294121
-0.304762
-0.322629
-0.345034
-0.373803
-0.396804
-0.427509
-0.422743
-0.479114
-0.369459
-0.320819
-0.310262
-0.307097
-0.301496
-0.299184
-0.296716
-0.296461
-0.297155
-0.300406
-0.305834
-0.315289
-0.329081
-0.349139
-0.371753
-0.39489
-0.409701
-0.430434
-0.45539
-0.462459
-0.486736
-0.330764
-0.320686
-0.318005
-0.313053
-0.31151
-0.310003
-0.3109
-0.313019
-0.31781
-0.325274
-0.337111
-0.352893
-0.372807
-0.391854
-0.405844
-0.41254
-0.430139
-0.424982
-0.450034
-0.405315
-0.340427
-0.3309
-0.328737
-0.324492
-0.323737
-0.323178
-0.325121
-0.328493
-0.33465
-0.343471
-0.356386
-0.372533
-0.390664
-0.404287
-0.411508
-0.415571
-0.427833
-0.43677
-0.441579
-0.436635
-0.349767
-0.340863
-0.339252
-0.335809
-0.335902
-0.336417
-0.339511
-0.344299
-0.352215
-0.362923
-0.376985
-0.392789
-0.407628
-0.414942
-0.417705
-0.42136
-0.431624
-0.425879
-0.434407
-0.406883
-0.358768
-0.350579
-0.349538
-0.346989
-0.347918
-0.349499
-0.353623
-0.359419
-0.367911
-0.378579
-0.391537
-0.405146
-0.415833
-0.418199
-0.419445
-0.422221
-0.430063
-0.428168
-0.431449
-0.408066
-0.367383
-0.360005
-0.35953
-0.357996
-0.359793
-0.362552
-0.367904
-0.375198
-0.385179
-0.397208
-0.411204
-0.425767
-0.43706
-0.442111
-0.443247
-0.442813
-0.439949
-0.425714
-0.416856
-0.374597
-0.16327
-0.143919
-0.136546
-0.119863
-0.108678
-0.091628
-0.076807
-0.0578643
-0.03822
-0.0144512
0.0120425
0.0441058
0.0799508
0.124094
0.171599
0.231786
0.287183
0.372025
0.417058
0.557283
-0.174329
-0.15537
-0.148573
-0.132517
-0.122326
-0.106308
-0.0929735
-0.0757348
-0.0584631
-0.0374715
-0.0147597
0.013301
0.0436362
0.0823567
0.11994
0.17555
0.212934
0.297973
0.313358
0.448117
-0.185408
-0.167144
-0.160799
-0.14572
-0.136407
-0.121658
-0.109716
-0.0941654
-0.0789641
-0.0602435
-0.0404135
-0.0151267
0.0115572
0.0483705
0.0826137
0.138413
0.174585
0.259145
0.279553
0.39718
-0.196505
-0.178996
-0.173018
-0.158842
-0.15031
-0.136701
-0.126034
-0.112036
-0.0988123
-0.0823529
-0.0656702
-0.0436451
-0.0221355
0.0107691
0.0364919
0.0898557
0.112395
0.201212
0.207414
0.336297
-0.20776
-0.191016
-0.185398
-0.1721
-0.164348
-0.151889
-0.142525
-0.130156
-0.119021
-0.104993
-0.0916696
-0.0731222
-0.0567609
-0.0281391
-0.00905065
0.0387749
0.0573354
0.133449
0.148418
0.253066
-0.219215
-0.203261
-0.197996
-0.185601
-0.178606
-0.167334
-0.15924
-0.148506
-0.139404
-0.127754
-0.117691
-0.102578
-0.0912357
-0.0670092
-0.0548582
-0.0113064
-0.00256485
0.0781815
0.0803317
0.228883
-0.23082
-0.215685
-0.210734
-0.199261
-0.192959
-0.182882
-0.175966
-0.166817
-0.15962
-0.150337
-0.143365
-0.132098
-0.125512
-0.107494
-0.101773
-0.0697205
-0.0658954
-0.0193772
-0.00704276
0.0632004
-0.242535
-0.228247
-0.223551
-0.213001
-0.207292
-0.1984
-0.192524
-0.184883
-0.179408
-0.172439
-0.168286
-0.160379
-0.158539
-0.144937
-0.145706
-0.114305
-0.120338
-0.0417246
-0.060518
0.172713
-0.254295
-0.240874
-0.236351
-0.226736
-0.221519
-0.213816
-0.208829
-0.202604
-0.198602
-0.193542
-0.191581
-0.186777
-0.189106
-0.182693
-0.19097
-0.17858
-0.197229
-0.206927
-0.241862
-0.292845
-0.266145
-0.253616
-0.249184
-0.240498
-0.235611
-0.229084
-0.224759
-0.219752
-0.216784
-0.213046
-0.212666
-0.209962
-0.214918
-0.211185
-0.221202
-0.199701
-0.195885
-0.102404
-0.0922598
0.228804
-0.266145
-0.253616
-0.249184
-0.240498
-0.235611
-0.229084
-0.224759
-0.219752
-0.216785
-0.213046
-0.212666
-0.209962
-0.214918
-0.211185
-0.221202
-0.199701
-0.195885
-0.102404
-0.0922599
0.228804
-0.254295
-0.240875
-0.236351
-0.226736
-0.221519
-0.213816
-0.208829
-0.202604
-0.198602
-0.193542
-0.191581
-0.186777
-0.189106
-0.182693
-0.19097
-0.17858
-0.19723
-0.206927
-0.241862
-0.292845
-0.242535
-0.228247
-0.223551
-0.213001
-0.207292
-0.1984
-0.192524
-0.184883
-0.179408
-0.172439
-0.168286
-0.160379
-0.158539
-0.144937
-0.145706
-0.114305
-0.120338
-0.0417246
-0.060518
0.172712
-0.23082
-0.215685
-0.210734
-0.199261
-0.192959
-0.182882
-0.175966
-0.166817
-0.15962
-0.150337
-0.143365
-0.132098
-0.125512
-0.107494
-0.101773
-0.0697205
-0.0658954
-0.0193772
-0.00704278
0.0632004
-0.219215
-0.203261
-0.197996
-0.185601
-0.178606
-0.167335
-0.15924
-0.148506
-0.139404
-0.127754
-0.117691
-0.102578
-0.0912357
-0.0670092
-0.0548583
-0.0113065
-0.00256487
0.0781815
0.0803317
0.228883
-0.20776
-0.191016
-0.185398
-0.1721
-0.164348
-0.15189
-0.142525
-0.130156
-0.119021
-0.104993
-0.0916697
-0.0731222
-0.0567609
-0.0281392
-0.00905067
0.0387748
0.0573354
0.133449
0.148418
0.253066
-0.196505
-0.178996
-0.173018
-0.158842
-0.15031
-0.136701
-0.126034
-0.112036
-0.0988123
-0.0823529
-0.0656702
-0.0436451
-0.0221355
0.0107691
0.0364919
0.0898557
0.112395
0.201212
0.207414
0.336297
-0.185408
-0.167144
-0.160799
-0.14572
-0.136407
-0.121658
-0.109716
-0.0941654
-0.0789641
-0.0602435
-0.0404135
-0.0151267
0.0115572
0.0483705
0.0826136
0.138413
0.174585
0.259145
0.279553
0.39718
-0.174329
-0.15537
-0.148573
-0.132517
-0.122326
-0.106308
-0.0929736
-0.0757349
-0.0584631
-0.0374715
-0.0147597
0.013301
0.0436362
0.0823567
0.11994
0.17555
0.212934
0.297973
0.313358
0.448117
-0.16327
-0.143919
-0.136546
-0.119863
-0.108678
-0.091628
-0.0768071
-0.0578643
-0.03822
-0.0144512
0.0120425
0.0441058
0.0799508
0.124094
0.171599
0.231786
0.287183
0.372025
0.417058
0.557283
-0.367383
-0.360005
-0.35953
-0.357996
-0.359793
-0.362552
-0.367904
-0.375198
-0.385179
-0.397208
-0.411204
-0.425768
-0.43706
-0.442111
-0.443247
-0.442813
-0.439949
-0.425714
-0.416856
-0.374597
-0.358768
-0.350579
-0.349538
-0.346989
-0.347918
-0.349499
-0.353623
-0.359419
-0.367911
-0.378579
-0.391537
-0.405146
-0.415833
-0.418199
-0.419445
-0.422221
-0.430063
-0.428168
-0.431449
-0.408066
-0.349767
-0.340863
-0.339252
-0.335809
-0.335902
-0.336417
-0.339511
-0.344299
-0.352215
-0.362923
-0.376985
-0.392789
-0.407628
-0.414942
-0.417705
-0.42136
-0.431624
-0.425879
-0.434407
-0.406883
-0.340427
-0.3309
-0.328737
-0.324492
-0.323738
-0.323178
-0.325121
-0.328493
-0.33465
-0.343471
-0.356386
-0.372533
-0.390664
-0.404287
-0.411508
-0.415571
-0.427833
-0.43677
-0.441579
-0.436635
-0.330764
-0.320686
-0.318005
-0.313053
-0.31151
-0.310003
-0.3109
-0.313019
-0.31781
-0.325274
-0.337111
-0.352893
-0.372807
-0.391854
-0.405844
-0.41254
-0.430139
-0.424982
-0.450034
-0.405315
-0.320819
-0.310262
-0.307097
-0.301496
-0.299184
-0.296716
-0.296461
-0.297155
-0.300406
-0.305834
-0.315289
-0.329081
-0.349139
-0.371753
-0.39489
-0.409701
-0.430434
-0.45539
-0.462459
-0.486736
-0.310642
-0.299701
-0.296114
-0.289952
-0.286956
-0.283649
-0.282391
-0.281835
-0.283579
-0.286972
-0.294122
-0.304762
-0.322629
-0.345034
-0.373803
-0.396804
-0.427509
-0.422743
-0.479114
-0.369459
-0.300245
-0.289077
-0.285177
-0.278554
-0.274945
-0.270861
-0.268592
-0.266723
-0.266901
-0.268201
-0.273082
-0.280197
-0.294193
-0.31306
-0.343588
-0.374457
-0.421625
-0.469803
-0.517549
-0.652649
-0.289469
-0.278196
-0.274095
-0.267075
-0.262971
-0.258293
-0.255195
-0.252175
-0.250933
-0.250157
-0.252517
-0.255591
-0.265562
-0.277316
-0.303007
-0.330261
-0.376365
-0.384147
-0.462536
-0.250009
-0.278044
-0.266407
-0.262045
-0.254327
-0.24969
-0.244222
-0.240325
-0.236193
-0.233759
-0.231137
-0.231498
-0.231055
-0.237713
-0.241494
-0.261701
-0.283804
-0.339517
-0.445695
-0.604372
-1.09673
-0.127976
-0.108405
-0.0990721
-0.0832629
-0.0695672
-0.0534339
-0.0367574
-0.0182945
0.00195271
0.0245062
0.0497588
0.0783522
0.110889
0.148009
0.189727
0.236299
0.285886
0.33979
0.389325
0.437617
-0.0821074
-0.0648101
-0.0556377
-0.0409199
-0.0270272
-0.0111075
0.00609444
0.0249225
0.0454556
0.067823
0.0920678
0.118197
0.146062
0.175421
0.205825
0.236709
0.266535
0.296164
0.31787
0.339302
-0.0439904
-0.0289733
-0.0210554
-0.00856506
0.00310642
0.0161213
0.0298553
0.0444905
0.0600626
0.076597
0.0940845
0.112445
0.131549
0.151135
0.170847
0.189999
0.208122
0.223744
0.235984
0.243562
-0.0154514
-0.00303897
0.00373744
0.0144243
0.0245044
0.0357336
0.0475345
0.0599654
0.0729501
0.0863913
0.100163
0.11411
0.128019
0.141647
0.154666
0.166757
0.177402
0.186283
0.19259
0.196194
0.00626046
0.0158966
0.021072
0.029189
0.0367324
0.0450484
0.0536919
0.0626904
0.0719872
0.0815049
0.0911499
0.100801
0.11031
0.119493
0.128141
0.135987
0.142799
0.14824
0.152109
0.154131
0.0226273
0.030305
0.0344798
0.0410318
0.0471341
0.0538346
0.0607376
0.067845
0.0750774
0.0823489
0.0895648
0.0966203
0.1034
0.10978
0.115627
0.120808
0.125174
0.128608
0.130969
0.132182
0.0343208
0.0398826
0.0428942
0.0476146
0.0519966
0.0567877
0.0617053
0.0667486
0.0718615
0.0769826
0.0820455
0.0869758
0.0916927
0.096108
0.100131
0.103667
0.106631
0.108935
0.110518
0.111324
0.0432587
0.0476516
0.0500245
0.0537464
0.0571808
0.060921
0.0647284
0.0685994
0.0724815
0.0763228
0.0800699
0.0836677
0.0870597
0.0901898
0.0930022
0.0954446
0.0974664
0.0990258
0.100086
0.100622
0.0494419
0.0524946
0.0541586
0.0567624
0.0591771
0.061804
0.0644818
0.0672054
0.0699382
0.0726434
0.0752833
0.0778183
0.0802081
0.082412
0.0843903
0.086105
0.0875227
0.0886135
0.089355
0.08973
0.054228
0.0566523
0.0579544
0.0599967
0.0618699
0.0639002
0.0659531
0.0680258
0.0700883
0.0721122
0.0740693
0.0759313
0.0776707
0.0792612
0.0806775
0.0818969
0.0828989
0.0836665
0.0841858
0.0844479
0.0574751
0.0591165
0.0600086
0.0614121
0.0627084
0.0641177
0.0655483
0.0669974
0.0684437
0.0698669
0.0712467
0.0725627
0.0737945
0.0749226
0.0759284
0.076795
0.0775074
0.0780532
0.0784227
0.0786092
0.0600237
0.0613404
0.0620452
0.0631496
0.0641592
0.0652501
0.0663492
0.0674547
0.0685504
0.069621
0.0706517
0.071628
0.0725361
0.0733629
0.0740961
0.0747251
0.0752402
0.0756337
0.0758994
0.0760334
0.0617198
0.0625964
0.0630702
0.0638205
0.0645103
0.0652611
0.0660211
0.0667896
0.0675545
0.0683051
0.0690305
0.06972
0.0703633
0.0709506
0.0714725
0.071921
0.0722888
0.07257
0.0727601
0.0728559
0.0630819
0.063799
0.064179
0.0647781
0.0653222
0.0659104
0.0665011
0.067094
0.0676803
0.0682519
0.0688009
0.0693197
0.0698012
0.0702387
0.070626
0.0709576
0.0712287
0.0714356
0.0715752
0.0716455
0.0639602
0.0644321
0.0646837
0.0650881
0.0654565
0.0658594
0.0662663
0.0666774
0.0670863
0.0674869
0.0678736
0.0682407
0.0685826
0.0688943
0.069171
0.0694084
0.0696029
0.0697516
0.0698519
0.0699025
0.0646904
0.0650883
0.0652972
0.0656286
0.0659276
0.0662514
0.066576
0.0669014
0.0672228
0.0675358
0.0678362
0.0681198
0.0683827
0.0686214
0.0688325
0.0690131
0.0691607
0.0692733
0.0693492
0.0693875
0.0651418
0.0654053
0.0655404
0.0657683
0.0659705
0.0661961
0.0664223
0.0666516
0.0668797
0.0671033
0.0673191
0.067524
0.0677149
0.0678888
0.0680431
0.0681755
0.068284
0.0683668
0.0684228
0.068451
0.0655124
0.0657446
0.0658656
0.066061
0.0662362
0.0664277
0.0666195
0.0668123
0.067003
0.0671889
0.0673676
0.0675364
0.067693
0.0678354
0.0679613
0.068069
0.068157
0.0682241
0.0682694
0.0682922
0.0657105
0.0658616
0.0659371
0.0660756
0.0661947
0.0663346
0.0664735
0.0666172
0.0667604
0.0669019
0.067039
0.0671697
0.0672917
0.0674048
0.0675036
0.0675887
0.0676586
0.067712
0.0677481
0.0677663
0.0659093
0.0660526
0.066136
0.06627
0.0663956
0.0665343
0.0666755
0.0668187
0.0669615
0.0671016
0.0672367
0.0673649
0.0674842
0.0675929
0.067689
0.0677714
0.0678388
0.0678902
0.0679249
0.0679424
0.000514237
0.000554361
0.000569305
0.000590076
0.000606256
0.000621817
0.000636334
0.000649893
0.000662576
0.000674366
0.000685232
0.000695137
0.000704043
0.000711917
0.000718725
0.000724443
0.000729046
0.000732515
0.000734836
0.000735999
0.00157589
0.00166449
0.00170262
0.00175502
0.00179842
0.00183996
0.00187884
0.00191507
0.00194873
0.00197985
0.00200838
0.00203428
0.0020575
0.00207797
0.00209563
0.00211044
0.00212235
0.00213132
0.00213731
0.00214032
0.00266759
0.00279747
0.00285848
0.00294084
0.00301135
0.00307927
0.00314335
0.00320342
0.00325948
0.00331144
0.00335918
0.00340259
0.00344154
0.00347592
0.0035056
0.0035305
0.00355053
0.00356561
0.0035757
0.00358075
0.00377347
0.00394224
0.00402416
0.00413469
0.00423056
0.00432348
0.00441155
0.00449438
0.00457187
0.00464379
0.00470996
0.00477017
0.00482422
0.00487194
0.00491316
0.00494775
0.00497557
0.00499653
0.00501054
0.00501757
0.00489652
0.00510627
0.00520956
0.00534977
0.00547223
0.00559159
0.00570516
0.00581233
0.00591284
0.00600633
0.00609247
0.00617093
0.00624144
0.00630373
0.00635757
0.00640276
0.00643912
0.00646651
0.00648484
0.00649402
0.00602862
0.00628217
0.00640794
0.00657903
0.00672899
0.00687558
0.00701536
0.00714751
0.00727162
0.0073872
0.00749378
0.00759093
0.00767828
0.00775549
0.00782224
0.00787828
0.00792339
0.00795738
0.00798012
0.00799151
0.00717331
0.00747542
0.00762564
0.00783064
0.00801067
0.00818704
0.00835549
0.00851496
0.0086649
0.00880466
0.00893362
0.00905125
0.00915706
0.00925062
0.00933154
0.00939949
0.00945419
0.00949542
0.00952299
0.00953681
0.00832758
0.00868328
0.00886057
0.00910249
0.00931527
0.00952385
0.00972323
0.0099121
0.0100898
0.0102554
0.0104084
0.0105479
0.0106734
0.0107845
0.0108805
0.0109612
0.0110261
0.011075
0.0111078
0.0111242
0.00949483
0.00991052
0.010118
0.010401
0.0106502
0.0108946
0.0111283
0.0113498
0.0115582
0.0117525
0.011932
0.0120957
0.0122431
0.0123734
0.0124861
0.0125809
0.0126571
0.0127146
0.0127531
0.0127723
0.0106754
0.0111578
0.0113992
0.0117276
0.0120173
0.0123011
0.0125727
0.01283
0.0130722
0.013298
0.0135065
0.0136967
0.0138679
0.0140194
0.0141504
0.0142605
0.0143492
0.014416
0.0144607
0.0144831
0.0118732
0.01243
0.0127096
0.0130884
0.0134233
0.0137511
0.0140648
0.0143621
0.0146418
0.0149026
0.0151433
0.015363
0.0155607
0.0157357
0.015887
0.0160142
0.0161166
0.0161939
0.0162456
0.0162715
0.013091
0.0137305
0.0140529
0.0144873
0.0148726
0.0152492
0.0156096
0.0159511
0.0162722
0.0165717
0.0168481
0.0171003
0.0173273
0.0175282
0.017702
0.0178481
0.0179658
0.0180546
0.018114
0.0181438
0.014334
0.0150647
0.0154353
0.0159311
0.0163724
0.016803
0.0172152
0.0176057
0.0179729
0.0183152
0.0186312
0.0189195
0.019179
0.0194087
0.0196075
0.0197747
0.0199095
0.0200112
0.0200792
0.0201134
0.0156071
0.0164381
0.0168623
0.0174255
0.0179288
0.0184189
0.0188883
0.0193328
0.0197508
0.0201404
0.0205
0.0208281
0.0211236
0.0213852
0.0216118
0.0218025
0.0219563
0.0220724
0.0221502
0.0221892
0.016917
0.0178574
0.0183412
0.0189777
0.0195493
0.0201047
0.0206369
0.0211408
0.0216146
0.0220562
0.0224639
0.022836
0.0231713
0.0234683
0.0237258
0.0239427
0.0241178
0.0242501
0.0243388
0.0243833
0.0182705
0.0193292
0.0198787
0.0205945
0.0212407
0.0218673
0.0224679
0.0230367
0.0235714
0.0240699
0.0245302
0.0249507
0.0253297
0.0256659
0.0259578
0.0262039
0.0264029
0.0265534
0.0266544
0.026705
0.0196751
0.0208606
0.021482
0.0222829
0.02301
0.0237136
0.0243883
0.0250274
0.0256284
0.0261887
0.0267065
0.0271798
0.0276069
0.0279864
0.0283164
0.0285951
0.0288209
0.0289919
0.0291068
0.0291645
0.0211383
0.0224585
0.0231577
0.0240491
0.024863
0.0256492
0.0264034
0.0271182
0.0277904
0.0284176
0.0289976
0.0295284
0.0300082
0.0304352
0.0308074
0.0311226
0.0313783
0.0315726
0.0317033
0.031769
0.0226673
0.0241289
0.0249113
0.0258981
0.0268043
0.0276783
0.0285171
0.0293126
0.0300611
0.03076
0.031407
0.032
0.0325372
0.0330164
0.0334353
0.0337909
0.0340804
0.0343008
0.0344495
0.0345244
0.0242681
0.0258764
0.0267469
0.0278331
0.0288364
0.0298029
0.0307309
0.0316117
0.0324412
0.0332165
0.0339352
0.0345953
0.0351946
0.0357309
0.036201
0.0366017
0.036929
0.0371789
0.037348
0.0374332
0.0259453
0.027704
0.0286663
0.029855
0.0309593
0.0320222
0.0330434
0.0340138
0.0349286
0.0357848
0.03658
0.037312
0.0379785
0.0385767
0.0391033
0.0395538
0.0399232
0.0402064
0.0403985
0.0404956
0.0277011
0.029612
0.0306687
0.0319622
0.0331703
0.0343327
0.0354506
0.0365143
0.0375185
0.03846
0.0393363
0.040145
0.0408838
0.0415493
0.0421375
0.0426429
0.0430593
0.0433798
0.0435978
0.0437083
0.0295353
0.0315981
0.0327506
0.0341499
0.0354638
0.0367282
0.0379454
0.0391057
0.0402032
0.0412343
0.0421965
0.0430871
0.0439034
0.0446418
0.0452972
0.045863
0.0463312
0.0466932
0.0469404
0.0470659
0.0314447
0.0336572
0.0349058
0.0364109
0.0378314
0.0391995
0.0405185
0.0417784
0.0429728
0.044098
0.0451509
0.0461288
0.0470286
0.0478458
0.0485743
0.0492062
0.0497316
0.0501395
0.0504191
0.0505615
0.0334231
0.0357809
0.0371248
0.0387348
0.0402623
0.0417353
0.043158
0.0445205
0.0458156
0.0470394
0.0481885
0.0492597
0.0502493
0.051152
0.0519604
0.0526647
0.053253
0.0537116
0.0540271
0.0541882
0.0354605
0.037957
0.0393951
0.0411081
0.0427424
0.0443213
0.0458497
0.0473177
0.0487178
0.0500453
0.0512967
0.0524683
0.0535553
0.0545512
0.0554472
0.0562313
0.0568889
0.0574035
0.0577586
0.0579403
0.037543
0.040169
0.0416996
0.0435129
0.0452536
0.0469393
0.0485756
0.0501526
0.0516623
0.0530997
0.0544609
0.0557412
0.0569348
0.0580338
0.0590268
0.0598995
0.0606342
0.0612109
0.0616099
0.0618143
0.0396515
0.0423942
0.0440155
0.0459248
0.0477709
0.0495645
0.0513112
0.0530014
0.0546267
0.0561818
0.0576619
0.0590618
0.060374
0.0615883
0.0626908
0.0636635
0.0644849
0.0651313
0.0655793
0.0658091
0.0417608
0.0446017
0.0463109
0.0483102
0.0502597
0.052162
0.054022
0.0558307
0.0575793
0.059262
0.0608735
0.0624071
0.0638536
0.0651999
0.066428
0.0675158
0.0684368
0.0691628
0.0696664
0.0699248
0.0438369
0.0467499
0.0485424
0.050622
0.0526712
0.0546821
0.0566586
0.0585924
0.0604742
0.0622979
0.0640572
0.0657439
0.0673459
0.0688462
0.070222
0.0714451
0.0724831
0.0733021
0.07387
0.0741614
0.0458348
0.0487824
0.0506504
0.0527959
0.0549378
0.0570558
0.0591518
0.0612185
0.0632465
0.0652288
0.0671581
0.0690235
0.0708095
0.0724938
0.0740469
0.0754328
0.0766112
0.077541
0.0781854
0.0785155
0.0476946
0.050625
0.052555
0.0547454
0.0569688
0.0591895
0.0614075
0.0636164
0.0658068
0.0679708
0.070099
0.0721775
0.0741853
0.0760932
0.077863
0.0794483
0.0807985
0.0818636
0.0826005
0.0829774
0.0493374
0.052181
0.0541513
0.0563585
0.0586453
0.0609608
0.063302
0.0656635
0.0680364
0.0704112
0.0727757
0.0751113
0.0773902
0.0795737
0.0816117
0.0834446
0.0850079
0.0862403
0.087091
0.0875252
0.0506585
0.0533262
0.0553037
0.0574922
0.0598155
0.0622133
0.0646771
0.0672027
0.0697818
0.072403
0.0750503
0.0776987
0.0803111
0.0828363
0.0852086
0.0873508
0.0891805
0.0906215
0.0916138
0.0921189
0.0515222
0.0539023
0.0558404
0.0579693
0.0602912
0.0627517
0.0653347
0.0680359
0.0708479
0.0737575
0.0767435
0.0797726
0.0827953
0.0857442
0.0885333
0.091062
0.0932249
0.0949265
0.096095
0.0966882
0.0517616
0.0537151
0.0555477
0.0575687
0.0598413
0.0623349
0.065028
0.0679147
0.0709883
0.0742336
0.0776229
0.0811123
0.0846369
0.088108
0.0914132
0.0944224
0.097
0.0990254
0.100412
0.101114
0.0511657
0.0525367
0.0541562
0.0560084
0.0581787
0.0606647
0.0634496
0.0665269
0.0698895
0.0735198
0.0773831
0.0814225
0.0855534
0.0896606
0.0935982
0.0971977
0.100286
0.10271
0.104364
0.105199
0.049407
0.0500798
0.0513399
0.0529402
0.0549453
0.0573718
0.060217
0.0634784
0.0671494
0.07121
0.0756179
0.080301
0.0851511
0.0900194
0.0947182
0.0990313
0.102737
0.105644
0.107622
0.108618
0.0460311
0.0459655
0.0467439
0.047964
0.0497141
0.0520088
0.0548587
0.058273
0.0622495
0.0667675
0.0717772
0.0771899
0.0828691
0.0886254
0.0942191
0.0993755
0.103814
0.107293
0.109656
0.110841
0.0408681
0.0397797
0.0400045
0.0406596
0.0420082
0.0440465
0.0467963
0.0502839
0.0545154
0.0594738
0.0651046
0.0713017
0.0778965
0.0846511
0.0912634
0.0973875
0.102672
0.106816
0.109626
0.111033
0.0337406
0.0311489
0.0307064
0.0305286
0.0312664
0.0328472
0.0353109
0.0387077
0.043058
0.0483554
0.0545477
0.0615147
0.0690533
0.0768701
0.084589
0.0917799
0.0980076
0.102899
0.106214
0.107873
0.0243373
0.0196516
0.0183759
0.0169811
0.0168211
0.0176306
0.0194992
0.0225064
0.0266966
0.0320852
0.0386368
0.046229
0.0546286
0.0634851
0.0723402
0.0806656
0.0879247
0.0936535
0.097547
0.0994969
0.0121999
0.00476107
0.00246327
-0.000656113
-0.00209683
-0.00253389
-0.00174946
0.000361664
0.00388434
0.00887844
0.0153455
0.0231874
0.0321591
0.041859
0.0517443
0.0611763
0.0694978
0.0761296
0.0806732
0.0829598
-0.00317677
-0.0140817
-0.0176238
-0.0231167
-0.0263483
-0.0287282
-0.0297637
-0.0293508
-0.0273356
-0.0235688
-0.0179764
-0.0105832
-0.00159256
0.00857168
0.0192891
0.0297931
0.0392613
0.0469378
0.0522663
0.054966
-0.0223411
-0.0374301
-0.0424829
-0.0511451
-0.056839
-0.0621297
-0.066032
-0.0685038
-0.0692833
-0.068069
-0.0646317
-0.0588701
-0.0508538
-0.0409596
-0.0298684
-0.0184844
-0.00783394
0.00108018
0.00746732
0.0107689
-0.0458792
-0.065811
-0.0727087
-0.0854713
-0.0944862
-0.103947
-0.112126
-0.119103
-0.124464
-0.12766
-0.128179
-0.125629
-0.119873
-0.111097
-0.100008
-0.0877163
-0.0755897
-0.0650689
-0.0573677
-0.0532913
-0.0743571
-0.0995786
-0.108684
-0.126494
-0.139789
-0.15488
-0.168994
-0.18248
-0.194618
-0.204493
-0.211126
-0.213681
-0.211707
-0.205205
-0.194812
-0.181854
-0.168065
-0.155399
-0.145721
-0.140486
-0.107895
-0.13863
-0.15027
-0.173961
-0.192422
-0.214558
-0.23622
-0.258219
-0.279282
-0.29799
-0.312652
-0.321852
-0.324708
-0.321087
-0.311602
-0.29786
-0.282034
-0.266707
-0.254709
-0.248077
-0.145559
-0.181975
-0.196384
-0.22656
-0.250766
-0.281001
-0.311375
-0.343387
-0.374851
-0.403748
-0.427477
-0.444085
-0.452353
-0.452063
-0.443705
-0.429228
-0.411313
-0.393442
-0.378945
-0.370801
-0.185045
-0.228052
-0.244772
-0.281779
-0.31153
-0.349974
-0.38899
-0.430978
-0.472423
-0.510717
-0.542351
-0.565173
-0.57797
-0.580587
-0.573581
-0.558956
-0.539664
-0.519706
-0.503191
-0.493801
-0.228386
-0.276649
-0.293903
-0.337097
-0.370806
-0.416121
-0.461993
-0.512042
-0.561065
-0.606117
-0.643049
-0.669991
-0.686074
-0.691226
-0.685947
-0.67197
-0.652453
-0.631599
-0.614029
-0.603932
-0.277057
-0.324898
-0.343531
-0.388626
-0.424119
-0.473533
-0.52291
-0.577481
-0.630225
-0.67821
-0.717011
-0.745386
-0.762951
-0.769667
-0.765781
-0.752976
-0.734033
-0.713237
-0.695428
-0.685099
-0.327327
-0.369602
-0.389659
-0.431528
-0.468034
-0.516224
-0.56651
-0.621045
-0.673887
-0.721615
-0.75962
-0.78761
-0.805661
-0.813403
-0.810858
-0.798741
-0.780619
-0.760261
-0.742768
-0.732556
-0.373272
-0.407332
-0.42732
-0.462813
-0.498066
-0.541488
-0.588947
-0.639769
-0.689472
-0.733459
-0.768235
-0.793646
-0.810238
-0.817715
-0.815289
-0.804083
-0.786436
-0.76655
-0.749273
-0.739185
-0.409493
-0.434258
-0.452411
-0.480439
-0.511652
-0.548446
-0.589992
-0.634283
-0.677945
-0.716276
-0.746134
-0.767507
-0.781447
-0.787786
-0.785494
-0.774554
-0.757683
-0.73864
-0.722104
-0.712422
-0.432104
-0.447997
-0.463017
-0.483829
-0.508998
-0.538328
-0.571701
-0.60732
-0.64225
-0.671975
-0.693894
-0.708201
-0.716879
-0.720285
-0.717128
-0.707392
-0.692353
-0.675101
-0.659868
-0.650802
-0.439889
-0.448281
-0.459388
-0.473953
-0.492566
-0.514591
-0.539952
-0.567306
-0.594294
-0.61713
-0.632945
-0.64182
-0.646075
-0.646829
-0.643579
-0.635161
-0.621879
-0.60638
-0.592458
-0.583745
-0.433409
-0.436572
-0.44362
-0.452824
-0.465163
-0.479808
-0.496657
-0.514504
-0.531593
-0.544762
-0.5513
-0.551226
-0.548017
-0.544429
-0.540749
-0.535414
-0.527485
-0.516666
-0.50572
-0.497771
-0.414939
-0.414307
-0.418297
-0.423679
-0.431986
-0.44241
-0.455027
-0.469067
-0.483525
-0.496298
-0.504545
-0.506775
-0.504238
-0.501754
-0.500249
-0.498221
-0.490932
-0.478007
-0.46452
-0.45043
-0.387292
-0.382328
-0.383071
-0.384128
-0.387825
-0.393238
-0.400534
-0.408885
-0.417196
-0.422254
-0.41989
-0.409271
-0.395156
-0.386732
-0.386448
-0.389886
-0.3962
-0.398338
-0.395344
-0.387207
0.0659093
0.0660526
0.066136
0.0662701
0.0663957
0.0665343
0.0666755
0.0668187
0.0669615
0.0671016
0.0672368
0.067365
0.0674842
0.0675929
0.067689
0.0677714
0.0678388
0.0678902
0.0679249
0.0679424
0.0657105
0.0658616
0.0659371
0.0660757
0.0661948
0.0663346
0.0664735
0.0666172
0.0667604
0.0669019
0.067039
0.0671697
0.0672917
0.0674048
0.0675036
0.0675887
0.0676586
0.067712
0.0677481
0.0677663
0.0655124
0.0657446
0.0658657
0.0660611
0.0662362
0.0664277
0.0666195
0.0668123
0.067003
0.0671889
0.0673676
0.0675364
0.0676931
0.0678354
0.0679613
0.068069
0.068157
0.0682241
0.0682694
0.0682922
0.0651418
0.0654053
0.0655404
0.0657684
0.0659705
0.0661961
0.0664223
0.0666516
0.0668797
0.0671033
0.0673192
0.067524
0.0677149
0.0678888
0.0680431
0.0681755
0.068284
0.0683668
0.0684228
0.068451
0.0646904
0.0650883
0.0652972
0.0656286
0.0659276
0.0662515
0.066576
0.0669014
0.0672228
0.0675359
0.0678362
0.0681198
0.0683827
0.0686214
0.0688325
0.0690131
0.0691608
0.0692733
0.0693492
0.0693875
0.0639602
0.0644321
0.0646837
0.0650881
0.0654565
0.0658594
0.0662663
0.0666774
0.0670863
0.0674869
0.0678736
0.0682407
0.0685826
0.0688943
0.069171
0.0694084
0.0696029
0.0697516
0.069852
0.0699025
0.0630819
0.063799
0.064179
0.0647781
0.0653222
0.0659104
0.0665011
0.067094
0.0676803
0.0682519
0.0688009
0.0693197
0.0698013
0.0702387
0.070626
0.0709576
0.0712287
0.0714356
0.0715752
0.0716455
0.0617198
0.0625964
0.0630701
0.0638205
0.0645103
0.0652611
0.0660211
0.0667896
0.0675545
0.0683051
0.0690305
0.06972
0.0703634
0.0709506
0.0714725
0.071921
0.0722888
0.07257
0.0727601
0.0728559
0.0600237
0.0613404
0.0620452
0.0631496
0.0641592
0.0652501
0.0663492
0.0674547
0.0685504
0.069621
0.0706517
0.071628
0.0725361
0.0733629
0.0740961
0.0747251
0.0752402
0.0756337
0.0758994
0.0760334
0.0574751
0.0591165
0.0600086
0.0614121
0.0627084
0.0641177
0.0655483
0.0669974
0.0684437
0.0698669
0.0712467
0.0725627
0.0737945
0.0749226
0.0759284
0.076795
0.0775074
0.0780532
0.0784227
0.0786092
0.054228
0.0566523
0.0579544
0.0599967
0.0618699
0.0639002
0.0659531
0.0680258
0.0700883
0.0721122
0.0740693
0.0759313
0.0776707
0.0792612
0.0806775
0.0818969
0.0828989
0.0836665
0.0841858
0.0844479
0.0494419
0.0524946
0.0541586
0.0567623
0.0591771
0.061804
0.0644818
0.0672054
0.0699382
0.0726434
0.0752832
0.0778183
0.0802081
0.082412
0.0843903
0.086105
0.0875227
0.0886135
0.089355
0.08973
0.0432587
0.0476516
0.0500245
0.0537464
0.0571808
0.060921
0.0647284
0.0685994
0.0724815
0.0763228
0.0800699
0.0836677
0.0870597
0.0901898
0.0930022
0.0954446
0.0974664
0.0990258
0.100086
0.100622
0.0343208
0.0398826
0.0428942
0.0476146
0.0519966
0.0567877
0.0617053
0.0667486
0.0718615
0.0769826
0.0820455
0.0869758
0.0916927
0.096108
0.100131
0.103667
0.106631
0.108935
0.110518
0.111324
0.0226273
0.030305
0.0344798
0.0410318
0.0471341
0.0538346
0.0607376
0.067845
0.0750774
0.0823489
0.0895648
0.0966203
0.1034
0.10978
0.115627
0.120808
0.125174
0.128608
0.130969
0.132182
0.00626047
0.0158966
0.021072
0.0291891
0.0367324
0.0450484
0.0536919
0.0626904
0.0719872
0.0815049
0.0911499
0.100801
0.11031
0.119493
0.128141
0.135987
0.142799
0.14824
0.152109
0.154131
-0.0154514
-0.00303896
0.00373746
0.0144243
0.0245044
0.0357336
0.0475345
0.0599654
0.0729501
0.0863913
0.100163
0.11411
0.128019
0.141647
0.154666
0.166757
0.177402
0.186283
0.19259
0.196194
-0.0439904
-0.0289733
-0.0210554
-0.00856504
0.00310644
0.0161213
0.0298553
0.0444905
0.0600626
0.076597
0.0940845
0.112445
0.131549
0.151135
0.170847
0.189999
0.208122
0.223744
0.235984
0.243562
-0.0821074
-0.0648101
-0.0556377
-0.0409199
-0.0270271
-0.0111075
0.00609446
0.0249225
0.0454557
0.067823
0.0920678
0.118197
0.146062
0.175421
0.205825
0.236709
0.266535
0.296164
0.31787
0.339302
-0.127976
-0.108405
-0.0990721
-0.0832629
-0.0695672
-0.0534339
-0.0367574
-0.0182945
0.00195272
0.0245062
0.0497588
0.0783522
0.110889
0.148009
0.189727
0.236299
0.285886
0.33979
0.389325
0.437617
-0.387292
-0.382328
-0.383071
-0.384128
-0.387825
-0.393238
-0.400534
-0.408885
-0.417196
-0.422254
-0.41989
-0.409271
-0.395156
-0.386732
-0.386447
-0.389886
-0.3962
-0.398338
-0.395344
-0.387207
-0.414939
-0.414307
-0.418297
-0.423679
-0.431986
-0.44241
-0.455027
-0.469067
-0.483525
-0.496298
-0.504545
-0.506775
-0.504238
-0.501754
-0.500249
-0.498221
-0.490932
-0.478007
-0.46452
-0.45043
-0.433409
-0.436572
-0.443619
-0.452824
-0.465163
-0.479808
-0.496657
-0.514504
-0.531593
-0.544762
-0.5513
-0.551226
-0.548017
-0.544429
-0.540749
-0.535414
-0.527485
-0.516666
-0.50572
-0.497771
-0.439889
-0.448281
-0.459388
-0.473953
-0.492566
-0.514591
-0.539952
-0.567306
-0.594294
-0.61713
-0.632945
-0.64182
-0.646075
-0.646829
-0.643579
-0.635161
-0.621879
-0.60638
-0.592458
-0.583745
-0.432103
-0.447997
-0.463017
-0.483829
-0.508998
-0.538328
-0.571701
-0.60732
-0.64225
-0.671975
-0.693894
-0.708201
-0.716879
-0.720285
-0.717128
-0.707392
-0.692353
-0.675101
-0.659868
-0.650802
-0.409493
-0.434258
-0.452411
-0.480439
-0.511652
-0.548446
-0.589992
-0.634283
-0.677945
-0.716276
-0.746134
-0.767507
-0.781447
-0.787786
-0.785494
-0.774554
-0.757683
-0.73864
-0.722104
-0.712422
-0.373272
-0.407332
-0.42732
-0.462813
-0.498066
-0.541488
-0.588947
-0.639769
-0.689472
-0.733459
-0.768235
-0.793646
-0.810238
-0.817715
-0.815289
-0.804083
-0.786436
-0.76655
-0.749273
-0.739185
-0.327327
-0.369602
-0.389659
-0.431528
-0.468034
-0.516224
-0.56651
-0.621045
-0.673887