/*--------------------------------*- C++ -*----------------------------------*\
  =========                 |
  \\      /  F ield         | OpenFOAM: The Open Source CFD Toolbox
   \\    /   O peration     | Website:  https://openfoam.org
    \\  /    A nd           | Version:  7
     \\/     M anipulation  |
\*---------------------------------------------------------------------------*/
FoamFile
{
    version     2.0;
    format      ascii;
    class       surfaceScalarField;
    location    "5";
    object      phi;
}
// * * * * * * * * * * * * * * * * * * * * * * * * * * * * * * * * * * * * * //

dimensions      [0 3 -1 0 0 0 0];

internalField   nonuniform List<scalar> 
131
(
-0.0034482
-0.000864237
-0.0033158
-0.00151598
-0.00305553
-0.00312159
-0.00269803
-0.00442027
-0.0166129
-5.62818e-05
-0.0165605
-0.000220131
-0.016435
-0.00042008
-0.0161715
-0.00112777
-0.0156648
-0.00202264
-0.0148021
-0.00398434
-0.00559892
-0.0166178
-7.15249e-05
-0.0165781
-0.00025988
-0.0164857
-0.000512474
-0.0163178
-0.00129567
-0.0160315
-0.0023089
-0.0156635
-0.00435238
-0.00588591
-0.0166234
-8.36432e-05
-0.0165941
-0.000289116
-0.0165303
-0.000576345
-0.0164321
-0.00139379
-0.0162892
-0.00245182
-0.0161865
-0.00445513
-0.00580559
-0.0166284
-9.30748e-05
-0.0166073
-0.000310158
-0.0165627
-0.000620911
-0.0165056
-0.0014509
-0.0164326
-0.00252485
-0.0164336
-0.00445419
-0.00562918
-0.0166329
-0.000100198
-0.0166182
-0.000324917
-0.0165864
-0.000652679
-0.016552
-0.00148529
-0.0165089
-0.0025679
-0.0165394
-0.00442371
-0.00545868
-0.0166373
-0.000105205
-0.0166279
-0.000334312
-0.0166059
-0.000674649
-0.0165868
-0.0015044
-0.0165605
-0.0025942
-0.0166032
-0.00438097
-0.0053027
-0.0166415
-0.000108217
-0.016637
-0.000338828
-0.0166233
-0.000688301
-0.016616
-0.00151169
-0.0166006
-0.00260967
-0.0166474
-0.00433419
-0.00516781
-0.0166455
-0.000109383
-0.0166454
-0.00033889
-0.0166392
-0.000694581
-0.016642
-0.0015088
-0.0166358
-0.00261588
-0.0166876
-0.00428245
-0.00504513
-0.0166489
-0.000109021
-0.0166524
-0.000335297
-0.016652
-0.000694978
-0.0166628
-0.00149803
-0.0166634
-0.00261526
-0.0167182
-0.00422773
-0.00493525
-0.0166507
-0.0166577
-0.0166588
-0.0166771
-0.0166806
-0.0167469
)
;

boundaryField
{
    inlet
    {
        type            calculated;
        value           nonuniform 0();
    }
    outlet
    {
        type            calculated;
        value           nonuniform List<scalar> 10(0.016631 0.0166331 0.0166355 0.0166378 0.01664 0.0166423 0.0166445 0.0166467 0.0166485 0.0166497);
    }
    polygon
    {
        type            calculated;
        value           nonuniform 0();
    }
    top
    {
        type            symmetryPlane;
        value           uniform 0;
    }
    bottom
    {
        type            symmetryPlane;
        value           uniform 0;
    }
    outside
    {
        type            calculated;
        value           nonuniform List<scalar> 7(-0.00010804 -0.000328306 -0.000693855 -0.0014797 -0.00261181 -0.00416139 -0.00482424);
    }
    procBoundary3to2
    {
        type            processor;
        value           nonuniform List<scalar> 5(-0.0167592 -0.0167823 -0.0168102 -0.016828 -0.0168579);
    }
    procBoundary3to6
    {
        type            processor;
        value           nonuniform List<scalar> 7(-0.00212733 -0.0069928 -0.0136234 -0.0153765 -0.0162668 -0.01661 -0.0167099);
    }
    procBoundary3to7
    {
        type            processor;
        value           nonuniform List<scalar> 9(0.000787573 0.00138358 0.00286132 0.00406277 0.0064221 3.81458e-05 0.000167727 0.00352486 0.00029464);
    }
}


// ************************************************************************* //
