/*--------------------------------*- C++ -*----------------------------------*\
  =========                 |
  \\      /  F ield         | OpenFOAM: The Open Source CFD Toolbox
   \\    /   O peration     | Website:  https://openfoam.org
    \\  /    A nd           | Version:  10
     \\/     M anipulation  |
\*---------------------------------------------------------------------------*/
FoamFile
{
    format      ascii;
    class       volScalarField;
    location    "10";
    object      p;
}
// * * * * * * * * * * * * * * * * * * * * * * * * * * * * * * * * * * * * * //

dimensions      [0 2 -2 0 0 0 0];

internalField   nonuniform List<scalar> 
2000
(
0.0028567
0.00762231
0.0114821
0.0177621
0.00949712
0.0234046
-0.0225076
-0.00656572
-0.13484
-0.112273
0.00285952
0.00763307
0.0114921
0.0177969
0.00951938
0.0234947
-0.022437
-0.00638274
-0.134566
-0.112192
0.0028621
0.00764331
0.011503
0.0178299
0.00954651
0.0235759
-0.0223621
-0.0062188
-0.134313
-0.112049
0.0028643
0.00765216
0.0115122
0.0178594
0.00957011
0.0236523
-0.0222922
-0.00605273
-0.134068
-0.111935
0.00286607
0.00765942
0.0115193
0.0178851
0.00958901
0.0237231
-0.0222289
-0.0058869
-0.133837
-0.111852
0.00286741
0.00766516
0.0115245
0.017907
0.00960378
0.0237878
-0.0221716
-0.00572383
-0.133622
-0.11179
0.00286833
0.00766936
0.0115279
0.0179251
0.00961457
0.0238464
-0.0221201
-0.00556423
-0.133422
-0.111747
0.0028688
0.00767195
0.0115292
0.0179395
0.00962113
0.0238997
-0.0220736
-0.00540764
-0.133239
-0.111723
0.00286886
0.00767299
0.0115286
0.0179497
0.00962318
0.0239473
-0.0220342
-0.00524937
-0.13307
-0.111721
0.00286882
0.00767324
0.0115275
0.0179544
0.0096218
0.0239772
-0.0220151
-0.00510688
-0.132902
-0.111745
0.00282765
0.00750424
0.0113913
0.0172713
0.00923439
0.0217918
-0.023813
-0.0108965
-0.140564
-0.113257
0.00283208
0.00752178
0.0114077
0.0173377
0.00927925
0.0219863
-0.023649
-0.0104078
-0.139618
-0.113356
0.00283544
0.00753543
0.0114187
0.0173964
0.00931297
0.0221824
-0.0234848
-0.00989105
-0.139049
-0.112999
0.00283879
0.00754879
0.0114297
0.0174508
0.00934436
0.0223582
-0.0233402
-0.00943625
-0.138484
-0.112773
0.00284197
0.00756167
0.0114402
0.0175032
0.00937467
0.0225275
-0.0232004
-0.00898928
-0.137898
-0.112634
0.00284486
0.00757366
0.0114496
0.0175537
0.00940308
0.0226941
-0.0230616
-0.00853929
-0.137326
-0.112509
0.00284744
0.00758467
0.0114579
0.0176021
0.00942947
0.0228578
-0.0229242
-0.00809092
-0.136771
-0.11239
0.00284966
0.00759463
0.0114649
0.0176486
0.009454
0.0230202
-0.0227857
-0.00763738
-0.136222
-0.112277
0.00285154
0.00760341
0.0114701
0.017692
0.00947438
0.0231784
-0.0226523
-0.00717104
-0.13567
-0.112182
0.00285358
0.00761172
0.0114742
0.0177274
0.00948463
0.0233043
-0.0225644
-0.00678507
-0.13519
-0.112184
-0.143838
-0.153439
-0.162393
-0.180191
-0.200116
-0.239732
-0.281626
-0.377275
-0.489818
-0.750329
-0.143797
-0.15346
-0.162294
-0.180018
-0.199723
-0.238958
-0.280958
-0.374863
-0.493611
-0.722578
-0.143756
-0.153478
-0.162266
-0.179973
-0.199673
-0.238739
-0.281478
-0.374506
-0.499568
-0.694407
-0.143694
-0.153454
-0.162193
-0.179851
-0.19952
-0.238347
-0.281652
-0.373794
-0.504005
-0.678033
-0.143604
-0.153379
-0.162045
-0.179598
-0.199144
-0.237596
-0.281121
-0.372235
-0.506097
-0.667628
-0.143488
-0.153258
-0.161832
-0.179237
-0.19859
-0.236566
-0.280069
-0.370192
-0.506767
-0.659891
-0.143351
-0.153095
-0.161565
-0.178785
-0.197897
-0.235312
-0.278612
-0.367846
-0.506583
-0.6546
-0.143193
-0.152891
-0.161246
-0.178243
-0.197065
-0.233836
-0.276747
-0.365176
-0.505603
-0.651737
-0.143015
-0.152647
-0.160874
-0.17761
-0.196087
-0.232117
-0.274427
-0.362035
-0.503704
-0.651766
-0.142816
-0.152361
-0.160448
-0.176887
-0.194976
-0.230207
-0.27185
-0.3591
-0.502406
-0.652004
-0.142233
-0.149994
-0.160246
-0.17738
-0.199477
-0.239007
-0.282415
-0.386654
-0.464976
-0.916118
-0.1426
-0.150597
-0.160716
-0.177968
-0.199825
-0.239588
-0.282297
-0.387679
-0.463995
-0.886959
-0.142929
-0.151184
-0.161234
-0.178706
-0.20052
-0.240787
-0.283602
-0.390278
-0.46921
-0.845395
-0.143211
-0.151713
-0.161699
-0.179383
-0.201173
-0.241893
-0.285007
-0.392281
-0.475513
-0.815224
-0.143441
-0.152168
-0.162065
-0.179906
-0.201603
-0.242597
-0.285882
-0.392911
-0.480175
-0.795234
-0.143621
-0.15255
-0.162334
-0.180282
-0.201816
-0.24292
-0.286239
-0.392391
-0.483268
-0.779525
-0.143753
-0.152864
-0.162519
-0.180529
-0.201853
-0.242933
-0.286202
-0.391018
-0.48544
-0.766139
-0.143841
-0.153112
-0.162623
-0.180657
-0.201726
-0.242661
-0.285808
-0.388877
-0.486888
-0.755204
-0.143885
-0.153296
-0.162646
-0.180661
-0.201429
-0.242093
-0.285029
-0.385972
-0.487816
-0.746742
-0.143887
-0.153415
-0.162588
-0.180541
-0.200955
-0.241216
-0.283802
-0.382057
-0.487022
-0.740141
-0.135458
-0.140158
-0.151216
-0.166066
-0.188606
-0.222886
-0.267432
-0.337612
-0.43672
-0.757075
-0.136397
-0.141433
-0.152411
-0.167515
-0.190053
-0.224959
-0.269594
-0.344649
-0.43895
-0.763506
-0.137283
-0.142682
-0.153645
-0.169108
-0.191817
-0.227632
-0.272706
-0.353275
-0.444298
-0.756396
-0.138109
-0.143867
-0.154815
-0.170631
-0.193499
-0.230219
-0.275671
-0.361453
-0.450546
-0.761006
-0.138875
-0.144972
-0.155879
-0.172003
-0.194944
-0.232439
-0.278048
-0.368383
-0.456225
-0.774624
-0.13958
-0.145998
-0.156843
-0.17323
-0.19617
-0.234304
-0.279935
-0.374099
-0.461006
-0.791685
-0.140227
-0.14695
-0.157715
-0.174334
-0.197216
-0.235858
-0.281446
-0.378736
-0.464971
-0.810689
-0.140816
-0.147829
-0.1585
-0.175317
-0.198099
-0.23716
-0.28255
-0.382448
-0.467995
-0.832215
-0.141348
-0.148634
-0.159195
-0.176176
-0.198817
-0.238195
-0.283216
-0.38525
-0.469418
-0.857605
-0.141824
-0.149365
-0.159799
-0.176907
-0.199358
-0.238939
-0.283431
-0.387019
-0.468267
-0.88541
-0.123197
-0.124323
-0.135579
-0.147655
-0.169045
-0.197465
-0.22946
-0.258514
-0.288086
-0.16683
-0.126266
-0.128075
-0.139917
-0.152792
-0.175074
-0.204739
-0.238648
-0.269323
-0.310132
-0.197159
-0.127816
-0.129994
-0.141788
-0.154837
-0.177042
-0.207047
-0.242636
-0.277187
-0.334036
-0.24502
-0.128732
-0.131216
-0.142842
-0.156046
-0.178215
-0.208707
-0.246276
-0.285914
-0.355562
-0.29595
-0.12967
-0.132486
-0.144025
-0.157502
-0.179837
-0.211039
-0.250577
-0.295083
-0.374413
-0.347218
-0.130705
-0.133869
-0.145368
-0.159152
-0.181687
-0.213598
-0.254804
-0.303792
-0.391363
-0.401832
-0.13174
-0.135242
-0.146693
-0.160755
-0.183424
-0.215946
-0.25848
-0.311862
-0.406485
-0.461618
-0.132724
-0.136545
-0.147927
-0.16223
-0.184963
-0.218017
-0.261581
-0.319385
-0.419228
-0.527063
-0.133655
-0.137779
-0.149077
-0.163596
-0.18634
-0.219879
-0.264177
-0.326358
-0.429002
-0.598949
-0.134543
-0.138956
-0.150157
-0.164869
-0.187573
-0.22154
-0.266224
-0.33256
-0.434721
-0.675903
0.0370532
0.0319442
0.0419365
0.0314626
0.052239
0.0358161
0.0864564
0.0604541
0.23295
0.183055
0.0370465
0.031948
0.041911
0.0314955
0.052169
0.0359541
0.0861918
0.0609084
0.231086
0.172273
0.037039
0.0319525
0.0418826
0.0315333
0.0520931
0.0361067
0.0859154
0.0614328
0.229084
0.162289
0.0370315
0.0319555
0.041854
0.0315682
0.0520133
0.036244
0.085617
0.0618522
0.226828
0.151783
0.0370239
0.0319573
0.0418248
0.0316007
0.051929
0.0363706
0.0852925
0.062191
0.22428
0.14049
0.0370162
0.0319582
0.0417947
0.0316315
0.0518398
0.0364881
0.0849418
0.0624599
0.221429
0.128553
0.0370084
0.031958
0.0417635
0.0316601
0.0517461
0.0365943
0.0845639
0.0626482
0.218263
0.116034
0.0370004
0.0319563
0.0417314
0.0316867
0.0516506
0.0366921
0.0841694
0.0627744
0.214902
0.10293
0.0369919
0.0319545
0.0417036
0.0317159
0.0515512
0.0368008
0.0837739
0.0629369
0.211485
0.0891865
0.0369819
0.0319564
0.04167
0.0317486
0.0514207
0.0368891
0.0832599
0.0628918
0.206559
0.0746142
0.0370849
0.0319444
0.0420695
0.0313388
0.0526587
0.0353203
0.0881765
0.0594339
0.243834
0.243555
0.0370829
0.0319489
0.0420636
0.0313557
0.0526504
0.0353984
0.0881795
0.0598338
0.24413
0.242306
0.0370806
0.0319522
0.0420559
0.0313718
0.052634
0.0354657
0.0881367
0.0601376
0.244037
0.240087
0.0370782
0.0319543
0.0420466
0.0313861
0.0526096
0.0355249
0.0880509
0.0603634
0.243624
0.236846
0.0370755
0.0319554
0.0420354
0.031399
0.0525773
0.0355782
0.0879232
0.0605227
0.242895
0.232545
0.0370726
0.0319555
0.0420224
0.0314107
0.0525372
0.0356248
0.0877539
0.0606137
0.241844
0.22718
0.0370695
0.0319546
0.0420077
0.031421
0.0524893
0.0356649
0.0875442
0.0606376
0.240475
0.220754
0.0370661
0.0319526
0.0419913
0.0314295
0.0524332
0.0356966
0.0872917
0.0605871
0.238764
0.21331
0.0370627
0.0319493
0.0419728
0.0314358
0.052369
0.0357168
0.086988
0.0604409
0.236595
0.204874
0.0370585
0.0319459
0.0419529
0.0314447
0.0523001
0.0357443
0.0866656
0.0602993
0.234221
0.194914
0.0370585
0.0319459
0.0419529
0.0314447
0.0523001
0.0357443
0.0866656
0.0602993
0.234221
0.194914
0.0370627
0.0319493
0.0419728
0.0314358
0.052369
0.0357168
0.086988
0.0604409
0.236595
0.204874
0.0370661
0.0319526
0.0419913
0.0314295
0.0524332
0.0356966
0.0872917
0.0605871
0.238764
0.21331
0.0370695
0.0319546
0.0420077
0.031421
0.0524893
0.0356649
0.0875442
0.0606376
0.240475
0.220754
0.0370726
0.0319555
0.0420224
0.0314107
0.0525372
0.0356248
0.0877539
0.0606137
0.241844
0.22718
0.0370755
0.0319554
0.0420354
0.031399
0.0525773
0.0355781
0.0879232
0.0605227
0.242895
0.232545
0.0370782
0.0319543
0.0420466
0.0313861
0.0526096
0.0355249
0.0880509
0.0603634
0.243624
0.236846
0.0370806
0.0319522
0.0420559
0.0313718
0.052634
0.0354657
0.0881367
0.0601376
0.244037
0.240087
0.0370829
0.0319489
0.0420636
0.0313557
0.0526504
0.0353984
0.0881795
0.0598338
0.24413
0.242306
0.0370849
0.0319444
0.0420695
0.0313388
0.0526587
0.0353203
0.0881765
0.0594339
0.243834
0.243555
0.0369819
0.0319564
0.04167
0.0317486
0.0514207
0.0368891
0.0832599
0.0628918
0.206559
0.0746142
0.0369919
0.0319545
0.0417036
0.0317159
0.0515512
0.0368008
0.0837739
0.0629369
0.211485
0.0891865
0.0370004
0.0319563
0.0417314
0.0316867
0.0516506
0.0366921
0.0841694
0.0627744
0.214902
0.10293
0.0370084
0.031958
0.0417635
0.0316601
0.0517461
0.0365943
0.0845639
0.0626482
0.218263
0.116034
0.0370162
0.0319582
0.0417947
0.0316315
0.0518398
0.0364881
0.0849418
0.0624599
0.221429
0.128553
0.0370239
0.0319573
0.0418248
0.0316007
0.051929
0.0363706
0.0852925
0.062191
0.22428
0.14049
0.0370315
0.0319555
0.041854
0.0315682
0.0520133
0.036244
0.085617
0.0618522
0.226828
0.151783
0.037039
0.0319525
0.0418826
0.0315333
0.052093
0.0361067
0.0859154
0.0614328
0.229084
0.162289
0.0370465
0.031948
0.041911
0.0314955
0.052169
0.0359541
0.0861918
0.0609084
0.231087
0.172273
0.0370532
0.0319442
0.0419365
0.0314626
0.052239
0.0358161
0.0864564
0.060454
0.23295
0.183055
-0.134543
-0.138956
-0.150157
-0.164869
-0.187573
-0.22154
-0.266224
-0.33256
-0.434721
-0.675903
-0.133655
-0.137779
-0.149077
-0.163596
-0.18634
-0.219879
-0.264177
-0.326358
-0.429002
-0.598949
-0.132724
-0.136545
-0.147927
-0.16223
-0.184963
-0.218017
-0.261581
-0.319385
-0.419228
-0.527063
-0.13174
-0.135242
-0.146693
-0.160755
-0.183424
-0.215946
-0.25848
-0.311862
-0.406485
-0.461618
-0.130705
-0.133869
-0.145368
-0.159152
-0.181687
-0.213598
-0.254804
-0.303792
-0.391363
-0.401832
-0.12967
-0.132486
-0.144025
-0.157502
-0.179837
-0.211039
-0.250577
-0.295083
-0.374413
-0.347218
-0.128732
-0.131216
-0.142842
-0.156046
-0.178215
-0.208707
-0.246276
-0.285914
-0.355562
-0.29595
-0.127816
-0.129994
-0.141788
-0.154837
-0.177042
-0.207047
-0.242636
-0.277187
-0.334036
-0.24502
-0.126266
-0.128075
-0.139917
-0.152792
-0.175074
-0.204739
-0.238648
-0.269323
-0.310132
-0.197159
-0.123197
-0.124323
-0.135579
-0.147655
-0.169045
-0.197465
-0.22946
-0.258514
-0.288086
-0.16683
-0.141824
-0.149365
-0.159799
-0.176907
-0.199358
-0.238939
-0.283431
-0.387019
-0.468267
-0.88541
-0.141348
-0.148634
-0.159195
-0.176176
-0.198817
-0.238195
-0.283216
-0.38525
-0.469418
-0.857605
-0.140816
-0.147829
-0.1585
-0.175317
-0.198099
-0.23716
-0.28255
-0.382448
-0.467995
-0.832215
-0.140227
-0.14695
-0.157715
-0.174334
-0.197216
-0.235858
-0.281446
-0.378736
-0.464971
-0.810689
-0.13958
-0.145998
-0.156843
-0.17323
-0.19617
-0.234304
-0.279935
-0.374099
-0.461006
-0.791685
-0.138875
-0.144972
-0.155879
-0.172003
-0.194944
-0.232439
-0.278048
-0.368383
-0.456225
-0.774624
-0.138109
-0.143867
-0.154815
-0.170631
-0.193499
-0.230219
-0.275671
-0.361453
-0.450546
-0.761006
-0.137283
-0.142682
-0.153645
-0.169108
-0.191817
-0.227632
-0.272706
-0.353275
-0.444298
-0.756396
-0.136397
-0.141433
-0.152411
-0.167515
-0.190053
-0.224959
-0.269594
-0.344649
-0.43895
-0.763506
-0.135458
-0.140158
-0.151216
-0.166066
-0.188606
-0.222886
-0.267432
-0.337612
-0.43672
-0.757075
-0.143887
-0.153415
-0.162588
-0.180541
-0.200955
-0.241216
-0.283802
-0.382057
-0.487022
-0.740141
-0.143885
-0.153296
-0.162646
-0.180661
-0.201429
-0.242093
-0.285029
-0.385972
-0.487816
-0.746742
-0.143841
-0.153112
-0.162623
-0.180657
-0.201726
-0.242661
-0.285808
-0.388877
-0.486888
-0.755204
-0.143753
-0.152864
-0.162519
-0.180529
-0.201853
-0.242933
-0.286202
-0.391018
-0.48544
-0.766139
-0.143621
-0.15255
-0.162334
-0.180282
-0.201816
-0.24292
-0.286239
-0.392391
-0.483268
-0.779525
-0.143441
-0.152168
-0.162065
-0.179906
-0.201603
-0.242597
-0.285882
-0.392911
-0.480175
-0.795234
-0.143211
-0.151713
-0.161699
-0.179383
-0.201173
-0.241893
-0.285007
-0.392281
-0.475513
-0.815224
-0.142929
-0.151184
-0.161234
-0.178706
-0.20052
-0.240787
-0.283602
-0.390278
-0.46921
-0.845395
-0.1426
-0.150597
-0.160716
-0.177968
-0.199825
-0.239588
-0.282297
-0.387679
-0.463995
-0.886959
-0.142233
-0.149994
-0.160246
-0.17738
-0.199477
-0.239007
-0.282415
-0.386654
-0.464976
-0.916118
-0.142816
-0.152361
-0.160448
-0.176887
-0.194976
-0.230207
-0.27185
-0.3591
-0.502406
-0.652004
-0.143015
-0.152647
-0.160874
-0.17761
-0.196087
-0.232117
-0.274427
-0.362035
-0.503704
-0.651766
-0.143193
-0.152891
-0.161246
-0.178243
-0.197065
-0.233836
-0.276747
-0.365176
-0.505603
-0.651737
-0.143351
-0.153095
-0.161565
-0.178785
-0.197897
-0.235312
-0.278612
-0.367846
-0.506583
-0.6546
-0.143488
-0.153258
-0.161832
-0.179237
-0.19859
-0.236566
-0.280069
-0.370192
-0.506767
-0.659891
-0.143604
-0.153379
-0.162045
-0.179598
-0.199144
-0.237596
-0.281121
-0.372235
-0.506097
-0.667628
-0.143694
-0.153454
-0.162193
-0.179851
-0.19952
-0.238347
-0.281652
-0.373794
-0.504005
-0.678033
-0.143756
-0.153478
-0.162266
-0.179973
-0.199673
-0.238739
-0.281478
-0.374506
-0.499568
-0.694407
-0.143797
-0.15346
-0.162294
-0.180018
-0.199723
-0.238958
-0.280958
-0.374863
-0.493611
-0.722578
-0.143838
-0.153439
-0.162393
-0.180191
-0.200116
-0.239732
-0.281626
-0.377275
-0.489818
-0.750329
0.00285358
0.00761172
0.0114742
0.0177274
0.00948463
0.0233043
-0.0225644
-0.00678506
-0.13519
-0.112184
0.00285154
0.00760341
0.0114701
0.017692
0.00947438
0.0231784
-0.0226523
-0.00717104
-0.13567
-0.112182
0.00284966
0.00759463
0.0114649
0.0176486
0.009454
0.0230202
-0.0227857
-0.00763738
-0.136222
-0.112277
0.00284744
0.00758468
0.0114579
0.0176021
0.00942947
0.0228578
-0.0229242
-0.00809092
-0.136771
-0.11239
0.00284486
0.00757366
0.0114496
0.0175537
0.00940309
0.0226941
-0.0230616
-0.00853929
-0.137326
-0.112509
0.00284197
0.00756167
0.0114402
0.0175032
0.00937467
0.0225275
-0.0232004
-0.00898928
-0.137898
-0.112634
0.00283879
0.00754879
0.0114297
0.0174508
0.00934436
0.0223582
-0.0233402
-0.00943625
-0.138484
-0.112773
0.00283544
0.00753543
0.0114187
0.0173964
0.00931297
0.0221824
-0.0234848
-0.00989105
-0.139049
-0.112999
0.00283208
0.00752178
0.0114077
0.0173377
0.00927925
0.0219863
-0.023649
-0.0104078
-0.139618
-0.113356
0.00282765
0.00750424
0.0113913
0.0172713
0.00923439
0.0217918
-0.023813
-0.0108965
-0.140564
-0.113257
0.00286882
0.00767324
0.0115275
0.0179544
0.0096218
0.0239772
-0.0220151
-0.00510688
-0.132902
-0.111745
0.00286886
0.00767299
0.0115286
0.0179497
0.00962318
0.0239473
-0.0220342
-0.00524937
-0.13307
-0.111721
0.0028688
0.00767195
0.0115292
0.0179395
0.00962113
0.0238997
-0.0220736
-0.00540764
-0.133239
-0.111723
0.00286833
0.00766936
0.0115279
0.0179251
0.00961457
0.0238464
-0.0221201
-0.00556423
-0.133422
-0.111747
0.00286741
0.00766516
0.0115245
0.017907
0.00960378
0.0237878
-0.0221716
-0.00572383
-0.133622
-0.11179
0.00286607
0.00765942
0.0115193
0.0178851
0.00958901
0.0237231
-0.0222289
-0.0058869
-0.133837
-0.111852
0.0028643
0.00765216
0.0115122
0.0178594
0.00957011
0.0236523
-0.0222922
-0.00605273
-0.134068
-0.111935
0.0028621
0.00764331
0.011503
0.0178299
0.00954651
0.0235759
-0.0223621
-0.0062188
-0.134313
-0.112049
0.00285952
0.00763307
0.0114921
0.0177969
0.00951938
0.0234947
-0.022437
-0.00638274
-0.134566
-0.112192
0.0028567
0.00762231
0.0114821
0.0177621
0.00949712
0.0234046
-0.0225076
-0.00656572
-0.13484
-0.112273
0.0344194
0.0316602
0.0345908
0.0289753
0.0295457
0.0202613
0.0102291
-0.0021979
-0.0444395
-0.0583095
0.0349376
0.0314123
0.0356912
0.0290519
0.0322765
0.0224828
0.0171297
0.00466095
-0.0359858
-0.0443265
0.035185
0.031397
0.0363728
0.029246
0.0340675
0.0236761
0.0214101
0.00832907
-0.0290593
-0.0395822
0.0355614
0.0313448
0.037314
0.0295013
0.0367019
0.0254144
0.0288073
0.0138108
-0.0177523
-0.0315342
0.0358716
0.0313619
0.0381916
0.0298276
0.0392248
0.0271216
0.0361245
0.0189612
-0.00386152
-0.0273838
0.0361636
0.0314366
0.039027
0.0301899
0.0419401
0.028924
0.0449201
0.0247823
0.0161006
-0.0252678
0.0364409
0.0314722
0.0398682
0.030569
0.0445378
0.0308184
0.053835
0.0314556
0.0406363
-0.021727
0.0366438
0.0316437
0.0404072
0.0310115
0.0468455
0.0327828
0.0629868
0.0387657
0.0750762
-0.0328784
0.0368643
0.0316689
0.0412192
0.0312446
0.0491224
0.0344036
0.0720536
0.047518
0.119057
-0.000581762
0.0369214
0.0319981
0.041163
0.0318682
0.0504931
0.0366112
0.0791996
0.0579164
0.161632
-0.00554868
0.0369214
0.0319981
0.041163
0.0318682
0.0504931
0.0366112
0.0791996
0.0579164
0.161632
-0.00554869
0.0368643
0.0316689
0.0412192
0.0312446
0.0491224
0.0344036
0.0720536
0.047518
0.119057
-0.000581769
0.0366438
0.0316437
0.0404072
0.0310115
0.0468456
0.0327828
0.0629868
0.0387657
0.0750762
-0.0328784
0.0364409
0.0314722
0.0398682
0.030569
0.0445378
0.0308184
0.053835
0.0314556
0.0406363
-0.021727
0.0361636
0.0314366
0.039027
0.0301899
0.0419401
0.028924
0.0449201
0.0247823
0.0161006
-0.0252678
0.0358716
0.0313619
0.0381916
0.0298276
0.0392248
0.0271216
0.0361245
0.0189612
-0.00386153
-0.0273838
0.0355614
0.0313448
0.037314
0.0295013
0.0367019
0.0254144
0.0288073
0.0138108
-0.0177523
-0.0315342
0.035185
0.031397
0.0363728
0.029246
0.0340675
0.0236761
0.0214101
0.00832906
-0.0290593
-0.0395822
0.0349376
0.0314123
0.0356912
0.0290519
0.0322765
0.0224828
0.0171297
0.00466095
-0.0359858
-0.0443265
0.0344194
0.0316602
0.0345908
0.0289753
0.0295456
0.0202613
0.010229
-0.0021979
-0.0444395
-0.0583095
0.00279279
0.00737752
0.0112716
0.0169128
0.00898902
0.0211003
-0.0242887
-0.0118185
-0.14884
-0.105535
0.00269672
0.00709612
0.010913
0.0162578
0.00838677
0.020113
-0.0246325
-0.0124369
-0.139311
-0.119885
0.00257635
0.00678058
0.0105121
0.0155202
0.00780277
0.0188307
-0.0248355
-0.01448
-0.141256
-0.144373
0.00243944
0.00644877
0.0100935
0.0148013
0.00729188
0.0177368
-0.0245624
-0.0151874
-0.12962
-0.149108
0.00229307
0.00611217
0.00967315
0.0141213
0.00685505
0.016774
-0.0241008
-0.0165283
-0.124643
-0.152209
0.00214219
0.00577722
0.00926208
0.0134995
0.00651461
0.0160519
-0.0232158
-0.0163043
-0.112895
-0.148861
0.00198805
0.00544372
0.00886062
0.0129361
0.00625347
0.0154998
-0.0223331
-0.0167792
-0.107097
-0.145369
0.00183015
0.00511297
0.00847532
0.0124429
0.00608773
0.0152297
-0.0208351
-0.0155046
-0.0947078
-0.140736
0.0016915
0.0048194
0.00812995
0.0120108
0.00596924
0.0150348
-0.0199751
-0.0154613
-0.0909614
-0.137268
0.00146883
0.00437111
0.00763852
0.0115404
0.00598245
0.015297
-0.0174424
-0.012875
-0.0760852
-0.132536
0.00146882
0.00437111
0.00763852
0.0115404
0.00598245
0.015297
-0.0174424
-0.012875
-0.0760852
-0.132536
0.0016915
0.0048194
0.00812995
0.0120108
0.00596924
0.0150348
-0.0199751
-0.0154613
-0.0909614
-0.137268
0.00183015
0.00511297
0.00847532
0.0124429
0.00608773
0.0152297
-0.0208351
-0.0155046
-0.0947078
-0.140736
0.00198805
0.00544372
0.00886062
0.0129361
0.00625347
0.0154998
-0.0223331
-0.0167792
-0.107097
-0.145369
0.00214219
0.00577722
0.00926208
0.0134995
0.00651461
0.0160519
-0.0232158
-0.0163043
-0.112895
-0.148861
0.00229306
0.00611217
0.00967315
0.0141213
0.00685505
0.016774
-0.0241008
-0.0165283
-0.124643
-0.152209
0.00243944
0.00644877
0.0100935
0.0148013
0.00729188
0.0177368
-0.0245624
-0.0151874
-0.12962
-0.149108
0.00257635
0.00678058
0.0105121
0.0155202
0.00780277
0.0188307
-0.0248355
-0.01448
-0.141256
-0.144373
0.00269672
0.00709612
0.010913
0.0162578
0.00838677
0.020113
-0.0246325
-0.0124369
-0.139311
-0.119885
0.00279279
0.00737752
0.0112716
0.0169128
0.00898902
0.0211003
-0.0242887
-0.0118185
-0.14884
-0.105535
)
;

boundaryField
{
    inlet
    {
        type            zeroGradient;
    }
    outlet
    {
        type            fixedValue;
        value           uniform 0;
    }
    polygon
    {
        type            zeroGradient;
    }
    top
    {
        type            symmetryPlane;
    }
    bottom
    {
        type            symmetryPlane;
    }
    outside
    {
        type            slip;
    }
}


// ************************************************************************* //
