/*--------------------------------*- C++ -*----------------------------------*\
  =========                 |
  \\      /  F ield         | OpenFOAM: The Open Source CFD Toolbox
   \\    /   O peration     | Website:  https://openfoam.org
    \\  /    A nd           | Version:  10
     \\/     M anipulation  |
\*---------------------------------------------------------------------------*/
FoamFile
{
    format      ascii;
    class       surfaceScalarField;
    location    "10";
    object      phi;
}
// * * * * * * * * * * * * * * * * * * * * * * * * * * * * * * * * * * * * * //

dimensions      [0 3 -1 0 0 0 0];

internalField   nonuniform List<scalar> 
3800
(
-0.00183168
0.000479973
-0.000530868
-0.00173602
0.000907515
-0.00100317
-0.00161764
0.0011324
-0.00125078
-0.00146847
0.00143883
-0.001588
-0.00128119
0.00181125
-0.00199853
-0.00108065
0.00195193
-0.00215247
-0.000802655
0.00265081
-0.0029288
-0.000558611
0.00224984
-0.00249388
-0.000363024
0.00112604
-0.00132163
0.00316377
-0.0035268
-0.00183004
0.000428392
-0.00173293
0.000810405
-0.00161247
0.00101194
-0.00146031
0.00128667
-0.00126916
0.0016201
-0.001064
0.00174677
-0.000781301
0.00236811
-0.000535173
0.00200371
-0.000358725
0.000949591
0.00280505
-0.00182857
0.000376196
-0.00173015
0.000711988
-0.00160782
0.00088961
-0.00145296
0.00113181
-0.00125828
0.00142542
-0.00104901
0.0015375
-0.000762086
0.00208119
-0.000514369
0.00175599
-0.000355384
0.000790606
0.00244966
-0.00182727
0.000323457
-0.0017277
0.000612416
-0.0016037
0.000765614
-0.00144646
0.000974563
-0.00124866
0.00122762
-0.00103575
0.00132459
-0.000745138
0.00179058
-0.000496196
0.00150705
-0.000352869
0.000647279
0.00209679
-0.00182614
0.000270251
-0.00172557
0.000511849
-0.00160014
0.000640183
-0.00144084
0.000815258
-0.00124034
0.00102712
-0.00102429
0.00110855
-0.000730543
0.00149683
-0.000480666
0.00125718
-0.000351055
0.000517668
0.00174574
-0.0018252
0.000216654
-0.0017238
0.00041045
-0.00159717
0.000513553
-0.00143614
0.000654228
-0.00123338
0.000824359
-0.00101472
0.00088989
-0.000718372
0.00120048
-0.000467788
0.00100659
-0.000349831
0.000399711
0.00139591
-0.00182444
0.000162748
-0.00172238
0.00030839
-0.0015948
0.000385967
-0.00143239
0.000491824
-0.00122783
0.000619794
-0.00100709
0.000669151
-0.000708689
0.000902075
-0.000457568
0.00075547
-0.000349102
0.000291246
0.00104681
-0.00182388
0.000108614
-0.00172133
0.000205843
-0.00159304
0.000257675
-0.00142962
0.000328406
-0.00122372
0.000413893
-0.00100145
0.000446881
-0.000701542
0.000602166
-0.000450009
0.000503938
-0.000348789
0.000190025
0.000698018
-0.00182351
5.43367e-05
-0.00172065
0.000102987
-0.00159191
0.000128933
-0.00142784
0.00016434
-0.00122109
0.000207134
-0.000997844
0.00022364
-0.000696972
0.000301294
-0.000445118
0.000252084
-0.00034883
9.37365e-05
0.000349188
-0.00182334
1.94416e-11
-0.00172035
4.29081e-11
-0.00159142
1.31855e-11
-0.00142708
-5.28605e-11
-0.00121994
-9.03435e-11
-0.000996302
-5.21244e-11
-0.000695008
2.84926e-11
-0.000442924
2.02358e-11
-0.000349188
1.00923e-11
1.18175e-11
-0.00156825
0.000896558
-0.000933738
-0.00149993
0.0016838
-0.00175212
-0.0014181
0.00208215
-0.00216398
-0.0013183
0.00262102
-0.00272082
-0.00119654
0.0032828
-0.00340455
-0.0010696
0.00351264
-0.00363958
-0.000889043
0.00484347
-0.00502403
-0.000727511
0.00417234
-0.00433387
-0.000363673
0.00369738
-0.00406122
0.0064062
-0.00676987
-0.00156641
0.000858632
-0.00149653
0.00161392
-0.00141241
0.00199804
-0.00130957
0.00251818
-0.0011831
0.00315632
-0.00105151
0.00338105
-0.00086296
0.00465492
-0.000696575
0.00400595
-0.000351788
0.0033526
0.00605441
-0.00156461
0.000819976
-0.00149319
0.00154249
-0.00140688
0.00191172
-0.00130087
0.00241218
-0.0011701
0.00302555
-0.00103331
0.00324426
-0.000838065
0.00445968
-0.000665495
0.00383338
-0.000341545
0.00302865
0.00571286
-0.00156286
0.000780608
-0.00148993
0.00146956
-0.00140146
0.00182325
-0.00129235
0.00230306
-0.00115735
0.00289055
-0.00101547
0.00310238
-0.000813778
0.00425799
-0.000635506
0.00365511
-0.000332295
0.00272544
0.00538057
-0.00156117
0.00074055
-0.00148678
0.00139517
-0.0013962
0.00173268
-0.00128405
0.00219091
-0.00114492
0.00275142
-0.000998062
0.00295552
-0.000790199
0.00405013
-0.000606754
0.00347167
-0.00032403
0.00244271
0.00505654
-0.00155953
0.000699827
-0.00148372
0.00131936
-0.00139111
0.00164006
-0.001276
0.00207581
-0.00113286
0.00260828
-0.000981176
0.00280384
-0.000767429
0.00383639
-0.00057932
0.00328356
-0.000316757
0.00218015
0.00473978
-0.00155796
0.000658466
-0.00148079
0.0012422
-0.00138621
0.00154548
-0.00126825
0.00195784
-0.00112122
0.00246125
-0.00096488
0.00264749
-0.000745553
0.00361706
-0.000553267
0.00309127
-0.000310446
0.00193733
0.00442934
-0.00155646
0.000616497
-0.00147799
0.00116373
-0.00138152
0.00144901
-0.00126082
0.00183713
-0.00111006
0.0023105
-0.000949247
0.00248668
-0.000724649
0.00339246
-0.000528651
0.00289528
-0.000305051
0.00171373
0.00412429
-0.00155504
0.000573953
-0.00147534
0.00108403
-0.00137707
0.00135074
-0.00125375
0.00171381
-0.00109944
0.00215619
-0.000934356
0.0023216
-0.000704809
0.00316291
-0.00050554
0.00269601
-0.000300544
0.00150873
0.00382374
-0.0015537
-0.00147284
-0.00137288
-0.00124707
-0.00108941
-0.000920283
-0.000686174
-0.000484051
-0.000296945
-0.000258163
0.0179336
-0.0178071
-0.000386128
0.0181077
-0.0179798
-0.000515545
0.0182253
-0.0180959
-0.000646875
0.0184649
-0.0183336
-0.000780286
0.0187236
-0.0185901
-0.000915053
0.0191582
-0.0190234
-0.00105426
0.0196679
-0.0195287
-0.00113822
0.020407
-0.0203231
-0.00101198
0.0201854
-0.0203117
0.0134098
-0.0144218
-0.000257147
0.0180598
-0.000384445
0.018235
-0.000513076
0.0183539
-0.000642975
0.0185948
-0.000774299
0.0188549
-0.000905317
0.0192892
-0.00103651
0.0197991
-0.00110294
0.0204735
-0.000952793
0.0200353
0.012457
-0.000256102
0.0181856
-0.000382788
0.0183617
-0.000510616
0.0184817
-0.000639184
0.0187234
-0.000768448
0.0189841
-0.000895962
0.0194167
-0.00101922
0.0199224
-0.00106923
0.0205235
-0.000890469
0.0198565
0.0115665
-0.000255055
0.018311
-0.000381125
0.0184878
-0.00050815
0.0186088
-0.000635383
0.0188506
-0.000762575
0.0191113
-0.000886502
0.0195407
-0.00100168
0.0200375
-0.00103639
0.0205582
-0.00083155
0.0196517
0.010735
-0.000254004
0.0184361
-0.000379454
0.0186132
-0.000505656
0.018735
-0.000631516
0.0189765
-0.000756533
0.0192364
-0.000876629
0.0196608
-0.000983216
0.0201441
-0.00100289
0.0205779
-0.000775744
0.0194245
0.00995923
-0.000252953
0.0185608
-0.000377779
0.018738
-0.00050314
0.0188603
-0.000627584
0.0191009
-0.000750319
0.0193591
-0.000866336
0.0197768
-0.00096387
0.0202417
-0.000968499
0.0205825
-0.000721322
0.0191774
0.00923791
-0.000251903
0.0186852
-0.000376101
0.0188622
-0.00050061
0.0189848
-0.000623605
0.0192239
-0.00074397
0.0194795
-0.00085569
0.0198885
-0.000943825
0.0203298
-0.00093346
0.0205721
-0.000668064
0.018912
0.00856985
-0.000250857
0.0188092
-0.000374426
0.0189858
-0.000498071
0.0191085
-0.00061959
0.0193454
-0.000737509
0.0195974
-0.000844717
0.0199957
-0.000923134
0.0204082
-0.000897804
0.0205468
-0.000616059
0.0186302
0.00795379
-0.000249818
0.0189329
-0.000372756
0.0191088
-0.000495531
0.0192313
-0.000615547
0.0194655
-0.000730951
0.0197128
-0.000833467
0.0200982
-0.000901956
0.0204767
-0.000861594
0.0205064
-0.000565465
0.0183341
0.00738832
-0.000248829
0.0190562
-0.000371152
0.0192311
-0.00049303
0.0193531
-0.000611471
0.0195839
-0.000724135
0.0198254
-0.000821268
0.0201954
-0.000878601
0.020534
-0.000822931
0.0204508
-0.000520483
0.0180316
0.00686784
-0.00021371
0.017381
-0.0173305
-0.000267332
0.0175368
-0.0174832
-0.000322196
0.0176506
-0.0175958
-0.000381334
0.0178733
-0.0178142
-0.000443221
0.0181323
-0.0180704
-0.000514113
0.018553
-0.0184821
-0.000595288
0.0190315
-0.0189503
-0.000695776
0.0200511
-0.0199506
-0.000724634
0.0207038
-0.0206749
0.0189383
-0.0196629
-0.000212436
0.0174308
-0.000265168
0.0175896
-0.000318961
0.0177044
-0.000376553
0.0179309
-0.000436296
0.0181921
-0.000503662
0.0186204
-0.000580022
0.0191078
-0.00066359
0.0201347
-0.000673475
0.0207137
0.0182648
-0.00021113
0.01748
-0.000262976
0.0176414
-0.000315702
0.0177572
-0.000371735
0.017987
-0.00042935
0.0182497
-0.000493114
0.0186841
-0.000564694
0.0191794
-0.000632669
0.0202026
-0.000625154
0.0207062
0.0176396
-0.000209794
0.0175285
-0.000260755
0.0176924
-0.000312408
0.0178088
-0.00036686
0.0180414
-0.000422326
0.0183052
-0.000482401
0.0187442
-0.000549034
0.0192461
-0.000602979
0.0202566
-0.000580329
0.0206835
0.0170593
-0.000208429
0.0175764
-0.000258507
0.0177425
-0.000309079
0.0178594
-0.000361918
0.0180942
-0.000415182
0.0183584
-0.000471472
0.0188005
-0.000532877
0.0193075
-0.00057381
0.0202975
-0.000537888
0.0206476
0.0165214
-0.000207041
0.0176238
-0.000256237
0.0177917
-0.00030572
0.0179089
-0.000356921
0.0181454
-0.000407927
0.0184094
-0.000460357
0.0188529
-0.000516271
0.0193634
-0.000544798
0.0203261
-0.000497008
0.0205998
0.0160244
-0.000205633
0.0176705
-0.000253952
0.01784
-0.000302342
0.0179572
-0.000351884
0.018195
-0.000400588
0.0184581
-0.000449108
0.0189014
-0.000499323
0.0194136
-0.000515854
0.0203426
-0.000457353
0.0205413
0.0155671
-0.000204207
0.0177166
-0.000251656
0.0178874
-0.000298952
0.0180045
-0.000346824
0.0182429
-0.000393192
0.0185045
-0.000437773
0.018946
-0.000482129
0.019458
-0.000486982
0.0203474
-0.000418759
0.0204731
0.0151483
-0.000202768
0.0177621
-0.000249354
0.017934
-0.000295557
0.0180507
-0.000341751
0.0182891
-0.000385751
0.0185485
-0.000426366
0.0189866
-0.000464643
0.0194962
-0.000457785
0.0203406
-0.000380832
0.0203961
0.0147675
-0.000201316
-0.000247057
-0.000292179
-0.000336725
-0.000378381
-0.000415188
-0.000447661
-0.000430161
-0.000345706
-0.000137279
0.0176372
-0.0176672
-0.000111756
0.0177614
-0.0177869
-8.71944e-05
0.0178715
-0.017896
-6.82417e-05
0.01806
-0.018079
-5.36733e-05
0.0183033
-0.0183178
-5.25848e-05
0.0186482
-0.0186493
-6.39141e-05
0.0190623
-0.019051
-0.00015328
0.0197253
-0.019636
-0.000223627
0.020454
-0.0203837
0.0199833
-0.0202069
-0.000136271
0.0176063
-0.000109653
0.0177347
-8.39245e-05
0.0178457
-6.3401e-05
0.0180395
-4.66873e-05
0.0182865
-4.26993e-05
0.0186443
-4.95248e-05
0.0190691
-0.000125516
0.0198013
-0.000185542
0.020514
0.0197978
-0.000135207
0.0175746
-0.000107507
0.017707
-8.05668e-05
0.0178188
-5.84085e-05
0.0180173
-3.9463e-05
0.0182676
-3.22152e-05
0.018637
-3.43115e-05
0.0190712
-9.74681e-05
0.0198645
-0.000151315
0.0205679
0.0196464
-0.000134098
0.0175421
-0.000105315
0.0176782
-7.71477e-05
0.0177906
-5.33095e-05
0.0179935
-3.20598e-05
0.0182463
-2.12826e-05
0.0186262
-1.85623e-05
0.0190685
-6.93047e-05
0.0199152
-0.000116228
0.0206148
0.0195302
-0.000132948
0.0175088
-0.000103088
0.0176484
-7.36865e-05
0.0177612
-4.81433e-05
0.017968
-2.45499e-05
0.0182228
-9.98427e-06
0.0186117
-3.07932e-06
0.0190616
-4.06061e-05
0.0199528
-7.97462e-05
0.0206539
0.0194505
-0.00013176
0.0174746
-0.00010083
0.0176175
-7.01948e-05
0.0177306
-4.29297e-05
0.0179407
-1.70067e-05
0.0181968
1.67723e-06
0.018593
1.31531e-05
0.0190501
-1.06354e-05
0.0199766
-4.24584e-05
0.0206858
0.019408
-0.000130538
0.0174397
-9.8546e-05
0.0175855
-6.66792e-05
0.0176987
-3.76791e-05
0.0179117
-9.47025e-06
0.0181686
1.25866e-05
0.0185709
2.9622e-05
0.0190331
1.7715e-05
0.0199885
-5.53524e-06
0.020709
0.0194025
-0.000129284
0.0174041
-9.62393e-05
0.0175524
-6.31451e-05
0.0176656
-3.24e-05
0.0178809
-1.98795e-06
0.0181382
2.38363e-05
0.0185451
4.61991e-05
0.0190107
4.58464e-05
0.0199888
3.9598e-05
0.0207153
0.0194421
-0.000127999
0.0173677
-9.39145e-05
0.0175183
-5.96e-05
0.0176313
-2.71035e-05
0.0178484
5.62155e-06
0.0181055
3.52012e-05
0.0185155
6.2826e-05
0.0189831
7.5031e-05
0.0199766
8.57693e-05
0.0207045
0.0195278
-0.000126685
-9.15683e-05
-5.60352e-05
-2.17781e-05
1.32686e-05
4.66882e-05
7.94924e-05
0.000105485
0.000135056
-3.67555e-05
0.0186535
-0.0187592
6.27416e-05
0.0187352
-0.0188347
0.000161449
0.0188482
-0.0189469
0.000254274
0.0189955
-0.0190883
0.00034184
0.01921
-0.0192976
0.000417514
0.019456
-0.0195317
0.000462523
0.0196867
-0.0197317
0.000439718
0.0196541
-0.0196313
0.000304275
0.0197405
-0.019605
0.0159735
-0.0156692
-3.55344e-05
0.0185469
6.55124e-05
0.0186341
0.000166719
0.018747
0.00026241
0.0188998
0.000353413
0.019119
0.000432685
0.0193768
0.000481504
0.0196379
0.000458951
0.0196767
0.000326853
0.0198725
0.0163003
-3.47844e-05
0.0184395
6.75012e-05
0.0185319
0.000169957
0.0186446
0.000267347
0.0188024
0.000360402
0.0190259
0.000442
0.0192952
0.000494652
0.0195852
0.000476154
0.0196952
0.000354353
0.0199943
0.0166547
-3.409e-05
0.0183313
6.92584e-05
0.0184285
0.000172818
0.018541
0.000271638
0.0187036
0.000366514
0.0189311
0.000450433
0.0192112
0.000508182
0.0195275
0.000495041
0.0197083
0.000385432
0.020104
0.0170401
-3.33874e-05
0.0182224
7.09809e-05
0.0183241
0.000175644
0.0184363
0.000275921
0.0186033
0.000372761
0.0188342
0.000459295
0.0191247
0.000522833
0.0194639
0.000515358
0.0197158
0.000418916
0.0202004
0.017459
-3.26508e-05
0.0181127
7.27506e-05
0.0182187
0.000178549
0.0183305
0.000280353
0.0185015
0.000379299
0.0187353
0.000468626
0.0190354
0.000538212
0.0193944
0.000537051
0.019717
0.000455927
0.0202815
0.017915
-3.18844e-05
0.0180024
7.45549e-05
0.0181123
0.000181495
0.0182236
0.000284845
0.0183982
0.000385946
0.0186342
0.000478115
0.0189432
0.000553975
0.0193185
0.000560174
0.0197108
0.000497413
0.0203443
0.0184124
-3.10955e-05
0.0178914
7.63708e-05
0.0180048
0.000184446
0.0181155
0.000289328
0.0182933
0.000392591
0.0185309
0.000487624
0.0188482
0.000570001
0.0192361
0.000584719
0.0196961
0.000543902
0.0203851
0.0189563
-3.02875e-05
0.0177796
7.81914e-05
0.0178964
0.000187389
0.0180063
0.000293786
0.0181869
0.000399213
0.0184255
0.000497125
0.0187503
0.000586168
0.0191471
0.000610414
0.0196718
0.000595316
0.0204002
0.0195516
-2.94627e-05
8.00168e-05
0.000190337
0.000298265
0.000405921
0.000506856
0.000602947
0.000638774
0.000655324
0.00161991
2.27768e-05
-2.05652e-05
0.00162402
-3.92607e-05
3.51431e-05
0.00162377
-2.00741e-05
2.03301e-05
0.001613
0.000151876
-0.000141113
0.00160344
8.26102e-05
-7.30454e-05
0.00157504
0.000398228
-0.000369828
0.00154156
0.000249578
-0.000216094
0.00138776
0.00202364
-0.00186984
0.00115302
0.00202975
-0.00179501
0.0158572
-0.0147041
0.00161981
2.50836e-05
0.00162415
-4.36034e-05
0.00162352
-1.94458e-05
0.00161306
0.00016234
0.00160292
9.27489e-05
0.00157526
0.000425891
0.00153952
0.000285313
0.00138856
0.0021746
0.00114869
0.00226963
0.0170059
0.00161972
2.74791e-05
0.00162428
-4.81578e-05
0.0016233
-1.84653e-05
0.0016131
0.000172532
0.00160244
0.000103411
0.00157548
0.000452853
0.00153763
0.000323166
0.00138973
0.0023225
0.0011456
0.00251376
0.0181515
0.00161963
2.99632e-05
0.0016244
-5.29294e-05
0.00162306
-1.71243e-05
0.00161315
0.000182443
0.00160197
0.000114595
0.00157572
0.000479098
0.00153579
0.000363098
0.00139122
0.00246707
0.0011433
0.00276168
0.0192947
0.00161955
3.25345e-05
0.00162454
-5.79221e-05
0.00162283
-1.54169e-05
0.00161321
0.000192065
0.00160151
0.000126297
0.00157599
0.000504617
0.00153403
0.000405053
0.00139303
0.00260807
0.00114151
0.0030132
0.0204363
0.00161946
3.51901e-05
0.00162468
-6.31378e-05
0.0016226
-1.33408e-05
0.00161327
0.000201393
0.00160107
0.000138503
0.00157628
0.000529405
0.0015324
0.000448934
0.00139517
0.00274529
0.00114028
0.0032681
0.0215765
0.00161938
3.79257e-05
0.00162482
-6.85768e-05
0.00162238
-1.08965e-05
0.00161334
0.000210425
0.00160065
0.000151196
0.0015766
0.000553461
0.00153092
0.000494605
0.00139767
0.00287855
0.00113968
0.00352608
0.0227162
0.00161931
4.07353e-05
0.00162497
-7.42373e-05
0.00162216
-8.08699e-06
0.00161342
0.000219161
0.00160027
0.000164351
0.00157694
0.00057679
0.00152964
0.0005419
0.00140043
0.00300777
0.00113991
0.0037866
0.0238561
0.00161924
4.36111e-05
0.00162512
-8.01155e-05
0.00162195
-4.91801e-06
0.00161351
0.000227598
0.00159992
0.000177943
0.00157732
0.000599393
0.00152861
0.000590605
0.00140358
0.0031328
0.00114176
0.00404843
0.0249979
0.00161931
4.64223e-05
0.00162507
-8.58772e-05
0.00162207
-1.92069e-06
0.00161324
0.000236432
0.00160026
0.000190919
0.00157712
0.00062253
0.00152956
0.000638171
0.00140691
0.00325545
0.00115024
0.0043051
0.0261481
0.0019116
1.81849e-06
5.06945e-12
0.0019146
-2.99965e-06
-6.77976e-12
0.00191744
-2.84061e-06
-6.2934e-12
0.00190267
1.47713e-05
1.40306e-11
0.00189659
6.07758e-06
2.35799e-11
0.00185778
3.88062e-05
-2.63366e-11
0.00184056
1.72283e-05
-6.6373e-12
0.00164672
0.000193839
2.05422e-12
0.00147421
0.000172506
1.17901e-12
0.00147421
-8.98288e-13
0.00191158
3.65268e-06
0.00191462
-6.03595e-06
0.00191739
-5.61627e-06
0.00190265
2.95127e-05
0.00189646
1.22725e-05
0.00185773
7.75311e-05
0.00183992
3.50417e-05
0.00164612
0.000387635
0.00147046
0.000348169
0.00294467
0.00191155
5.51772e-06
0.00191466
-9.14006e-06
0.00191732
-8.28104e-06
0.00190266
4.4177e-05
0.00189628
1.86496e-05
0.00185777
0.000116041
0.00183921
5.36057e-05
0.00164608
0.000580761
0.00146789
0.000526361
0.00441256
0.00191151
7.42825e-06
0.00191471
-1.23421e-05
0.00191722
-1.07908e-05
0.00190268
5.87196e-05
0.00189606
2.5269e-05
0.00185788
0.000154214
0.00183842
7.30674e-05
0.0016465
0.000772681
0.00146644
0.000706419
0.005879
0.00191145
9.39823e-06
0.00191478
-1.56712e-05
0.00191709
-1.31029e-05
0.00190271
7.30973e-05
0.00189579
3.21877e-05
0.00185808
0.000191929
0.00183758
9.35632e-05
0.0016474
0.000962863
0.00146609
0.000887726
0.0073451
0.00191137
1.14407e-05
0.00191486
-1.91547e-05
0.00191693
-1.51771e-05
0.00190276
8.72687e-05
0.00189549
3.94589e-05
0.00185835
0.00022907
0.00183669
0.000115222
0.00164877
0.00115079
0.00146679
0.0010697
0.00881189
0.00191129
1.35675e-05
0.00191495
-2.28183e-05
0.00191675
-1.69752e-05
0.00190283
0.000101195
0.00189515
4.71314e-05
0.00185869
0.000265529
0.00183575
0.000138168
0.00165059
0.00133594
0.00146847
0.00125182
0.0102804
0.0019112
1.57893e-05
0.00191506
-2.66854e-05
0.00191655
-1.84621e-05
0.0019029
0.000114841
0.00189479
5.52485e-05
0.00185911
0.000301209
0.00183475
0.000162521
0.00165286
0.00151784
0.00147105
0.00143363
0.0117514
0.00191109
1.81154e-05
0.00191518
-3.0777e-05
0.00191633
-1.9606e-05
0.00190299
0.000128176
0.00189439
6.38483e-05
0.00185957
0.000336028
0.00183369
0.000188403
0.00165555
0.00169598
0.00147439
0.00161479
0.0132258
0.00191097
0.00191533
0.00191606
0.00190312
0.00189392
0.00186012
0.00183243
0.00165857
0.00147835
0.00191097
-1.81154e-05
2.05652e-05
0.00191533
3.07771e-05
-3.51432e-05
0.00191606
1.9606e-05
-2.03301e-05
0.00190312
-0.000128176
0.000141113
0.00189392
-6.38483e-05
7.30455e-05
0.00186012
-0.000336028
0.000369828
0.00183243
-0.000188403
0.000216094
0.00165857
-0.00169598
0.00186984
0.00147835
-0.00161479
0.00179501
-0.0132258
0.0147041
0.00191109
-1.57893e-05
0.00191518
2.66854e-05
0.00191633
1.84621e-05
0.00190299
-0.000114841
0.00189439
-5.52486e-05
0.00185957
-0.000301209
0.00183369
-0.000162521
0.00165555
-0.00151784
0.00147439
-0.00143363
-0.0117514
0.0019112
-1.35675e-05
0.00191506
2.28183e-05
0.00191655
1.69752e-05
0.0019029
-0.000101195
0.00189479
-4.71314e-05
0.00185911
-0.000265529
0.00183475
-0.000138168
0.00165286
-0.00133594
0.00147105
-0.00125182
-0.0102804
0.00191129
-1.14407e-05
0.00191495
1.91548e-05
0.00191675
1.51771e-05
0.00190283
-8.72687e-05
0.00189515
-3.94589e-05
0.00185869
-0.00022907
0.00183575
-0.000115222
0.00165059
-0.00115079
0.00146847
-0.0010697
-0.00881189
0.00191137
-9.39824e-06
0.00191486
1.56712e-05
0.00191693
1.3103e-05
0.00190276
-7.30974e-05
0.00189549
-3.21877e-05
0.00185835
-0.000191929
0.00183669
-9.35632e-05
0.00164877
-0.000962863
0.00146679
-0.000887726
-0.0073451
0.00191145
-7.42827e-06
0.00191478
1.23422e-05
0.00191709
1.07908e-05
0.00190271
-5.87197e-05
0.00189579
-2.5269e-05
0.00185808
-0.000154214
0.00183758
-7.30674e-05
0.0016474
-0.000772681
0.00146609
-0.000706419
-0.005879
0.00191151
-5.51773e-06
0.00191471
9.14008e-06
0.00191722
8.28105e-06
0.00190268
-4.4177e-05
0.00189606
-1.86496e-05
0.00185788
-0.000116041
0.00183842
-5.36057e-05
0.0016465
-0.000580761
0.00146644
-0.000526361
-0.00441256
0.00191155
-3.65269e-06
0.00191466
6.03597e-06
0.00191732
5.61629e-06
0.00190266
-2.95127e-05
0.00189628
-1.22725e-05
0.00185777
-7.7531e-05
0.00183921
-3.50417e-05
0.00164608
-0.000387635
0.00146789
-0.000348169
-0.00294467
0.00191158
-1.81851e-06
0.00191462
2.99967e-06
0.00191739
2.84063e-06
0.00190265
-1.47713e-05
0.00189646
-6.07763e-06
0.00185773
-3.88061e-05
0.00183992
-1.72283e-05
0.00164612
-0.000193839
0.00147046
-0.000172506
-0.00147421
0.0019116
0.0019146
0.00191744
0.00190267
0.00189659
0.00185778
0.00184056
0.00164672
0.00147421
0.00161931
-4.36111e-05
4.64223e-05
0.00162507
8.01155e-05
-8.58772e-05
0.00162207
4.91801e-06
-1.92069e-06
0.00161324
-0.000227598
0.000236432
0.00160026
-0.000177943
0.000190919
0.00157712
-0.000599393
0.00062253
0.00152956
-0.000590605
0.000638171
0.00140691
-0.0031328
0.00325545
0.00115024
-0.00404843
0.0043051
-0.0249979
0.0261481
0.00161924
-4.07353e-05
0.00162512
7.42373e-05
0.00162195
8.08698e-06
0.00161351
-0.000219161
0.00159992
-0.000164351
0.00157732
-0.00057679
0.00152861
-0.0005419
0.00140358
-0.00300777
0.00114176
-0.0037866
-0.0238561
0.00161931
-3.79257e-05
0.00162497
6.85768e-05
0.00162216
1.08965e-05
0.00161342
-0.000210425
0.00160027
-0.000151196
0.00157694
-0.000553461
0.00152964
-0.000494605
0.00140043
-0.00287855
0.00113991
-0.00352608
-0.0227162
0.00161938
-3.51901e-05
0.00162482
6.31378e-05
0.00162238
1.33408e-05
0.00161334
-0.000201393
0.00160065
-0.000138503
0.0015766
-0.000529405
0.00153092
-0.000448934
0.00139767
-0.00274529
0.00113968
-0.0032681
-0.0215765
0.00161946
-3.25345e-05
0.00162468
5.79221e-05
0.0016226
1.54169e-05
0.00161327
-0.000192065
0.00160107
-0.000126297
0.00157628
-0.000504617
0.0015324
-0.000405053
0.00139517
-0.00260807
0.00114028
-0.0030132
-0.0204363
0.00161955
-2.99632e-05
0.00162454
5.29295e-05
0.00162283
1.71242e-05
0.00161321
-0.000182443
0.00160151
-0.000114595
0.00157599
-0.000479098
0.00153403
-0.000363098
0.00139303
-0.00246707
0.00114151
-0.00276168
-0.0192947
0.00161963
-2.74791e-05
0.0016244
4.81579e-05
0.00162306
1.84653e-05
0.00161315
-0.000172532
0.00160197
-0.000103411
0.00157572
-0.000452853
0.00153579
-0.000323166
0.00139122
-0.0023225
0.0011433
-0.00251376
-0.0181515
0.00161972
-2.50836e-05
0.00162428
4.36035e-05
0.0016233
1.94458e-05
0.0016131
-0.00016234
0.00160244
-9.2749e-05
0.00157548
-0.000425891
0.00153763
-0.000285313
0.00138973
-0.0021746
0.0011456
-0.00226963
-0.0170059
0.00161981
-2.27768e-05
0.00162415
3.92607e-05
0.00162352
2.00741e-05
0.00161306
-0.000151876
0.00160292
-8.26102e-05
0.00157526
-0.000398228
0.00153952
-0.000249578
0.00138856
-0.00202364
0.00114869
-0.00202975
-0.0158572
0.00161991
0.00162402
0.00162377
0.001613
0.00160344
0.00157504
0.00154156
0.00138776
0.00115302
-2.94628e-05
-0.0177796
0.0176672
8.00168e-05
-0.0178964
0.0177869
0.000190337
-0.0180063
0.017896
0.000298264
-0.0181869
0.018079
0.000405921
-0.0184255
0.0183178
0.000506856
-0.0187503
0.0186493
0.000602947
-0.0191471
0.019051
0.000638774
-0.0196718
0.019636
0.000655324
-0.0204002
0.0203837
-0.0195516
0.0202069
-3.02875e-05
-0.0178914
7.81913e-05
-0.0180048
0.000187389
-0.0181155
0.000293786
-0.0182933
0.000399213
-0.0185309
0.000497125
-0.0188482
0.000586168
-0.0192361
0.000610414
-0.0196961
0.000595316
-0.0203851
-0.0189563
-3.10955e-05
-0.0180024
7.63709e-05
-0.0181123
0.000184446
-0.0182236
0.000289328
-0.0183982
0.000392591
-0.0186342
0.000487623
-0.0189432
0.000570001
-0.0193185
0.000584719
-0.0197108
0.000543902
-0.0203443
-0.0184124
-3.18843e-05
-0.0181127
7.45548e-05
-0.0182187
0.000181495
-0.0183305
0.000284845
-0.0185015
0.000385946
-0.0187353
0.000478115
-0.0190354
0.000553975
-0.0193944
0.000560174
-0.019717
0.000497413
-0.0202815
-0.017915
-3.26508e-05
-0.0182224
7.27506e-05
-0.0183241
0.000178549
-0.0184363
0.000280353
-0.0186033
0.000379299
-0.0188342
0.000468626
-0.0191247
0.000538212
-0.0194639
0.000537051
-0.0197158
0.000455927
-0.0202004
-0.017459
-3.33875e-05
-0.0183313
7.09809e-05
-0.0184285
0.000175644
-0.018541
0.000275921
-0.0187036
0.000372761
-0.0189311
0.000459296
-0.0192112
0.000522833
-0.0195275
0.000515358
-0.0197083
0.000418916
-0.020104
-0.0170401
-3.40901e-05
-0.0184395
6.92585e-05
-0.0185319
0.000172818
-0.0186446
0.000271638
-0.0188024
0.000366514
-0.0190259
0.000450433
-0.0192952
0.000508182
-0.0195852
0.000495041
-0.0196952
0.000385432
-0.0199943
-0.0166547
-3.47844e-05
-0.0185469
6.75011e-05
-0.0186341
0.000169957
-0.018747
0.000267347
-0.0188998
0.000360402
-0.019119
0.000442
-0.0193768
0.000494652
-0.0196379
0.000476154
-0.0196767
0.000354353
-0.0198725
-0.0163003
-3.55344e-05
-0.0186535
6.55125e-05
-0.0187352
0.000166719
-0.0188482
0.00026241
-0.0189955
0.000353413
-0.01921
0.000432685
-0.019456
0.000481504
-0.0196867
0.000458951
-0.0196541
0.000326853
-0.0197405
-0.0159735
-3.67555e-05
-0.0187592
6.27415e-05
-0.0188347
0.000161449
-0.0189469
0.000254274
-0.0190883
0.00034184
-0.0192976
0.000417514
-0.0195317
0.000462523
-0.0197317
0.000439718
-0.0196313
0.000304275
-0.019605
-0.0156692
-0.000126685
-0.0173677
0.0173305
-9.15683e-05
-0.0175183
0.0174832
-5.60352e-05
-0.0176313
0.0175958
-2.1778e-05
-0.0178484
0.0178142
1.32686e-05
-0.0181055
0.0180704
4.66882e-05
-0.0185155
0.0184821
7.94924e-05
-0.0189831
0.0189503
0.000105485
-0.0199766
0.0199506
0.000135056
-0.0207045
0.0206749
-0.0195278
0.0196629
-0.000127999
-0.0174041
-9.39144e-05
-0.0175524
-5.96e-05
-0.0176656
-2.71036e-05
-0.0178809
5.62164e-06
-0.0181382
3.52012e-05
-0.0185451
6.2826e-05
-0.0190107
7.5031e-05
-0.0199888
8.57693e-05
-0.0207153
-0.0194421
-0.000129284
-0.0174397
-9.62394e-05
-0.0175855
-6.31451e-05
-0.0176987
-3.24e-05
-0.0179117
-1.98799e-06
-0.0181686
2.38363e-05
-0.0185709
4.61991e-05
-0.0190331
4.58464e-05
-0.0199885
3.9598e-05
-0.020709
-0.0194025
-0.000130538
-0.0174746
-9.85461e-05
-0.0176175
-6.66792e-05
-0.0177306
-3.7679e-05
-0.0179407
-9.4703e-06
-0.0181968
1.25866e-05
-0.018593
2.9622e-05
-0.0190501
1.7715e-05
-0.0199766
-5.53524e-06
-0.0206858
-0.019408
-0.00013176
-0.0175088
-0.00010083
-0.0176484
-7.01948e-05
-0.0177612
-4.29298e-05
-0.017968
-1.70066e-05
-0.0182228
1.67723e-06
-0.0186117
1.31531e-05
-0.0190616
-1.06354e-05
-0.0199528
-4.24584e-05
-0.0206539
-0.0194505
-0.000132948
-0.0175421
-0.000103088
-0.0176782
-7.36865e-05
-0.0177906
-4.81432e-05
-0.0179935
-2.45499e-05
-0.0182463
-9.98427e-06
-0.0186262
-3.07932e-06
-0.0190685
-4.06061e-05
-0.0199152
-7.97462e-05
-0.0206148
-0.0195302
-0.000134098
-0.0175746
-0.000105315
-0.017707
-7.71477e-05
-0.0178188
-5.33095e-05
-0.0180173
-3.20598e-05
-0.0182676
-2.12826e-05
-0.018637
-1.85623e-05
-0.0190712
-6.93047e-05
-0.0198645
-0.000116228
-0.0205679
-0.0196464
-0.000135207
-0.0176063
-0.000107507
-0.0177347
-8.05668e-05
-0.0178457
-5.84086e-05
-0.0180395
-3.94629e-05
-0.0182865
-3.22152e-05
-0.0186443
-3.43115e-05
-0.0190691
-9.74681e-05
-0.0198013
-0.000151315
-0.020514
-0.0197978
-0.000136271
-0.0176372
-0.000109653
-0.0177614
-8.39245e-05
-0.0178715
-6.34009e-05
-0.01806
-4.66873e-05
-0.0183033
-4.26993e-05
-0.0186482
-4.95248e-05
-0.0190623
-0.000125516
-0.0197253
-0.000185542
-0.020454
-0.0199833
-0.000137279
-0.000111756
-8.71944e-05
-6.82416e-05
-5.36733e-05
-5.25848e-05
-6.39141e-05
-0.00015328
-0.000223627
-0.000201316
-0.0177621
0.0178071
-0.000247057
-0.017934
0.0179798
-0.000292179
-0.0180507
0.0180959
-0.000336725
-0.0182891
0.0183336
-0.000378381
-0.0185485
0.0185901
-0.000415188
-0.0189866
0.0190234
-0.000447661
-0.0194962
0.0195287
-0.000430161
-0.0203406
0.0203231
-0.000345706
-0.0203961
0.0203117
-0.0147675
0.0144218
-0.000202768
-0.0177166
-0.000249354
-0.0178874
-0.000295557
-0.0180045
-0.000341751
-0.0182429
-0.000385751
-0.0185045
-0.000426366
-0.018946
-0.000464643
-0.019458
-0.000457785
-0.0203474
-0.000380832
-0.0204731
-0.0151483
-0.000204207
-0.0176705
-0.000251656
-0.01784
-0.000298952
-0.0179572
-0.000346824
-0.018195
-0.000393192
-0.0184581
-0.000437773
-0.0189014
-0.000482129
-0.0194136
-0.000486982
-0.0203426
-0.000418759
-0.0205413
-0.0155671
-0.000205633
-0.0176238
-0.000253952
-0.0177917
-0.000302342
-0.0179089
-0.000351884
-0.0181454
-0.000400588
-0.0184094
-0.000449108
-0.0188529
-0.000499323
-0.0193634
-0.000515854
-0.0203261
-0.000457353
-0.0205998
-0.0160244
-0.000207041
-0.0175764
-0.000256237
-0.0177425
-0.00030572
-0.0178594
-0.000356921
-0.0180942
-0.000407927
-0.0183584
-0.000460357
-0.0188005
-0.000516271
-0.0193075
-0.000544798
-0.0202975
-0.000497008
-0.0206476
-0.0165214
-0.000208429
-0.0175285
-0.000258507
-0.0176924
-0.000309079
-0.0178088
-0.000361918
-0.0180414
-0.000415182
-0.0183052
-0.000471472
-0.0187442
-0.000532877
-0.0192461
-0.00057381
-0.0202566
-0.000537888
-0.0206835
-0.0170593
-0.000209794
-0.01748
-0.000260755
-0.0176414
-0.000312408
-0.0177572
-0.00036686
-0.017987
-0.000422326
-0.0182497
-0.000482401
-0.0186841
-0.000549034
-0.0191794
-0.000602979
-0.0202026
-0.000580329
-0.0207062
-0.0176396
-0.00021113
-0.0174308
-0.000262976
-0.0175896
-0.000315702
-0.0177044
-0.000371735
-0.0179309
-0.00042935
-0.0181921
-0.000493114
-0.0186204
-0.000564694
-0.0191078
-0.000632669
-0.0201347
-0.000625154
-0.0207137
-0.0182648
-0.000212436
-0.017381
-0.000265168
-0.0175368
-0.000318961
-0.0176506
-0.000376553
-0.0178733
-0.000436296
-0.0181323
-0.000503662
-0.018553
-0.000580022
-0.0190315
-0.00066359
-0.0200511
-0.000673475
-0.0207038
-0.0189383
-0.00021371
-0.000267332
-0.000322196
-0.000381334
-0.000443221
-0.000514113
-0.000595288
-0.000695776
-0.000724634
-0.000248829
-0.0189329
0.0190562
-0.000371152
-0.0191088
0.0192311
-0.00049303
-0.0192313
0.0193531
-0.000611471
-0.0194655
0.0195839
-0.000724135
-0.0197128
0.0198254
-0.000821268
-0.0200982
0.0201954
-0.000878601
-0.0204767
0.020534
-0.000822931
-0.0205064
0.0204508
-0.000520483
-0.0183341
0.0180316
-0.00738832
0.00686784
-0.000249818
-0.0188092
-0.000372756
-0.0189858
-0.000495531
-0.0191085
-0.000615547
-0.0193454
-0.000730951
-0.0195974
-0.000833467
-0.0199957
-0.000901956
-0.0204082