/*--------------------------------*- C++ -*----------------------------------*\
  =========                 |
  \\      /  F ield         | OpenFOAM: The Open Source CFD Toolbox
   \\    /   O peration     | Website:  https://openfoam.org
    \\  /    A nd           | Version:  10
     \\/     M anipulation  |
\*---------------------------------------------------------------------------*/
FoamFile
{
    format      ascii;
    class       volVectorField;
    location    "10";
    object      U;
}
// * * * * * * * * * * * * * * * * * * * * * * * * * * * * * * * * * * * * * //

dimensions      [0 1 -1 0 0 0 0];

internalField   nonuniform List<vector> 
2000
(
(0.98388 -0.00438192 -8.45787e-20)
(0.930934 -0.00828246 -5.05431e-19)
(0.884407 -0.0103294 -1.30077e-18)
(0.807706 -0.013127 -1.87545e-18)
(0.729845 -0.0165145 -9.32863e-19)
(0.612134 -0.0178266 -5.51854e-19)
(0.523346 -0.0242164 -4.57452e-18)
(0.320409 -0.0206755 -6.86341e-19)
(0.270551 -0.0106407 -2.2815e-18)
(0.114807 -0.0289738 -1.99909e-17)
(0.983383 -0.00393912 1.06501e-19)
(0.929696 -0.00744976 -5.21105e-19)
(0.882344 -0.00929839 -1.47232e-18)
(0.804227 -0.0118257 -1.72253e-18)
(0.724573 -0.0148828 -1.45085e-18)
(0.604469 -0.0160736 -5.48743e-19)
(0.513138 -0.0217973 -4.61404e-18)
(0.307629 -0.0185538 -5.22095e-19)
(0.258252 -0.00904602 7.3929e-19)
(0.12177 -0.0258744 -2.50485e-17)
(0.982935 -0.00349016 1.54138e-19)
(0.928579 -0.00660367 -5.59338e-19)
(0.880481 -0.00824731 -1.92693e-18)
(0.801081 -0.010497 -1.93642e-18)
(0.719801 -0.013211 -1.71891e-18)
(0.597531 -0.014282 -5.80266e-19)
(0.503902 -0.0193301 -3.91565e-18)
(0.29614 -0.0164218 -4.29734e-19)
(0.247414 -0.00760106 -3.84319e-18)
(0.128301 -0.0227563 -2.71159e-17)
(0.982539 -0.00303587 2.4582e-19)
(0.927589 -0.00574644 -7.03069e-19)
(0.878827 -0.00718058 -2.00185e-18)
(0.798285 -0.00914555 -1.41834e-18)
(0.715557 -0.0115108 -1.71539e-18)
(0.591361 -0.0124539 -7.0465e-19)
(0.495693 -0.0168286 -2.45118e-18)
(0.285987 -0.0142695 -3.88272e-19)
(0.238011 -0.00629132 -1.11255e-18)
(0.134288 -0.0196864 -1.98831e-17)
(0.982195 -0.00257691 2.18245e-19)
(0.92673 -0.0048794 -4.89867e-19)
(0.877392 -0.00609999 -1.71141e-18)
(0.795857 -0.00777405 -1.12009e-18)
(0.711867 -0.00978519 -1.48033e-18)
(0.585997 -0.0105948 -9.9686e-19)
(0.48856 -0.0142968 -2.51108e-18)
(0.277209 -0.0121049 -3.58239e-19)
(0.230013 -0.00510845 8.89336e-18)
(0.13963 -0.0166422 -1.57108e-17)
(0.981906 -0.00211392 2.44182e-19)
(0.926006 -0.00400387 -3.22497e-19)
(0.876183 -0.00500726 -9.83407e-19)
(0.793809 -0.00638518 -9.96486e-19)
(0.708755 -0.00803687 -9.55672e-19)
(0.581474 -0.00870938 -1.49488e-18)
(0.482546 -0.0117381 -2.91018e-18)
(0.269842 -0.00993148 -4.42075e-19)
(0.223394 -0.00403508 2.05008e-17)
(0.144232 -0.0136079 -1.33859e-17)
(0.981673 -0.00164759 3.24443e-19)
(0.925423 -0.00312126 -1.88892e-19)
(0.875206 -0.00390441 -4.23924e-19)
(0.792155 -0.00498192 -1.0982e-18)
(0.70624 -0.00626967 -5.83245e-19)
(0.577819 -0.00680199 -2.07749e-18)
(0.477689 -0.0091574 -2.38572e-18)
(0.263913 -0.00774978 -3.01022e-19)
(0.218129 -0.00305213 2.73536e-17)
(0.148014 -0.0105793 -5.9896e-18)
(0.981496 -0.00117857 2.98765e-19)
(0.924982 -0.002233 -6.35318e-20)
(0.874468 -0.00279349 4.8752e-20)
(0.790905 -0.00356752 -1.39894e-18)
(0.704339 -0.00448757 -2.87323e-19)
(0.575055 -0.00487804 -1.68245e-18)
(0.474019 -0.00656049 -2.22526e-18)
(0.259445 -0.00556007 3.17727e-20)
(0.214197 -0.002139 3.07208e-17)
(0.15091 -0.00755396 8.53032e-19)
(0.981378 -0.000707584 3.24624e-19)
(0.924686 -0.00134054 5.21336e-20)
(0.873974 -0.00167654 -1.50889e-19)
(0.790066 -0.00214506 -1.90145e-18)
(0.703064 -0.00269429 -7.00265e-20)
(0.573202 -0.00294349 -1.50437e-18)
(0.471558 -0.00395248 -1.00697e-18)
(0.256456 -0.00336777 2.60498e-19)
(0.211583 -0.00127527 3.07139e-17)
(0.152869 -0.00452618 8.12266e-18)
(0.981319 -0.000235674 2.52247e-19)
(0.924537 -0.000446182 6.13277e-19)
(0.873725 -0.000557063 3.19745e-19)
(0.789645 -0.000715843 -2.66196e-18)
(0.702423 -0.000894448 1.58078e-19)
(0.572272 -0.000992422 -2.94635e-18)
(0.470324 -0.00132401 -1.24428e-18)
(0.254959 -0.00116597 4.13183e-19)
(0.210277 -0.000456902 2.73048e-17)
(0.153855 -0.00148464 9.78246e-18)
(0.989711 -0.0078606 2.57497e-19)
(0.945385 -0.014755 -4.63447e-20)
(0.908401 -0.0182307 -2.8436e-20)
(0.848179 -0.022962 4.48175e-20)
(0.79142 -0.0287233 4.60092e-19)
(0.70304 -0.0308476 -2.35308e-18)
(0.646458 -0.042517 2.98791e-18)
(0.484869 -0.0369788 1.27781e-18)
(0.453549 -0.033557 1.31238e-17)
(0.0474607 -0.0567232 -8.21315e-19)
(0.989039 -0.00754539 1.98765e-19)
(0.943732 -0.014175 -2.69541e-20)
(0.905681 -0.0175348 -5.15636e-20)
(0.843631 -0.022105 8.38386e-21)
(0.784552 -0.0276765 2.15036e-19)
(0.692901 -0.0297282 -2.15575e-18)
(0.632719 -0.0409202 2.26619e-18)
(0.465841 -0.0354878 1.15151e-18)
(0.430554 -0.0303802 7.91133e-18)
(0.0528284 -0.0536395 -1.07753e-18)
(0.988382 -0.00722327 1.64214e-19)
(0.942112 -0.0135813 -1.28914e-20)
(0.903009 -0.0168196 -9.69648e-20)
(0.839153 -0.0212266 -1.27786e-20)
(0.777776 -0.0265972 -3.30686e-20)
(0.682898 -0.0285867 -1.10716e-18)
(0.619167 -0.0392913 1.76152e-18)
(0.447233 -0.0340141 5.28035e-19)
(0.408488 -0.0276216 3.39038e-18)
(0.0587012 -0.0504899 -9.31102e-19)
(0.987742 -0.00689394 8.91436e-21)
(0.940532 -0.0129724 1.18124e-20)
(0.900396 -0.0160826 -1.62361e-19)
(0.834763 -0.0203206 -7.58857e-20)
(0.771119 -0.0254778 -2.64328e-19)
(0.673069 -0.0274148 -1.33948e-18)
(0.605852 -0.0376199 1.41844e-18)
(0.42911 -0.0325399 -7.21977e-20)
(0.387409 -0.0249649 -1.27488e-18)
(0.0650073 -0.0476219 -8.58915e-19)
(0.987121 -0.00655788 -1.49691e-19)
(0.938997 -0.0123492 -3.35335e-19)
(0.897852 -0.0153254 -2.37348e-19)
(0.830478 -0.0193857 -1.01381e-18)
(0.76461 -0.0243193 -5.81982e-19)
(0.663454 -0.0261969 -1.78093e-18)
(0.592829 -0.03589 1.18587e-18)
(0.411533 -0.0310115 -1.94917e-19)
(0.367369 -0.022453 -6.56241e-18)
(0.0716733 -0.0448665 -1.08484e-18)
(0.986522 -0.00621536 -1.81719e-19)
(0.937512 -0.0117124 -3.63684e-19)
(0.895385 -0.014549 -3.35988e-19)
(0.826316 -0.0184229 -1.18896e-18)
(0.758274 -0.0231234 -4.61243e-19)
(0.654094 -0.0249323 -1.2814e-18)
(0.580148 -0.0341025 1.04878e-18)
(0.394562 -0.029432 -2.66347e-19)
(0.348407 -0.020117 -1.25216e-17)
(0.0786247 -0.0421533 5.11781e-18)
(0.985947 -0.00586659 -2.35841e-19)
(0.936083 -0.0110626 -4.29714e-19)
(0.893007 -0.013754 -4.82295e-19)
(0.822294 -0.0174332 -1.5624e-18)
(0.75214 -0.0218913 -3.90464e-19)
(0.645028 -0.023624 -9.28318e-19)
(0.567863 -0.0322617 1.04161e-18)
(0.378253 -0.0278095 -3.01184e-19)
(0.330557 -0.0179499 -1.24097e-17)
(0.0857848 -0.0394858 5.963e-18)
(0.985397 -0.00551172 -1.79075e-19)
(0.934716 -0.0103999 -5.47084e-19)
(0.890727 -0.0129407 -6.77756e-19)
(0.818428 -0.0164181 -2.10298e-18)
(0.746234 -0.0206249 -3.92658e-19)
(0.636297 -0.0222763 -6.83919e-19)
(0.556025 -0.0303749 -1.06156e-19)
(0.362659 -0.0261537 -7.52898e-19)
(0.31384 -0.0159483 -1.35413e-17)
(0.0930744 -0.0368736 6.2344e-19)
(0.984875 -0.00515093 -1.36779e-19)
(0.933415 -0.0097248 -7.15444e-19)
(0.888553 -0.0121095 -9.46872e-19)
(0.814737 -0.0153781 -2.03371e-18)
(0.740584 -0.0193243 -4.64349e-19)
(0.627939 -0.0208932 -5.78097e-19)
(0.544684 -0.0284467 -1.31643e-18)
(0.34783 -0.0244875 -8.02602e-19)
(0.298271 -0.0141248 -8.97554e-18)
(0.100413 -0.034317 -4.96335e-18)
(0.984382 -0.00478483 -1.07842e-19)
(0.932186 -0.00903799 -5.95484e-19)
(0.886495 -0.0112607 -1.33856e-18)
(0.811237 -0.014309 -2.25176e-18)
(0.735216 -0.017983 -6.40036e-19)
(0.619993 -0.0194516 -5.14587e-19)
(0.533891 -0.0264402 -2.75451e-18)
(0.333816 -0.0227548 -9.10935e-19)
(0.283858 -0.012427 -5.37361e-18)
(0.107718 -0.0317239 -1.15771e-17)
(1.15778 0.080797 -1.31828e-18)
(1.16897 0.0824784 -4.83387e-19)
(1.17642 0.0797168 8.36278e-18)
(1.19173 0.0814013 9.947e-19)
(1.20803 0.0736154 -1.03127e-17)
(1.23569 0.0719918 -2.27176e-17)
(1.26736 0.0487162 -8.36819e-18)
(1.31539 0.0411238 1.60836e-17)
(1.30447 -0.0481296 -8.63714e-18)
(0.899961 -0.018563 -4.68601e-17)
(1.15783 0.0803873 -1.29213e-18)
(1.16901 0.081604 2.97316e-18)
(1.17648 0.0785363 7.92176e-18)
(1.19175 0.0795501 9.33302e-19)
(1.20797 0.0708547 -1.04647e-17)
(1.23536 0.0677265 -2.71274e-17)
(1.26676 0.0422162 -6.4912e-18)
(1.31018 0.0293345 1.54899e-17)
(1.28597 -0.0634008 -9.26682e-18)
(0.826558 -0.0312094 -4.34408e-17)
(1.15786 0.079972 -1.28571e-18)
(1.16904 0.0807297 2.78923e-18)
(1.17654 0.0773517 7.48055e-18)
(1.19179 0.0776867 7.95031e-19)
(1.208 0.0680694 -1.0306e-17)
(1.23517 0.0633825 -2.53984e-17)
(1.26637 0.0355625 -6.14584e-18)
(1.30509 0.0172688 1.44115e-17)
(1.26751 -0.0775555 -9.91781e-18)
(0.758739 -0.0423215 -3.6761e-17)
(1.15787 0.0795523 -1.03137e-18)
(1.16902 0.0798567 5.94352e-18)
(1.17655 0.0761646 3.73185e-18)
(1.19173 0.0758139 4.08204e-18)
(1.20789 0.065263 -5.40352e-18)
(1.23473 0.0589687 -2.37639e-17)
(1.26539 0.0287637 -4.4741e-18)
(1.29893 0.00499404 1.35651e-17)
(1.24723 -0.0910975 -9.7566e-18)
(0.700161 -0.0525985 -1.30447e-17)
(1.15786 0.0791293 -8.64907e-19)
(1.16896 0.0789869 5.68476e-18)
(1.1765 0.0749784 3.44431e-18)
(1.19157 0.0739378 3.72114e-18)
(1.20759 0.0624448 -5.60023e-18)
(1.23398 0.0545047 -2.18863e-17)
(1.26372 0.0218448 -3.74115e-18)
(1.29166 -0.00740841 4.53686e-18)
(1.22511 -0.104321 -1.01626e-17)
(0.646194 -0.0624999 -8.11572e-18)
(1.15782 0.0787041 -6.31547e-19)
(1.16886 0.0781219 5.57578e-18)
(1.17639 0.073796 3.33725e-18)
(1.19131 0.0720634 6.82272e-18)
(1.20715 0.0596218 -1.05406e-17)
(1.23298 0.0500044 -2.06747e-17)
(1.2615 0.0148196 -2.75121e-18)
(1.28353 -0.0198932 4.31094e-18)
(1.20183 -0.11737 -1.01111e-17)
(0.595544 -0.0722684 8.31841e-18)
(1.15776 0.0782777 -8.54683e-19)
(1.16873 0.0772631 5.20858e-18)
(1.17623 0.0726194 3.27955e-18)
(1.19098 0.0701944 6.28658e-18)
(1.20657 0.0567994 -1.02756e-17)
(1.23175 0.045478 -1.90216e-17)
(1.25876 0.00769685 -2.12338e-18)
(1.27464 -0.0324395 3.65939e-18)
(1.17774 -0.130378 -9.18436e-18)
(0.548715 -0.08206 -1.2325e-17)
(1.15768 0.0778512 -3.57991e-18)
(1.16856 0.0764118 4.83468e-18)
(1.17602 0.0714507 6.83403e-18)
(1.19056 0.0683343 9.51831e-18)
(1.20586 0.0539829 -1.4127e-17)
(1.23027 0.0409357 -1.2658e-17)
(1.25546 0.000484339 -2.33467e-18)
(1.26492 -0.0450374 -4.64292e-18)
(1.15285 -0.143479 -8.04628e-18)
(0.505936 -0.0918147 -1.15415e-17)
(1.15758 0.0774264 -3.24165e-18)
(1.16835 0.07557 4.85891e-18)
(1.17576 0.0702926 9.67523e-18)
(1.19006 0.0664873 8.30843e-18)
(1.20502 0.051179 -1.36792e-17)
(1.22856 0.0363946 -1.26117e-17)
(1.25171 -0.00677976 -2.05923e-18)
(1.25477 -0.057619 3.52203e-18)
(1.12788 -0.156836 -7.6118e-18)
(0.465497 -0.100861 -9.99561e-18)
(1.15743 0.0770341 -2.78311e-18)
(1.16807 0.0747702 7.75105e-18)
(1.17543 0.069177 5.75951e-18)
(1.18944 0.0646736 1.0983e-17)
(1.20401 0.0483707 -1.33389e-17)
(1.22653 0.0317155 -7.44578e-18)
(1.24706 -0.0145299 -2.12072e-18)
(1.24216 -0.0710619 2.95907e-18)
(1.09787 -0.170257 -1.96563e-17)
(0.425797 -0.10699 -9.41833e-18)
(1.15559 0.0849229 -3.3631e-18)
(1.16585 0.0925941 4.40327e-18)
(1.17337 0.0935593 3.19573e-18)
(1.18802 0.102461 -1.6761e-18)
(1.20509 0.10506 -1.35513e-17)
(1.23271 0.116526 -5.52351e-18)
(1.26396 0.119942 -4.3042e-18)
(1.33112 0.144961 -1.50331e-17)
(1.37538 0.137147 5.81273e-18)
(1.29014 0.166214 -1.8599e-17)
(1.15599 0.084588 -2.97716e-18)
(1.16641 0.091608 4.01767e-18)
(1.17394 0.0922048 6.61856e-18)
(1.18876 0.100399 -1.83745e-18)
(1.20583 0.101992 -1.72433e-17)
(1.23376 0.112319 5.61865e-19)
(1.26512 0.112987 2.43022e-18)
(1.33264 0.136 -1.47704e-17)
(1.37006 0.114195 4.71202e-18)
(1.23882 0.142563 -3.92491e-17)
(1.15636 0.0842316 -2.82542e-18)
(1.16694 0.0906102 4.12555e-18)
(1.17452 0.090834 9.88412e-18)
(1.18954 0.0983143 -2.44816e-18)
(1.2067 0.0988813 -1.61294e-17)
(1.23506 0.108032 5.75956e-19)
(1.26691 0.105909 2.46446e-18)
(1.33448 0.126622 -4.4527e-18)
(1.36714 0.0932133 5.19089e-18)
(1.18541 0.120887 -3.48487e-17)
(1.15668 0.0838545 -2.78001e-18)
(1.16741 0.0896008 4.15896e-18)
(1.17503 0.0894468 9.32256e-18)
(1.19024 0.0962057 -2.80146e-18)
(1.20746 0.0957284 -1.48297e-17)
(1.23615 0.103658 8.83558e-20)
(1.2685 0.0987254 1.85355e-18)
(1.33542 0.116819 -4.28155e-18)
(1.36372 0.0736713 -6.26545e-18)
(1.14069 0.100787 -5.09387e-17)
(1.15696 0.083458 -2.40347e-18)
(1.16781 0.0885823 1.56068e-19)
(1.17545 0.0880476 8.45393e-18)
(1.1908 0.09408 -2.64146e-18)
(1.20804 0.0925462 -1.37376e-17)
(1.23692 0.0992117 -1.22133e-19)
(1.2696 0.091483 9.47903e-19)
(1.33522 0.106681 -5.55205e-18)
(1.35879 0.0550132 -7.04849e-18)
(1.10205 0.0817094 -4.92039e-17)
(1.15719 0.0830438 -2.19988e-18)
(1.16815 0.0875574 3.90703e-18)
(1.1758 0.0866406 7.72664e-18)
(1.19123 0.0919437 -3.39388e-18)
(1.20844 0.0893467 -1.27338e-17)
(1.23738 0.0947128 6.27375e-20)
(1.27027 0.084218 5.83545e-19)
(1.33407 0.0962845 4.41632e-18)
(1.35268 0.036986 -7.83365e-18)
(1.06619 0.063403 -4.56917e-17)
(1.15739 0.0826133 -2.19472e-18)
(1.16843 0.086528 7.42865e-18)
(1.17607 0.085229 7.12094e-18)
(1.19156 0.089802 1.25883e-18)
(1.20869 0.0861395 -1.1436e-17)
(1.23759 0.0901742 7.36969e-19)
(1.27057 0.0769556 5.74499e-19)
(1.33214 0.0856755 2.61303e-18)
(1.34579 0.0194525 -6.71267e-18)
(1.03252 0.0457526 -4.27721e-17)
(1.15754 0.0821678 -2.03611e-18)
(1.16866 0.085496 7.1191e-18)
(1.17627 0.0838159 1.05716e-17)
(1.19178 0.0876594 -3.023e-18)
(1.20878 0.0829331 -1.12612e-17)
(1.23755 0.0856084 -4.30412e-18)
(1.2705 0.0697206 1.3266e-18)
(1.3295 0.0748979 1.04761e-17)
(1.33847 0.00228311 -1.8201e-17)
(1.00133 0.028631 -3.8996e-17)
(1.15766 0.0817087 -5.395e-18)
(1.16882 0.0844635 3.082e-18)
(1.17641 0.0824043 5.61198e-18)
(1.19189 0.0855202 -3.05352e-18)
(1.20874 0.0797342 -1.08072e-17)
(1.23727 0.0810207 -1.43433e-17)
(1.27006 0.0625157 -4.3462e-18)
(1.326 0.0638919 8.44834e-18)
(1.32977 -0.0147507 -1.95559e-17)
(0.972761 0.0119209 -5.40896e-17)
(1.15773 0.0812371 -1.48648e-18)
(1.16892 0.0834338 -8.25157e-19)
(1.17643 0.0810002 9.12232e-18)
(1.19183 0.083403 1.16692e-18)
(1.20841 0.076581 -1.04006e-17)
(1.23652 0.0765135 -1.85065e-17)
(1.26893 0.0555376 -1.01842e-17)
(1.32193 0.0533013 1.72867e-17)
(1.32451 -0.0311094 -8.06074e-18)
(0.95403 -0.0041288 -5.12558e-17)
(1.14913 0.0872114 -7.43088e-18)
(1.15711 0.102031 -3.04506e-18)
(1.1643 0.107183 1.39086e-17)
(1.1765 0.123332 -1.0739e-17)
(1.19239 0.136121 -2.46884e-17)
(1.21469 0.159183 -2.97423e-17)
(1.24175 0.188107 5.1103e-18)
(1.28333 0.229389 -7.92828e-18)
(1.33465 0.341806 -8.42664e-18)
(1.32324 0.377038 -4.44188e-17)
(1.15 0.0870949 -6.67319e-18)
(1.15826 0.101167 7.87893e-19)
(1.1655 0.105904 1.67294e-17)
(1.17803 0.121357 -6.26933e-18)
(1.19414 0.133221 -2.35522e-17)
(1.21721 0.155184 -2.28619e-17)
(1.2449 0.182273 4.54838e-18)
(1.29089 0.22196 -6.13316e-18)
(1.34034 0.322218 -8.27358e-18)
(1.30905 0.356671 -4.05199e-17)
(1.15082 0.0869512 -6.16101e-18)
(1.15937 0.10028 6.07294e-19)
(1.1667 0.104598 1.19618e-17)
(1.1796 0.119343 -5.2727e-18)
(1.196 0.130251 -2.24188e-17)
(1.21996 0.151092 -1.52653e-17)
(1.24846 0.176118 4.38843e-18)
(1.2989 0.214278 -1.27095e-17)
(1.34729 0.303414 -6.87362e-18)
(1.29315 0.337003 -5.44073e-17)
(1.15158 0.0867804 -5.57108e-18)
(1.16042 0.0993717 3.98651e-18)
(1.16782 0.103266 1.09437e-17)
(1.18107 0.117292 -9.86585e-18)
(1.19774 0.127213 -2.10916e-17)
(1.22253 0.14691 -1.94213e-17)
(1.25177 0.169658 3.41587e-18)
(1.30619 0.206304 -2.01511e-17)
(1.35425 0.284828 -1.68438e-17)
(1.28568 0.317544 -5.21469e-17)
(1.1523 0.0865835 -5.04976e-18)
(1.1614 0.0984438 3.59435e-18)
(1.16886 0.101912 1.00205e-17)
(1.18241 0.11521 -8.64351e-18)
(1.19928 0.124117 -1.50595e-17)
(1.2248 0.142655 -1.81695e-17)
(1.25466 0.16294 2.83783e-18)
(1.31246 0.198046 -1.94231e-17)
(1.36067 0.265959 -1.47145e-17)
(1.28348 0.29784 -4.57486e-17)
(1.15297 0.0863615 -5.06664e-18)
(1.16231 0.0974984 6.79764e-18)
(1.16981 0.100539 9.3949e-18)
(1.18364 0.113104 -1.23036e-17)
(1.20065 0.120976 -1.43441e-17)
(1.22677 0.13834 -1.74145e-17)
(1.2572 0.156007 2.84637e-18)
(1.31776 0.189533 -9.7666e-18)
(1.36651 0.246591 -2.43936e-17)
(1.28356 0.277711 -5.93176e-17)
(1.15359 0.0861151 -1.01162e-18)
(1.16315 0.0965372 6.32617e-18)
(1.17068 0.0991503 8.82511e-18)
(1.18475 0.110978 -1.14357e-17)
(1.20188 0.117798 -1.33392e-17)
(1.2285 0.133977 -1.10554e-17)
(1.25944 0.148901 3.39038e-18)
(1.32223 0.180795 -7.99093e-18)
(1.37184 0.226605 -2.51344e-17)
(1.28542 0.25707 -7.35607e-17)
(1.15416 0.0858452 -7.45368e-19)
(1.16393 0.0955618 9.67694e-18)
(1.17148 0.0977475 4.3866e-18)
(1.18576 0.108837 -1.05759e-17)
(1.20297 0.114592 -1.74698e-17)
(1.23 0.129578 -5.13587e-18)
(1.26132 0.141655 -3.42161e-18)
(1.32594 0.171865 -1.726e-17)
(1.37654 0.205851 -1.35533e-17)
(1.28994 0.2358 -6.77161e-17)
(1.15469 0.0855527 -4.17463e-18)
(1.16464 0.094574 5.54744e-18)
(1.17221 0.096334 4.01659e-18)
(1.18666 0.106684 -6.21369e-18)
(1.20391 0.111367 -1.5643e-17)
(1.23127 0.12516 -4.80023e-18)
(1.26287 0.134312 -3.32226e-18)
(1.3289 0.162813 -1.71645e-17)
(1.37981 0.184141 -1.38887e-17)
(1.29658 0.213725 -4.73981e-17)
(1.15516 0.0852374 -3.90335e-18)
(1.16528 0.0935736 5.02463e-18)
(1.17282 0.0949068 3.69835e-18)
(1.18738 0.104515 -1.4548e-18)
(1.2046 0.108108 -1.47329e-17)
(1.23212 0.120701 -5.18104e-18)
(1.26372 0.126811 -3.58341e-18)
(1.33058 0.153644 -1.57371e-17)
(1.38297 0.161089 -4.00314e-18)
(1.30912 0.190434 -2.42039e-17)
(1.13914 0.0875327 -1.09777e-17)
(1.14397 0.10928 -7.44754e-18)
(1.15085 0.118839 2.54397e-17)
(1.1599 0.141642 -3.86872e-18)
(1.17331 0.163168 -2.95386e-17)
(1.18859 0.196726 -4.02323e-17)
(1.20257 0.236639 2.57545e-17)
(1.20066 0.303617 1.13173e-18)
(1.19692 0.425068 3.08851e-18)
(0.965553 0.480091 3.49093e-18)
(1.14115 0.0875782 -1.33007e-17)
(1.14647 0.108617 -9.85833e-18)
(1.15364 0.117717 2.36352e-17)
(1.16323 0.139877 -6.35043e-18)
(1.17718 0.160582 -2.76305e-17)
(1.19334 0.193366 -4.28557e-17)
(1.20904 0.232888 1.83436e-17)
(1.20992 0.298786 -4.38638e-18)
(1.21438 0.425817 2.9061e-18)
(0.988076 0.476411 3.2279e-18)
(1.14224 0.0876047 -1.27577e-17)
(1.14789 0.107937 -9.39201e-18)
(1.15504 0.116586 2.22851e-17)
(1.16489 0.138103 -9.22144e-18)
(1.17897 0.157978 -2.60053e-17)
(1.19571 0.189909 -4.53349e-17)
(1.21315 0.228892 1.68209e-17)
(1.21847 0.293067 -4.45365e-18)
(1.23239 0.42479 1.02665e-17)
(1.01982 0.471693 2.86814e-18)
(1.14307 0.0876147 -1.47144e-17)
(1.14904 0.107249 -8.90814e-18)
(1.15615 0.11545 1.82473e-17)
(1.1663 0.136318 -1.19388e-17)
(1.18062 0.15535 -2.45748e-17)
(1.19809 0.186339 -4.24764e-17)
(1.21743 0.22459 1.51378e-17)
(1.22777 0.286547 -3.59242e-18)
(1.2491 0.421918 1.74233e-18)
(1.05225 0.465745 3.39782e-18)
(1.14396 0.0876069 -1.41109e-17)
(1.15025 0.106547 -8.38495e-18)
(1.15738 0.114302 1.69576e-17)
(1.16788 0.13451 -1.09314e-17)
(1.18255 0.15268 -1.92934e-17)
(1.20087 0.182648 -4.53078e-17)
(1.22202 0.219996 1.87411e-17)
(1.23718 0.279372 -3.76187e-18)
(1.26471 0.417246 1.91637e-18)
(1.08534 0.458512 -5.0993e-18)
(1.14489 0.0875804 -1.34151e-17)
(1.15151 0.105829 -7.90728e-18)
(1.15868 0.113138 1.61099e-17)
(1.16953 0.132676 -1.02848e-17)
(1.18453 0.149967 -1.82502e-17)
(1.20366 0.178849 -4.31333e-17)
(1.22639 0.215139 1.73205e-17)
(1.24622 0.271625 -2.73838e-18)
(1.2797 0.41066 8.78586e-20)
(1.12114 0.449854 -4.89579e-18)
(1.14581 0.0875353 -1.28356e-17)
(1.15273 0.105096 -7.52892e-18)
(1.15992 0.111959 1.83505e-17)
(1.1711 0.130819 -9.50237e-18)
(1.18638 0.147218 -2.13373e-17)
(1.20624 0.174962 -4.12077e-17)
(1.23032 0.210042 1.54509e-17)
(1.25482 0.263369 -9.21801e-18)
(1.29405 0.401961 4.58167e-19)
(1.16039 0.439577 -4.97364e-18)
(1.14667 0.0874723 -1.2234e-17)
(1.15388 0.104348 -6.96412e-18)
(1.16109 0.110767 1.70568e-17)
(1.17256 0.128944 -8.65545e-18)
(1.18807 0.144439 -1.9933e-17)
(1.20863 0.171003 -3.94888e-17)
(1.23384 0.204719 1.43178e-17)
(1.26297 0.254688 -8.40898e-18)
(1.30745 0.390929 2.61729e-19)
(1.20334 0.427464 -3.1317e-18)
(1.1475 0.0873918 -1.16258e-17)
(1.15498 0.103587 -3.60355e-18)
(1.1622 0.109566 1.60731e-17)
(1.17394 0.127055 -7.96962e-18)
(1.18963 0.141635 -1.89457e-17)
(1.21084 0.166991 -3.77197e-17)
(1.23696 0.199194 1.28672e-17)
(1.27057 0.245731 -1.75078e-19)
(1.31934 0.377428 6.28969e-19)
(1.24931 0.413389 2.13232e-19)
(1.1483 0.0872955 -1.109e-17)
(1.15602 0.102815 -3.36459e-18)
(1.16323 0.108353 1.51848e-17)
(1.1752 0.125145 -1.08701e-17)
(1.19103 0.138778 -2.19235e-17)
(1.21281 0.162862 -3.1159e-17)
(1.23956 0.193313 5.84063e-18)
(1.27731 0.236208 2.78542e-19)
(1.33014 0.360172 1.60092e-18)
(1.29858 0.396032 -2.96197e-17)
(1.0349 0.000387082 -6.34239e-19)
(0.962108 -0.000660573 9.45055e-19)
(1.04054 -0.000373349 -4.03336e-18)
(0.96131 0.00267684 2.43298e-18)
(1.0294 0.001402 -6.57682e-18)
(0.949011 0.00705847 -8.1942e-20)
(0.99931 0.00425554 6.92836e-18)
(0.916108 0.0358032 -1.31806e-17)
(0.837606 0.0350015 2.01956e-17)
(0.761721 0.276192 -7.31889e-18)
(1.03503 0.000426984 -1.94374e-18)
(0.96187 -0.000735591 6.91807e-19)
(1.04091 -0.000363887 -3.23319e-18)
(0.960706 0.00286309 2.47894e-18)
(1.03014 0.00157916 -7.11138e-18)
(0.947917 0.00754971 -1.5013e-18)
(1.00106 0.00489074 5.68366e-18)
(0.913572 0.0384991 -1.1508e-17)
(0.844837 0.0393489 2.20504e-17)
(0.764265 0.297124 1.79397e-18)
(1.03516 0.000468572 -1.70494e-18)
(0.961632 -0.000814531 5.36569e-19)
(1.04129 -0.000347928 -2.75752e-18)
(0.960088 0.00304132 2.71921e-18)
(1.0309 0.00176456 -5.89441e-18)
(0.946799 0.00801969 -8.25045e-19)
(1.00287 0.00554701 4.85086e-18)
(0.910992 0.0410767 -1.10692e-17)
(0.852455 0.0436056 2.65534e-17)
(0.767146 0.316886 3.30878e-18)
(1.03528 0.000511411 -1.59486e-18)
(0.961399 -0.000896449 3.87232e-19)
(1.04167 -0.000326349 -2.60402e-18)
(0.959464 0.00321576 1.57759e-18)
(1.03167 0.00195768 -5.4293e-18)
(0.945671 0.00848252 -1.93789e-18)
(1.00472 0.00623743 -3.58467e-19)
(0.908418 0.0436267 -1.16352e-17)
(0.860428 0.0479097 2.10805e-17)
(0.770357 0.336678 5.92533e-18)
(1.03539 0.000555625 -1.77523e-18)
(0.961175 -0.000981917 3.36584e-19)
(1.04205 -0.000298311 -2.78825e-18)
(0.958843 0.00338471 -1.08272e-18)
(1.03245 0.00215926 -5.79387e-18)
(0.94455 0.00893102 -3.19591e-18)
(1.0066 0.00696311 -1.10112e-18)
(0.905902 0.0461067 -9.79791e-18)
(0.868721 0.0522707 1.81767e-17)
(0.773911 0.356513 1.15323e-17)
(1.0355 0.000601213 -3.22382e-19)
(0.960965 -0.00107105 3.10502e-19)
(1.04242 -0.000263656 -1.21312e-18)
(0.958231 0.00354765 -2.37208e-18)
(1.03323 0.00236902 -4.12426e-18)
(0.943452 0.00936406 -2.7445e-18)
(1.0085 0.00772094 -2.08898e-18)
(0.9035 0.0485066 -8.48011e-18)
(0.87729 0.0566673 1.82561e-17)
(0.777857 0.376241 1.18955e-17)
(1.03559 0.000648138 1.1053e-18)
(0.960772 -0.00116389 2.06569e-19)
(1.04278 -0.000222635 9.88496e-20)
(0.957637 0.00370433 -4.01326e-18)
(1.03401 0.0025866 -2.94853e-18)
(0.94239 0.00978067 -2.58917e-18)
(1.0104 0.00850615 -3.56569e-18)
(0.901274 0.0508175 -7.65785e-18)
(0.886085 0.0610641 2.1392e-17)
(0.782333 0.395852 1.47587e-17)
(1.03567 0.000696392 7.42953e-19)
(0.960601 -0.00126075 5.03211e-20)
(1.04312 -0.000175804 1.3653e-18)
(0.957069 0.00385433 -4.6225e-18)
(1.03477 0.00281411 -2.17473e-18)
(0.941383 0.0101808 -2.77557e-18)
(1.01229 0.00932165 -5.57885e-18)
(0.899292 0.053039 -7.11124e-18)
(0.895046 0.0655375 1.482e-17)
(0.787703 0.4154 1.32841e-17)
(1.03573 0.000745506 4.74924e-19)
(0.960458 -0.00136114 -2.13115e-21)
(1.04345 -0.000119105 2.70261e-18)
(0.956536 0.00400129 -4.12852e-18)
(1.0355 0.00305398 -1.71152e-18)
(0.940444 0.010584 -3.54652e-18)
(1.01416 0.0101928 -3.86471e-18)
(0.89763 0.0552837 -7.22412e-18)
(0.904105 0.0704475 1.07908e-17)
(0.794924 0.434909 1.27852e-17)
(1.03577 0.000793833 3.77446e-19)
(0.960346 -0.0014604 -1.26198e-19)
(1.04374 -5.01801e-05 2.1878e-18)
(0.956045 0.00415366 -4.35132e-18)
(1.03621 0.00328398 -1.38251e-18)
(0.939592 0.0110011 -2.79369e-18)
(1.01601 0.0110551 -2.71412e-18)
(0.896381 0.0575453 -8.11747e-18)
(0.913198 0.0749159 8.05956e-18)
(0.806551 0.454031 1.38926e-17)
(1.03389 1.55598e-05 1.44176e-18)
(0.963882 -2.47784e-05 -2.10242e-18)
(1.03793 -2.79528e-05 1.82723e-18)
(0.965429 0.000143333 -2.55392e-18)
(1.02448 5.44183e-05 -8.95624e-19)
(0.956249 0.00038703 7.08728e-19)
(0.988049 0.000171127 1.79244e-17)
(0.931602 0.00194235 4.62019e-18)
(0.79606 0.00175572 1.17649e-17)
(0.744573 0.0132995 1.58438e-17)
(1.03391 4.85647e-05 1.92215e-18)
(0.963843 -7.93853e-05 -1.32177e-18)
(1.03799 -7.9267e-05 2.21913e-18)
(0.965343 0.000412309 -3.33002e-18)
(1.02458 0.000165649 -3.04359e-18)
(0.956096 0.00109221 1.82971e-18)
(0.98827 0.000488651 2.23784e-17)
(0.931266 0.00546866 3.62444e-18)
(0.796889 0.00490401 2.19007e-17)
(0.744969 0.0401825 7.86871e-18)
(1.03396 8.19599e-05 2.80238e-18)
(0.963767 -0.000134555 -7.72491e-19)
(1.0381 -0.000129014 4.10361e-19)
(0.96517 0.000680018 -2.9059e-18)
(1.02478 0.000279484 -2.64549e-18)
(0.955793 0.00179847 1.88042e-18)
(0.988717 0.000821233 2.50977e-17)
(0.930616 0.00901007 3.11592e-18)
(0.79853 0.00815694 2.11761e-17)
(0.74574 0.066831 9.82803e-19)
(1.03402 0.000115983 1.99361e-18)
(0.963653 -0.000191197 -4.76873e-19)
(1.03826 -0.000176266 -1.41051e-18)
(0.964915 0.00094565 -3.04808e-18)
(1.02508 0.000396995 -2.36374e-18)
(0.955345 0.00249785 1.06581e-18)
(0.989392 0.00116781 2.64577e-17)
(0.92967 0.012524 2.73119e-18)
(0.800966 0.011431 2.34734e-17)
(0.746871 0.0933872 -6.96024e-18)
(1.03411 0.000150946 1.48716e-18)
(0.963505 -0.000249917 -3.77199e-19)
(1.03847 -0.000220164 -9.13311e-19)
(0.964581 0.00120795 -1.82097e-18)
(1.02548 0.000519266 8.98039e-19)
(0.954759 0.00318736 1.41661e-18)
(0.990289 0.00153059 2.13306e-17)
(0.928443 0.0159971 -1.1374e-18)
(0.804177 0.0147164 2.87564e-17)
(0.748345 0.1199 -1.9875e-17)
(1.03421 0.000187076 1.38707e-18)
(0.963326 -0.000311157 1.38679e-18)
(1.03873 -0.000260002 -6.49708e-19)
(0.964173 0.00146633 -9.40186e-19)
(1.02597 0.00064733 1.07534e-18)
(0.954043 0.00386582 2.61003e-18)
(0.991396 0.00191243 1.42282e-17)
(0.926952 0.0194251 -5.15044e-18)
(0.808142 0.0180083 2.36685e-17)
(0.750142 0.146377 -2.42181e-17)
(1.03433 0.000224579 1.51046e-18)
(0.963117 -0.000375353 1.50403e-18)
(1.03904 -0.000295076 -3.14359e-18)
(0.963697 0.00172024 -1.85782e-19)
(1.02654 0.000782113 -1.82298e-18)
(0.953209 0.00453191 2.53214e-18)
(0.9927 0.00231662 9.15992e-18)
(0.92521 0.0228025 -1.01703e-17)
(0.812828 0.0213066 2.17072e-17)
(0.75223 0.172824 -1.9305e-17)
(1.03447 0.000263697 -2.3936e-19)
(0.962885 -0.000443025 -2.63986e-19)
(1.03938 -0.00032474 -6.19865e-18)
(0.96316 0.00196871 5.35822e-19)
(1.02718 0.000924055 -4.93298e-18)
(0.952267 0.00518292 1.03755e-18)
(0.99418 0.0027443 4.99257e-18)
(0.923232 0.0261171 -1.29078e-17)
(0.818199 0.0246013 2.28064e-17)
(0.75456 0.199307 -1.76816e-17)
(1.03461 0.000304738 2.9425e-19)
(0.962632 -0.000514828 -3.21714e-19)
(1.03975 -0.000348684 -7.78683e-18)
(0.96257 0.00221001 1.43938e-18)
(1.02789 0.00107304 -5.41571e-18)
(0.951233 0.00581191 1.05577e-19)
(0.995812 0.00318506 6.62262e-18)
(0.92103 0.0293268 -1.36954e-17)
(0.824204 0.0277553 2.73286e-17)
(0.757046 0.22602 -2.05836e-17)
(1.03476 0.000347486 8.15336e-19)
(0.962365 -0.000590282 1.2513e-18)
(1.04015 -0.000366488 -5.39368e-18)
(0.961934 0.00244671 2.65098e-18)
(1.02865 0.00123186 -7.00085e-18)
(0.95012 0.00642721 1.68344e-18)
(0.997564 0.00364934 8.85055e-18)
(0.918615 0.0324609 -1.25488e-17)
(0.830784 0.030777 2.24588e-17)
(0.759541 0.252665 -1.37234e-17)
(1.03476 -0.000347486 -9.96749e-20)
(0.962365 0.000590283 -6.22415e-19)
(1.04015 0.000366488 -1.76143e-18)
(0.961934 -0.00244671 -4.44569e-18)
(1.02865 -0.00123186 -3.14548e-18)
(0.95012 -0.00642721 -2.10673e-18)
(0.997564 -0.00364933 -7.26796e-18)
(0.918615 -0.0324609 4.15328e-18)
(0.830784 -0.030777 4.1693e-18)
(0.759541 -0.252665 -5.01711e-18)
(1.03461 -0.000304739 3.90179e-19)
(0.962632 0.000514828 7.70565e-20)
(1.03975 0.000348684 -3.37128e-19)
(0.96257 -0.00221001 -6.02412e-18)
(1.02789 -0.00107304 -3.50392e-18)
(0.951233 -0.00581191 -1.33465e-18)
(0.995812 -0.00318506 -9.07056e-18)
(0.92103 -0.0293268 5.77265e-18)
(0.824204 -0.0277553 5.79573e-18)
(0.757046 -0.22602 3.65006e-18)
(1.03447 -0.000263697 -1.29468e-18)
(0.962885 0.000443026 -1.21616e-18)
(1.03938 0.00032474 8.44912e-19)
(0.96316 -0.00196871 -6.95429e-18)
(1.02718 -0.000924056 -4.29042e-18)
(0.952267 -0.00518292 -1.12121e-18)
(0.99418 -0.0027443 -6.91297e-18)
(0.923232 -0.0261171 4.95898e-18)
(0.818199 -0.0246013 6.75865e-18)
(0.75456 -0.199307 -8.19225e-19)
(1.03433 -0.000224579 -1.05004e-18)
(0.963117 0.000375353 -7.43249e-19)
(1.03904 0.000295076 -5.744e-19)
(0.963697 -0.00172024 -5.30111e-18)
(1.02654 -0.000782114 -2.56437e-18)
(0.953209 -0.0045319 1.06578e-18)
(0.9927 -0.00231662 -5.60556e-18)
(0.92521 -0.0228025 5.38987e-18)
(0.812828 -0.0213066 -5.20421e-18)
(0.75223 -0.172824 6.65768e-18)
(1.03421 -0.000187076 -1.04989e-18)
(0.963326 0.000311157 -4.28467e-19)
(1.03873 0.000260003 3.40177e-19)
(0.964173 -0.00146633 -2.80458e-18)
(1.02597 -0.00064733 -4.31248e-18)
(0.954043 -0.00386582 3.30296e-18)
(0.991396 -0.00191243 -5.298e-18)
(0.926952 -0.0194251 6.88896e-18)
(0.808142 -0.0180083 -2.47997e-18)
(0.750142 -0.146377 1.35242e-17)
(1.03411 -0.000150947 -1.18995e-18)
(0.963505 0.000249918 -1.16775e-19)
(1.03847 0.000220164 1.1955e-18)
(0.964581 -0.00120795 -1.02229e-18)
(1.02548 -0.000519266 -3.35615e-18)
(0.954759 -0.00318736 3.93535e-18)
(0.990289 -0.00153059 -5.72015e-18)
(0.928443 -0.0159971 2.47084e-18)
(0.804177 -0.0147164 -1.48328e-17)
(0.748345 -0.1199 8.59507e-18)
(1.03402 -0.000115983 -1.69932e-18)
(0.963653 0.000191197 2.28093e-19)
(1.03826 0.000176267 -3.11095e-19)
(0.964915 -0.000945651 5.46328e-19)
(1.02508 -0.000396995 -2.96838e-18)
(0.955345 -0.00249785 3.02705e-18)
(0.989392 -0.00116781 -1.81362e-18)
(0.92967 -0.012524 1.75498e-18)
(0.800966 -0.011431 -1.38451e-17)
(0.746871 -0.0933872 6.42845e-18)
(1.03396 -8.19601e-05 -2.46874e-18)
(0.963767 0.000134555 -1.26189e-18)
(1.0381 0.000129014 -1.81312e-18)
(0.96517 -0.000680019 5.16004e-20)
(1.02478 -0.000279485 4.45397e-19)
(0.955793 -0.00179847 5.44428e-19)
(0.988717 -0.000821233 2.0398e-18)
(0.930616 -0.00901007 1.24029e-18)
(0.79853 -0.00815694 -1.55505e-17)
(0.74574 -0.066831 6.48564e-18)