/*--------------------------------*- C++ -*----------------------------------*\
  =========                 |
  \\      /  F ield         | OpenFOAM: The Open Source CFD Toolbox
   \\    /   O peration     | Website:  https://openfoam.org
    \\  /    A nd           | Version:  7
     \\/     M anipulation  |
\*---------------------------------------------------------------------------*/
FoamFile
{
    version     2.0;
    format      ascii;
    class       volVectorField;
    location    "64";
    object      U;
}
// * * * * * * * * * * * * * * * * * * * * * * * * * * * * * * * * * * * * * //

dimensions      [0 1 -1 0 0 0 0];

internalField   nonuniform List<vector> 
115
(
(0.461253 0.0048455 -7.23936e-19)
(0.458384 0.00662355 -2.18722e-18)
(0.455837 0.00840713 -1.72639e-18)
(0.453648 0.0101856 -4.33976e-18)
(0.451852 0.0119503 -7.12103e-18)
(0.45048 0.013695 -7.34211e-18)
(0.449564 0.0154178 -7.7342e-18)
(0.449137 0.0171202 -8.1167e-18)
(0.44923 0.0188065 -8.37078e-18)
(0.449877 0.0204828 -8.90259e-18)
(0.451107 0.0221565 -9.06533e-18)
(0.452953 0.023836 -9.63678e-18)
(0.455445 0.0255302 -9.76555e-18)
(0.392967 0.00240589 -1.14508e-18)
(0.389211 0.00395758 -7.32066e-19)
(0.385604 0.00553063 -1.6353e-18)
(0.382185 0.00711657 -1.44157e-18)
(0.378996 0.00869976 -4.7361e-18)
(0.376072 0.0102641 -1.891e-18)
(0.373448 0.0117986 -6.30421e-18)
(0.371154 0.013295 -2.84983e-18)
(0.369224 0.0147486 -3.31825e-18)
(0.367686 0.0161577 -3.47309e-18)
(0.366574 0.0175239 -3.62913e-18)
(0.365917 0.0188513 -3.77823e-18)
(0.365747 0.020146 -3.98636e-18)
(0.366096 0.0214156 -4.10243e-18)
(0.366996 0.0226688 -4.32695e-18)
(0.368477 0.0239153 -4.40429e-18)
(0.370569 0.0251651 -4.41879e-18)
(0.318216 0.00511277 -2.87829e-18)
(0.314518 0.0065896 -9.08137e-19)
(0.310928 0.00806183 -3.49065e-18)
(0.307479 0.00951837 -6.45808e-19)
(0.304207 0.010946 -1.89059e-18)
(0.301142 0.0123323 -1.40744e-18)
(0.298314 0.0136667 -3.82807e-18)
(0.295752 0.0149416 -6.94732e-18)
(0.293485 0.0161522 -7.28673e-18)
(0.291541 0.0172972 -7.59366e-18)
(0.289948 0.0183777 -8.01791e-18)
(0.288735 0.0193976 -8.27716e-18)
(0.287932 0.0203629 -8.63176e-18)
(0.287569 0.0212811 -9.03642e-18)
(0.287675 0.022161 -9.49303e-18)
(0.288281 0.0230127 -9.66817e-18)
(0.289416 0.0238467 -9.9719e-18)
(0.246698 0.00768738 -1.10096e-18)
(0.243278 0.00911244 -4.42794e-19)
(0.239931 0.0105117 -1.36148e-18)
(0.236687 0.0118735 -9.45425e-19)
(0.233571 0.0131852 -3.86135e-18)
(0.230611 0.0144353 -1.22173e-18)
(0.227831 0.0156142 -5.40326e-18)
(0.225255 0.0167148 -2.78456e-18)
(0.222908 0.0177324 -3.06012e-18)
(0.220815 0.0186653 -3.22579e-18)
(0.218999 0.0195146 -3.39884e-18)
(0.217486 0.0202838 -3.48261e-18)
(0.216301 0.0209783 -3.62498e-18)
(0.215471 0.0216055 -3.86204e-18)
(0.215022 0.0221741 -4.08031e-18)
(0.214982 0.022694 -4.14315e-18)
(0.215378 0.0231758 -4.26755e-18)
(0.177787 0.00998356 -2.38127e-18)
(0.174833 0.0113755 -1.71916e-19)
(0.171929 0.0127246 -2.9027e-18)
(0.169096 0.0140189 1.18932e-19)
(0.166358 0.0152463 1.09746e-19)
(0.163732 0.016396 -1.69802e-19)
(0.161241 0.0174587 -1.28562e-18)
(0.158902 0.0184275 -5.95511e-18)
(0.156736 0.0192978 -6.48906e-18)
(0.154761 0.020068 -6.79082e-18)
(0.152996 0.0207386 -7.22524e-18)
(0.151463 0.0213126 -7.60314e-18)
(0.150181 0.0217953 -7.8855e-18)
(0.149172 0.0221934 -8.27678e-18)
(0.148458 0.0225154 -8.77878e-18)
(0.148061 0.0227707 -8.88981e-18)
(0.148004 0.0229699 -9.33586e-18)
(0.110947 0.0118864 -2.02282e-20)
(0.108601 0.0132558 2.517e-18)
(0.106293 0.0145693 -1.23876e-19)
(0.10404 0.0158148 1.28727e-18)
(0.101858 0.0169807 3.87974e-18)
(0.0997614 0.0180566 1.54345e-18)
(0.0977649 0.0190334 3.79609e-18)
(0.0958826 0.0199046 -1.06411e-18)
(0.0941285 0.0206657 -1.37516e-18)
(0.0925164 0.0213147 -1.42386e-18)
(0.0910604 0.0218521 -1.58836e-18)
(0.0897748 0.0222805 -1.6414e-18)
(0.0886747 0.0226048 -1.71018e-18)
(0.0877754 0.0228312 -1.78899e-18)
(0.0870929 0.0229678 -1.84031e-18)
(0.0866437 0.0230236 -1.83884e-18)
(0.086445 0.0230087 -1.81624e-18)
(0.0459093 0.013317 1.74624e-19)
(0.0442643 0.0146657 1.0386e-18)
(0.0426586 0.0159492 6.22246e-19)
(0.041103 0.0171554 3.63807e-18)
(0.039608 0.018273 2.23552e-18)
(0.0381837 0.0192919 4.5188e-18)
(0.0368394 0.0202035 1.92029e-18)
(0.0355844 0.0210013 2.20844e-20)
(0.0344271 0.0216812 -2.01784e-19)
(0.0333763 0.0222411 -2.59557e-19)
(0.0324405 0.0226812 -3.16427e-19)
(0.0316285 0.0230041 -3.49107e-19)
(0.0309495 0.0232142 -3.18089e-19)
(0.0304129 0.0233176 -3.98983e-19)
(0.0300286 0.0233218 -3.59533e-19)
(0.029807 0.0232355 -4.36716e-19)
(0.0297589 0.0230683 -4.57893e-19)
)
;

boundaryField
{
    inlet
    {
        type            uniformFixedValue;
        uniformValue    constant (1 0 0);
        value           nonuniform 0();
    }
    outlet
    {
        type            pressureInletOutletVelocity;
        value           nonuniform 0();
    }
    polygon
    {
        type            fixedValue;
        value           nonuniform 0();
    }
    top
    {
        type            symmetryPlane;
    }
    bottom
    {
        type            symmetryPlane;
    }
    outside
    {
        type            zeroGradient;
    }
    procBoundary54to46
    {
        type            processor;
        value           nonuniform List<vector> 
17
(
(-0.0172642 0.01423 3.14309e-19)
(-0.0181581 0.015552 2.67814e-18)
(-0.0190019 0.0168029 6.53836e-19)
(-0.0197895 0.0179707 1.64274e-18)
(-0.0205151 0.0190444 4.25432e-18)
(-0.0211735 0.0200141 2.54962e-18)
(-0.02176 0.0208717 4.74898e-18)
(-0.0222704 0.0216112 4.85862e-19)
(-0.0227009 0.0222283 4.31617e-20)
(-0.0230481 0.0227213 -4.28813e-20)
(-0.0233084 0.0230903 -1.1508e-19)
(-0.0234784 0.0233377 -1.26604e-19)
(-0.0235544 0.0234677 -2.86921e-20)
(-0.0235325 0.0234862 -9.18148e-20)
(-0.0234084 0.0234005 -3.5068e-20)
(-0.0231775 0.0232191 2.62076e-20)
(-0.0228351 0.022951 -2.18429e-19)
)
;
    }
    procBoundary54to53
    {
        type            processor;
        value           nonuniform List<vector> 8((0.458612 0.0272481 -9.98862e-18) (0.458612 0.0272481 -9.98862e-18) (0.373301 0.0264284 -4.60872e-18) (0.291109 0.0246738 -1.02649e-17) (0.216236 0.0236308 -4.3168e-18) (0.148309 0.0231239 -9.38577e-18) (0.0865146 0.0229337 -1.94173e-18) (0.0298959 0.0228304 -3.9966e-19));
    }
    procBoundary54to55
    {
        type            processor;
        value           nonuniform List<vector> 6((0.396831 0.000884946 1.61689e-18) (0.321989 0.00364192 -2.26159e-18) (0.250165 0.00624773 9.81272e-19) (0.180771 0.00856062 -2.24281e-18) (0.113317 0.0104736 -4.33883e-19) (0.0475826 0.0119158 -4.35533e-20));
    }
    procBoundary54to62
    {
        type            processor;
        value           nonuniform List<vector> 
17
(
(0.544522 0.00288975 -1.68851e-18)
(0.54219 0.00487483 -4.74361e-18)
(0.540225 0.00690977 -1.52594e-18)
(0.538665 0.00897471 -5.68404e-18)
(0.537545 0.0110505 -1.0523e-18)
(0.536898 0.0131275 -2.00198e-18)
(0.536755 0.0152047 -1.93968e-18)
(0.537147 0.0172839 -2.07571e-18)
(0.538106 0.0193697 -2.1597e-18)
(0.539662 0.0214678 -2.50837e-18)
(0.541847 0.0235855 -2.47024e-18)
(0.544692 0.0257303 -2.41831e-18)
(0.548224 0.0279102 -2.51835e-18)
(0.471374 -0.000275771 -8.88e-19)
(0.467798 0.00137896 -1.44813e-18)
(0.464408 0.0030877 -3.82385e-18)
(0.464408 0.0030877 -3.82385e-18)
)
;
    }
}


// ************************************************************************* //
