/*--------------------------------*- C++ -*----------------------------------*\
  =========                 |
  \\      /  F ield         | OpenFOAM: The Open Source CFD Toolbox
   \\    /   O peration     | Website:  https://openfoam.org
    \\  /    A nd           | Version:  7
     \\/     M anipulation  |
\*---------------------------------------------------------------------------*/
FoamFile
{
    version     2.0;
    format      ascii;
    class       surfaceScalarField;
    location    "74";
    object      phi;
}
// * * * * * * * * * * * * * * * * * * * * * * * * * * * * * * * * * * * * * //

dimensions      [0 3 -1 0 0 0 0];

internalField   nonuniform List<scalar> 
322
(
0.00191261
8.08063e-07
0.00191346
-8.56458e-07
0.00191168
1.77688e-06
0.00191232
-6.45877e-07
0.00190962
2.69763e-06
0.00190958
3.234e-08
0.0019054
4.16705e-06
0.00190374
1.65306e-06
0.00189702
6.70635e-06
0.00189165
5.35782e-06
0.00188026
1.13718e-05
0.00186652
1.3729e-05
0.00184603
2.04747e-05
0.00181253
3.34639e-05
0.00177261
3.99003e-05
0.00168696
8.56122e-05
0.00159606
9.08728e-05
0.000256287
0.00191261
1.618e-06
0.00191346
-1.71245e-06
0.00191168
3.56102e-06
0.00191232
-1.2883e-06
0.00190961
5.40759e-06
0.00190957
7.13848e-08
0.00190539
8.35428e-06
0.00190372
3.31959e-06
0.00189698
1.34471e-05
0.00189159
1.07416e-05
0.00188015
2.28114e-05
0.00186637
2.75094e-05
0.00184574
4.11047e-05
0.00181218
6.70308e-05
0.00177186
8.02185e-05
0.00168603
0.000171445
0.00159384
0.000183059
0.00051339
0.00191261
2.42915e-06
0.00191346
-2.57119e-06
0.00191168
5.34986e-06
0.00191232
-1.9339e-06
0.0019096
8.1244e-06
0.00190957
1.07569e-07
0.00190537
1.25549e-05
0.0019037
4.98444e-06
0.00189693
2.02166e-05
0.00189155
1.61275e-05
0.00188004
3.43178e-05
0.00186625
4.12989e-05
0.00184545
6.19046e-05
0.00181187
0.00010061
0.00177108
0.000121015
0.00168528
0.000257243
0.00159164
0.000276694
0.000770267
0.0019126
3.242e-06
0.00191347
-3.43421e-06
0.00191167
7.14517e-06
0.00191232
-2.5849e-06
0.0019096
1.08503e-05
0.00190957
1.37375e-07
0.00190535
1.67721e-05
0.00190369
6.64267e-06
0.00189689
2.70201e-05
0.00189151
2.15072e-05
0.00187992
4.59016e-05
0.00186614
5.50804e-05
0.00184515
8.28994e-05
0.0018116
0.000134154
0.00177026
0.000162355
0.00168467
0.000342833
0.00158949
0.00037188
0.00102609
0.0019126
4.057e-06
0.00191347
-4.30303e-06
0.00191167
8.94868e-06
0.00191233
-3.24352e-06
0.00190959
1.35872e-05
0.00190957
1.57737e-07
0.00190533
2.10088e-05
0.00190369
8.28928e-06
0.00189684
3.38623e-05
0.00189148
2.68721e-05
0.00187981
5.75721e-05
0.00186605
6.88363e-05
0.00184484
0.00010411
0.00181138
0.000167617
0.00176944
0.000204291
0.00168423
0.000428045
0.00158742
0.000468689
0.00128005
0.0019126
4.87459e-06
0.00191348
-5.17915e-06
0.00191166
1.07621e-05
0.00191233
-3.91198e-06
0.00190958
1.63369e-05
0.00190957
1.65408e-07
0.00190531
2.52676e-05
0.00190368
9.91924e-06
0.0018968
4.07476e-05
0.00189146
3.22137e-05
0.00187969
6.93375e-05
0.00186598
8.25495e-05
0.00184453
0.000125555
0.0018112
0.000200953
0.00176862
0.000246866
0.00168395
0.000512715
0.00158547
0.00056717
0.00153135
0.0019126
5.69518e-06
0.00191348
-6.06407e-06
0.00191166
1.25871e-05
0.00191234
-4.59253e-06
0.00190957
1.91015e-05
0.00190958
1.57147e-07
0.0019053
2.95514e-05
0.00190369
1.15276e-05
0.00189676
4.76804e-05
0.00189145
3.75239e-05
0.00187958
8.12054e-05
0.00186592
9.62042e-05
0.00184423
0.00014725
0.00181106
0.000234122
0.00176781
0.000290115
0.00168382
0.000596701
0.00158363
0.000667365
0.00177926
0.00191259
6.51915e-06
0.00191349
-6.9593e-06
0.00191165
1.44254e-05
0.00191234
-5.28736e-06
0.00190956
2.18826e-05
0.00190959
1.29913e-07
0.00190528
3.38627e-05
0.0019037
1.31094e-05
0.00189671
5.46645e-05
0.00189144
4.27947e-05
0.00187947
9.31825e-05
0.00186588
0.000109786
0.00184393
0.000169207
0.00181096
0.000267091
0.00176701
0.000334066
0.00168382
0.000679886
0.00158187
0.000769316
0.00202311
0.00191259
7.3469e-06
0.0019135
-7.86628e-06
0.00191164
1.62787e-05
0.00191235
-5.99866e-06
0.00190955
2.46825e-05
0.0019096
8.02193e-08
0.00190526
3.82043e-05
0.00190371
1.46603e-05
0.00189667
6.17041e-05
0.00189145
4.80196e-05
0.00187935
0.000105275
0.00186586
0.000123285
0.00184363
0.000191438
0.00181088
0.0017662
0.0016839
0.00158014
0.00191258
0.00191351
0.00191163
0.00191237
0.00190954
0.00190963
0.00190523
0.00190374
0.00189661
0.00189147
0.00187921
0.00186585
)
;

boundaryField
{
    inlet
    {
        type            calculated;
        value           nonuniform List<scalar> 10(-0.00191342 -0.00191342 -0.00191342 -0.00191342 -0.00191342 -0.00191342 -0.00191342 -0.00191342 -0.00191342 -0.00191342);
    }
    outlet
    {
        type            calculated;
        value           nonuniform 0();
    }
    polygon
    {
        type            calculated;
        value           nonuniform 0();
    }
    top
    {
        type            symmetryPlane;
        value           uniform 0;
    }
    bottom
    {
        type            symmetryPlane;
        value           uniform 0;
    }
    outside
    {
        type            calculated;
        value           nonuniform 0();
    }
    procBoundary32to24
    {
        type            processor;
        value           nonuniform List<scalar> 
18
(
1.21579e-09
1.64732e-09
4.40164e-09
4.46057e-09
7.18298e-09
7.10214e-09
9.48749e-09
1.01288e-08
1.12561e-08
1.39735e-08
1.30062e-08
1.94846e-08
1.56753e-08
2.76526e-08
2.0895e-08
4.01328e-08
3.15568e-08
6.09164e-08
)
;
    }
    procBoundary32to33
    {
        type            processor;
        value           nonuniform List<scalar> 9(0.00133971 0.00133674 0.00133477 0.00133366 0.00133346 0.00133417 0.00133572 0.00133803 0.00134092);
    }
    procBoundary32to40
    {
        type            processor;
        value           nonuniform List<scalar> 
19
(
8.18165e-06
-8.79392e-06
1.81592e-05
-6.74104e-06
2.75175e-05
-1.14282e-08
4.26002e-05
1.61509e-05
6.88352e-05
5.31573e-05
0.000117538
0.000136642
0.000214027
0.000299837
0.00037874
0.00076219
0.000873082
0.00226233
0.00184326
)
;
    }
}


// ************************************************************************* //
