/*--------------------------------*- C++ -*----------------------------------*\
  =========                 |
  \\      /  F ield         | OpenFOAM: The Open Source CFD Toolbox
   \\    /   O peration     | Website:  https://openfoam.org
    \\  /    A nd           | Version:  7
     \\/     M anipulation  |
\*---------------------------------------------------------------------------*/
FoamFile
{
    version     2.0;
    format      ascii;
    class       surfaceScalarField;
    location    "96";
    object      phi;
}
// * * * * * * * * * * * * * * * * * * * * * * * * * * * * * * * * * * * * * //

dimensions      [0 3 -1 0 0 0 0];

internalField   nonuniform List<scalar> 
22080
(
0.000593906
1.51141e-06
-1.83486e-06
0.000594595
3.20326e-06
-3.89253e-06
0.000595899
7.08692e-06
-8.39095e-06
0.000597659
9.79616e-06
-1.15563e-05
0.000599672
1.1385e-05
-1.33979e-05
0.000601779
1.18311e-05
-1.39381e-05
0.00060382
1.1209e-05
-1.32499e-05
0.000605673
9.80978e-06
-1.16631e-05
0.000607239
7.8351e-06
-9.4011e-06
0.000608443
5.49596e-06
-6.70006e-06
0.00060923
2.93804e-06
-3.7246e-06
0.000609561
2.70332e-07
-6.01214e-07
0.000609411
-2.47377e-06
2.62389e-06
0.000608765
-5.24256e-06
5.88836e-06
0.00060762
-8.02661e-06
9.17164e-06
0.000605979
-1.08407e-05
1.24816e-05
0.000603851
-1.37034e-05
1.58309e-05
0.000601252
-1.66369e-05
1.92369e-05
0.000598197
-1.96645e-05
2.27194e-05
0.000594707
-2.28054e-05
2.62952e-05
0.000590804
-2.60744e-05
2.99768e-05
0.000586513
-2.94774e-05
3.37684e-05
0.000581859
-3.30115e-05
3.76659e-05
0.000576868
-3.66649e-05
4.16561e-05
0.000571567
-4.04153e-05
4.57155e-05
0.000565987
-4.42306e-05
4.98108e-05
0.000560158
-4.80681e-05
5.38976e-05
0.000554111
-5.18763e-05
5.79233e-05
0.00054788
-5.55961e-05
6.18272e-05
0.000541499
-5.91618e-05
6.55423e-05
0.000535005
-6.25041e-05
6.89982e-05
0.000528434
-6.55518e-05
7.21227e-05
0.000521823
-6.82356e-05
7.48462e-05
0.00051521
-7.04891e-05
7.71023e-05
0.000508631
-7.22528e-05
7.88317e-05
0.000502122
-7.34738e-05
7.99828e-05
0.000495717
-7.41094e-05
8.05143e-05
0.000489449
-7.41277e-05
8.03961e-05
0.000483347
-7.35075e-05
7.96094e-05
0.000477439
-7.22398e-05
7.81477e-05
0.00047175
-7.03272e-05
7.60167e-05
0.0004663
-6.77842e-05
7.32337e-05
0.000461109
-6.46365e-05
6.98278e-05
0.000456191
-6.09205e-05
6.58386e-05
0.000451557
-5.66828e-05
6.13162e-05
0.000447217
-5.19795e-05
5.63197e-05
0.000443175
-4.68752e-05
5.09174e-05
0.000439432
-4.1442e-05
4.51845e-05
0.000435988
-3.57589e-05
3.92031e-05
0.000432838
-2.99093e-05
3.30597e-05
0.000429974
-2.39825e-05
2.68465e-05
0.000427386
-1.80698e-05
2.06574e-05
0.000425063
-1.22654e-05
1.4589e-05
0.000422988
-6.65877e-06
8.73366e-06
0.000421148
-1.3388e-06
3.17861e-06
0.000419527
3.59511e-06
-1.97433e-06
0.000418101
8.05307e-06
-6.62678e-06
0.000416846
1.19472e-05
-1.06922e-05
0.000415745
1.52594e-05
-1.41589e-05
0.000414776
1.7901e-05
-1.69321e-05
0.000413917
1.98376e-05
-1.89778e-05
0.000413143
2.1036e-05
-2.02629e-05
0.000412435
2.14839e-05
-2.07754e-05
0.000411769
2.11801e-05
-2.05145e-05
0.000411125
2.01506e-05
-1.95067e-05
0.000410484
1.84107e-05
-1.77692e-05
0.000409828
1.60617e-05
-1.54054e-05
0.000409131
1.30662e-05
-1.23697e-05
0.000408379
9.58602e-06
-8.83408e-06
0.000407556
5.68535e-06
-4.86204e-06
0.000406639
1.45687e-06
-5.39869e-07
0.000405613
-3.02552e-06
4.05159e-06
0.000404461
-7.6361e-06
8.78748e-06
0.000403167
-1.22543e-05
1.35491e-05
0.000401707
-1.6796e-05
1.82558e-05
0.00040006
-2.11869e-05
2.2834e-05
0.0003982
-2.53693e-05
2.72287e-05
0.000396099
-2.93131e-05
3.14143e-05
0.000393722
-3.30096e-05
3.53869e-05
0.000391027
-3.64951e-05
3.91902e-05
0.000387965
-3.98234e-05
4.28851e-05
0.000384476
-4.3127e-05
4.66157e-05
0.000380491
-4.65285e-05
5.05142e-05
0.000375918
-5.02968e-05
5.48692e-05
0.000370658
-5.46053e-05
5.9865e-05
0.000364575
-5.99555e-05
6.6039e-05
0.000357524
-6.64982e-05
7.35491e-05
0.00034929
-7.52039e-05
8.34383e-05
0.000339669
-8.59885e-05
9.56088e-05
0.000328298
-0.000100852
0.000112223
0.000314903
-0.000119077
0.000132471
0.000298829
-0.000144539
0.000160614
0.000279709
-0.000176249
0.000195369
0.000256454
-0.000218297
0.000241551
0.000228211
-0.000277526
0.000305769
0.000194407
-0.000337815
0.000371619
0.000150867
-0.000451322
0.000494862
0.000104875
-0.000496293
0.000542285
4.21195e-05
-0.000603741
0.000666496
-0.000415468
0.000457588
0.000603221
1.23869e-06
0.00060381
2.61459e-06
0.000604979
5.91778e-06
0.000606579
8.19574e-06
0.000608433
9.53094e-06
0.000610386
9.87833e-06
0.000612282
9.31341e-06
0.000613998
8.09307e-06
0.000615435
6.39817e-06
0.000616516
4.41521e-06
0.000617184
2.27021e-06
0.000617398
5.67346e-08
0.000617132
-2.20851e-06
0.000616371
-4.48151e-06
0.00061511
-6.76573e-06
0.000613352
-9.08277e-06
0.000611106
-1.14573e-05
0.000608386
-1.39165e-05
0.000605208
-1.64871e-05
0.000601594
-1.91913e-05
0.000597566
-2.20462e-05
0.000593148
-2.50593e-05
0.000588366
-2.82292e-05
0.000583246
-3.15454e-05
0.000577818
-3.49869e-05
0.00057211
-3.85229e-05
0.000566154
-4.21121e-05
0.000559982
-4.57044e-05
0.000553628
-4.9242e-05
0.000547127
-5.26607e-05
0.000540515
-5.58922e-05
0.00053383
-5.88661e-05
0.000527108
-6.15137e-05
0.000520387
-6.37684e-05
0.000513704
-6.55702e-05
0.000507096
-6.68653e-05
0.000500596
-6.76095e-05
0.000494237
-6.77689e-05
0.00048805
-6.732e-05
0.000482061
-6.62512e-05
0.000476296
-6.45623e-05
0.000470777
-6.22646e-05
0.000465521
-5.93807e-05
0.000460544
-5.59436e-05
0.000455858
-5.19967e-05
0.000451471
-4.75925e-05
0.000447388
-4.27926e-05
0.000443612
-3.76657e-05
0.000440141
-3.22878e-05
0.000436971
-2.67389e-05
0.000434094
-2.11058e-05
0.000431501
-1.54771e-05
0.00042918
-9.94441e-06
0.000427117
-4.59538e-06
0.000425296
4.8231e-07
0.000423702
5.18889e-06
0.000422312
9.44308e-06
0.000421102
1.31567e-05
0.000420057
1.63051e-05
0.000419152
1.88056e-05
0.000418367
2.06231e-05
0.000417678
2.17246e-05
0.000417064
2.20976e-05
0.000416504
2.17401e-05
0.000415977
2.0678e-05
0.000415463
1.89252e-05
0.000414944
1.658e-05
0.000414397
1.36134e-05
0.000413806
1.01774e-05
0.000413154
6.33718e-06
0.00041242
2.19049e-06
0.000411585
-2.19069e-06
0.000410637
-6.68781e-06
0.000409555
-1.11724e-05
0.000408318
-1.55588e-05
0.000406903
-1.97717e-05
0.000405284
-2.37503e-05
0.000403431
-2.74603e-05
0.000401309
-3.08878e-05
0.000398876
-3.40617e-05
0.00039608
-3.70282e-05
0.000392862
-3.99081e-05
0.000389147
-4.28141e-05
0.000384845
-4.59944e-05
0.000379851
-4.96113e-05
0.000374023
-5.41279e-05
0.000367213
-5.9688e-05
0.000359193
-6.71841e-05
0.000349751
-7.65464e-05
0.000338499
-8.95992e-05
0.00032514
-0.000105719
0.000308981
-0.00012838
0.000289576
-0.000156844
0.000265809
-0.00019453
0.000236555
-0.000248272
0.000201354
-0.000302614
0.000155498
-0.000405467
0.000106606
-0.000447401
4.25442e-05
-0.000539679
-0.000372924
0.000611518
1.00768e-06
0.000612025
2.10722e-06
0.000613079
4.86415e-06
0.000614542
6.73263e-06
0.000616257
7.81596e-06
0.000618074
8.06153e-06
0.00061984
7.54681e-06
0.000621435
6.49814e-06
0.000622757
5.07656e-06
0.000623727
3.44472e-06
0.000624288
1.70937e-06
0.000624399
-5.3668e-08
0.00062403
-1.83963e-06
0.000623166
-3.61757e-06
0.000621802
-5.40149e-06
0.000619939
-7.22041e-06
0.000617587
-9.10535e-06
0.000614759
-1.10885e-05
0.000611473
-1.32004e-05
0.000607748
-1.54664e-05
0.000603607
-1.79057e-05
0.000599076
-2.05277e-05
0.000594179
-2.33326e-05
0.000588945
-2.63111e-05
0.000583402
-2.94437e-05
0.00057758
-3.2701e-05
0.00057151
-3.60428e-05
0.000565226
-3.94205e-05
0.000558762
-4.27778e-05
0.000552153
-4.60517e-05
0.000545436
-4.9175e-05
0.000538648
-5.2078e-05
0.000531826
-5.46924e-05
0.00052501
-5.69516e-05
0.000518235
-5.87952e-05
0.000511537
-6.01681e-05
0.000504953
-6.10248e-05
0.000498513
-6.13294e-05
0.00049225
-6.10562e-05
0.000486189
-6.01908e-05
0.000480357
-5.87301e-05
0.000474775
-5.66825e-05
0.000469461
-5.40672e-05
0.000464432
-5.09141e-05
0.000459698
-4.72631e-05
0.000455269
-4.31635e-05
0.00045115
-3.86735e-05
0.000447343
-3.38585e-05
0.000443847
-2.87916e-05
0.000440657
-2.35495e-05
0.000437768
-1.82164e-05
0.000435169
-1.2878e-05
0.000432848
-7.62384e-06
0.000430791
-2.53844e-06
0.000428987
2.28663e-06
0.000427414
6.76187e-06
0.000426053
1.08038e-05
0.000424882
1.43282e-05
0.000423882
1.73049e-05
0.000423032
1.96558e-05
0.000422309
2.13455e-05
0.000421693
2.23411e-05
0.00042116
2.26298e-05
0.000420691
2.22092e-05
0.000420265
2.11048e-05
0.00041986
1.93295e-05
0.000419462
1.69783e-05
0.000419045
1.40304e-05
0.000418594
1.06286e-05
0.000418092
6.83897e-06
0.000417519
2.7631e-06
0.000416855
-1.52623e-06
0.000416086
-5.91915e-06
0.000415193
-1.02789e-05
0.000414153
-1.45189e-05
0.000412943
-1.85621e-05
0.000411538
-2.23448e-05
0.000409906
-2.58282e-05
0.000408011
-2.89931e-05
0.00040581
-3.18609e-05
0.000403252
-3.447e-05
0.000400273
-3.69291e-05
0.0003968
-3.9341e-05
0.000392738
-4.19322e-05
0.000387981
-4.48539e-05
0.000382381
-4.85283e-05
0.000375786
-5.30931e-05
0.000367958
-5.93563e-05
0.000358678
-6.72658e-05
0.000347535
-7.84563e-05
0.000334216
-9.23998e-05
0.000317989
-0.000112153
0.000298344
-0.000137199
0.000274141
-0.000170327
0.000244021
-0.000218152
0.000207621
-0.000266213
0.000159824
-0.00035767
0.000108422
-0.000395999
4.32643e-05
-0.000474521
-0.00032966
0.000618789
8.10098e-07
0.00061923
1.66574e-06
0.000620187
3.90702e-06
0.000621534
5.38606e-06
0.000623129
6.22048e-06
0.000624828
6.36251e-06
0.000626483
5.89263e-06
0.000627971
5.0097e-06
0.000629192
3.85602e-06
0.000630065
2.57096e-06
0.000630533
1.24185e-06
0.000630552
-7.27132e-08
0.000630093
-1.38044e-06
0.000629139
-2.66342e-06
0.000627684
-3.94667e-06
0.00062573
-5.26655e-06
0.000623285
-6.66062e-06
0.000620363
-8.16627e-06
0.000616981
-9.81796e-06
0.000613158
-1.16441e-05
0.000608919
-1.36664e-05
0.000604288
-1.58963e-05
0.00059929
-1.83353e-05
0.000593955
-2.09757e-05
0.000588311
-2.37995e-05
0.000582388
-2.67783e-05
0.000576219
-2.98736e-05
0.000569836
-3.3038e-05
0.000563275
-3.62167e-05
0.000556571
-3.93476e-05
0.000549761
-4.2365e-05
0.000542883
-4.51997e-05
0.000535974
-4.77837e-05
0.000529073
-5.00505e-05
0.000522217
-5.1939e-05
0.000515442
-5.33932e-05
0.000508783
-5.43658e-05
0.000502273
-5.48194e-05
0.000495942
-5.47255e-05
0.000489819
-5.40673e-05
0.000483928
-5.2839e-05
0.000478291
-5.10455e-05
0.000472927
-4.87031e-05
0.000467851
-4.58384e-05
0.000463075
-4.24877e-05
0.000458609
-3.86972e-05
0.000454457
-3.45217e-05
0.000450622
-3.00234e-05
0.000447103
-2.52726e-05
0.000443896
-2.03423e-05
0.000440994
-1.53144e-05
0.000438388
-1.02718e-05
0.000436066
-5.30182e-06
0.000434014
-4.86418e-07
0.00043222
4.08053e-06
0.000430664
8.31778e-06
0.000429326
1.21414e-05
0.000428185
1.54693e-05
0.000427223
1.82672e-05
0.000426418
2.04612e-05
0.000425748
2.20154e-05
0.000425192
2.28972e-05
0.000424728
2.30934e-05
0.000424336
2.26015e-05
0.000423995
2.14459e-05
0.000423685
1.96397e-05
0.000423389
1.72738e-05
0.000423084
1.43353e-05
0.000422754
1.09588e-05
0.000422382
7.21095e-06
0.000421949
3.19627e-06
0.000421433
-1.01026e-06
0.000420821
-5.30726e-06
0.000420092
-9.54994e-06
0.000419224
-1.36514e-05
0.000418195
-1.75325e-05
0.000416976
-2.11264e-05
0.000415538
-2.43896e-05
0.000413842
-2.72976e-05
0.000411846
-2.98642e-05
0.000409495
-3.21199e-05
0.000406727
-3.41608e-05
0.000403466
-3.608e-05
0.000399615
-3.80813e-05
0.000395066
-4.0305e-05
0.000389668
-4.31302e-05
0.000383265
-4.66895e-05
0.000375609
-5.17009e-05
0.000366476
-5.81321e-05
0.000355437
-6.74174e-05
0.000342162
-7.9125e-05
0.000325892
-9.58838e-05
0.000306056
-0.000117362
0.000281505
-0.000145776
0.000250663
-0.00018731
0.000213265
-0.000228816
0.000163856
-0.000308261
0.000110274
-0.000342418
4.40649e-05
-0.000408311
-0.000285595
0.000625027
6.38967e-07
0.000625416
1.27683e-06
0.000626294
3.02897e-06
0.000627543
4.13628e-06
0.000629039
4.72527e-06
0.000630638
4.7631e-06
0.000632197
4.33397e-06
0.000633594
3.61206e-06
0.000634729
2.72182e-06
0.00063552
1.77989e-06
0.000635907
8.54332e-07
0.000635848
-1.38987e-08
0.000635312
-8.43823e-07
0.00063428
-1.63211e-06
0.000632748
-2.41436e-06
0.000630716
-3.23439e-06
0.000628192
-4.13646e-06
0.000625189
-5.16327e-06
0.000621724
-6.35328e-06
0.000617818
-7.73816e-06
0.000613494
-9.34223e-06
0.000608777
-1.11789e-05
0.000603693
-1.32513e-05
0.00059827
-1.55532e-05
0.000592539
-1.8068e-05
0.000586529
-2.07688e-05
0.000580274
-2.36183e-05
0.000573806
-2.65705e-05
0.000567161
-2.95719e-05
0.000560376
-3.25617e-05
0.000553486
-3.54752e-05
0.00054653
-3.82438e-05
0.000539546
-4.07999e-05
0.000532572
-4.30769e-05
0.000525647
-4.50133e-05
0.000518805
-4.65516e-05
0.000512083
-4.76433e-05
0.000505512
-4.82489e-05
0.000499124
-4.83377e-05
0.000492947
-4.78902e-05
0.000487006
-4.68975e-05
0.000481322
-4.53617e-05
0.000475914
-4.32958e-05
0.000470799
-4.07229e-05
0.000465988
-3.76763e-05
0.000461489
-3.41986e-05
0.000457309
-3.03416e-05
0.00045345
-2.6164e-05
0.00044991
-2.17333e-05
0.000446687
-1.71189e-05
0.000443773
-1.24006e-05
0.000441159
-7.65802e-06
0.000438834
-2.97637e-06
0.000436786
1.56156e-06
0.000434998
5.86802e-06
0.000433455
9.8616e-06
0.000432135
1.34613e-05
0.000431017
1.65865e-05
0.000430085
1.91998e-05
0.000429315
2.12308e-05
0.000428688
2.26429e-05
0.000428181
2.34041e-05
0.000427774
2.35007e-05
0.000427445
2.29301e-05
0.000427175
2.17159e-05
0.000426943
1.98714e-05
0.000426734
1.74831e-05
0.000426523
1.45459e-05
0.000426295
1.11867e-05
0.000426033
7.47291e-06
0.000425719
3.51073e-06
0.00042533
-6.21148e-07
0.000424852
-4.82965e-06
0.000424264
-8.96195e-06
0.000423545
-1.29318e-05
0.00042267
-1.66575e-05
0.000421612
-2.00688e-05
0.00042034
-2.31176e-05
0.000418816
-2.57738e-05
0.000416996
-2.80435e-05
0.000414825
-2.99492e-05
0.000412239
-3.15746e-05
0.000409161
-3.30025e-05
0.000405493
-3.44135e-05
0.000401126
-3.59373e-05
0.000395904
-3.7908e-05
0.000389668
-4.04539e-05
0.000382166
-4.41986e-05
0.000373165
-4.91313e-05
0.000362225
-5.64776e-05
0.000349
-6.59005e-05
0.000332714
-7.9597e-05
0.000312735
-9.73836e-05
0.000287921
-0.000120962
0.000256501
-0.00015589
0.000218305
-0.00019062
0.000167591
-0.000257547
0.000112162
-0.000286988
4.49786e-05
-0.000341128
-0.000240616
0.000630226
4.88347e-07
0.000630573
9.28881e-07
0.000631388
2.21395e-06
0.00063256
2.96454e-06
0.000633974
3.31158e-06
0.000635492
3.24516e-06
0.000636972
2.85375e-06
0.000638295
2.28922e-06
0.000639358
1.65887e-06
0.000640081
1.05715e-06
0.000640402
5.3302e-07
0.000640279
1.08969e-07
0.000639678
-2.43021e-07
0.000638583
-5.36969e-07
0.000636987
-8.17893e-07
0.00063489
-1.13735e-06
0.0006323
-1.5464e-06
0.000629229
-2.09317e-06
0.000625696
-2.8202e-06
0.000621721
-3.76249e-06
0.000617326
-4.9472e-06
0.000612536
-6.38974e-06
0.00060738
-8.09477e-06
0.000601884
-1.00576e-05
0.00059608
-1.22634e-05
0.000589997
-1.46863e-05
0.00058367
-1.72906e-05
0.000577131
-2.00315e-05
0.000570416
-2.28569e-05
0.000563561
-2.57072e-05
0.000556605
-2.85186e-05
0.000549584
-3.12231e-05
0.000542538
-3.37535e-05
0.000535504
-3.60431e-05
0.00052852
-3.80297e-05
0.000521623
-3.96548e-05
0.000514848
-4.08681e-05
0.000508228
-4.16285e-05
0.000501793
-4.19027e-05
0.000495571
-4.16686e-05
0.000489588
-4.09145e-05
0.000483866
-3.96393e-05
0.000478423
-3.78528e-05
0.000473275
-3.55747e-05
0.000468434
-3.28351e-05
0.000463908
-2.96733e-05
0.000459704
-2.61377e-05
0.000455824
-2.22839e-05
0.000452268
-1.81765e-05
0.00044903
-1.38813e-05
0.000446105
-9.47572e-06
0.000443484
-5.03693e-06
0.000441155
-6.47179e-07
0.000439108
3.60878e-06
0.000437324
7.65155e-06
0.000435788
1.13975e-05
0.000434481
1.47687e-05
0.000433381
1.76863e-05
0.000432471
2.01101e-05
0.000431729
2.19729e-05
0.000431134
2.32376e-05
0.000430665
2.38725e-05
0.000430302
2.38636e-05
0.000430024
2.32082e-05
0.000429811
2.19289e-05
0.000429643
2.00395e-05
0.000429504
1.76224e-05
0.00042937
1.46794e-05
0.000429227
1.13304e-05
0.000429055
7.64418e-06
0.000428839
3.72676e-06
0.000428556
-3.37941e-07
0.000428191
-4.4642e-06
0.000427721
-8.49189e-06
0.000427125
-1.23363e-05
0.00042638
-1.59125e-05
0.000425458
-1.91466e-05
0.000424326
-2.19858e-05
0.000422947
-2.43947e-05
0.000421275
-2.63713e-05
0.000419256
-2.79302e-05
0.000416823
-2.91421e-05
0.000413901
-3.00802e-05
0.000410389
-3.09011e-05
0.000406175
-3.17239e-05
0.000401104
-3.28365e-05
0.000395013
-3.43632e-05
0.000387645
-3.68304e-05
0.000378763
-4.02496e-05
0.000367918
-4.56319e-05
0.00035475
-5.27327e-05
0.00033847
-6.3317e-05
0.000318398
-7.73119e-05
0.000293406
-9.59698e-05
0.000261547
-0.000124031
0.000222751
-0.000151824
0.000171027
-0.000205822
0.000114093
-0.000230055
4.60409e-05
-0.000273076
-0.000194575
0.000634381
3.53123e-07
0.000634698
6.11714e-07
0.000635465
1.4471e-06
0.000636576
1.85295e-06
0.000637927
1.96107e-06
0.000639381
1.79065e-06
0.0006408
1.43488e-06
0.000642064
1.02489e-06
0.000643072
6.51722e-07
0.000643741
3.88049e-07
0.00064401
2.6374e-07
0.000643836
2.82438e-07
0.000643185
4.07996e-07
0.00064204
6.08471e-07
0.000640393
8.29179e-07
0.000638245
1.01097e-06
0.000635602
1.09586e-06
0.000632479
1.03024e-06
0.000628891
7.67277e-07
0.00062486
2.6895e-07
0.000620408
-4.9548e-07
0.000615561
-1.54293e-06
0.000610347
-2.87984e-06
0.000604792
-4.50327e-06
0.000598929
-6.39983e-06
0.000592787
-8.54514e-06
0.000586401
-1.09047e-05
0.000579805
-1.34351e-05
0.000573034
-1.60855e-05
0.000566124
-1.87976e-05
0.000559114
-2.15084e-05
0.000552041
-2.41505e-05
0.000544945
-2.66572e-05
0.000537863
-2.89613e-05
0.000530834
-3.10002e-05
0.000523893
-3.27142e-05
0.000517077
-3.40514e-05
0.000510417
-3.49689e-05
0.000503945
-3.54308e-05
0.000497689
-3.54125e-05
0.000491674
-3.48992e-05
0.000485921
-3.38868e-05
0.00048045
-3.23819e-05
0.000475276
-3.0401e-05
0.000470412
-2.79706e-05
0.000465865
-2.51269e-05
0.000461643
-2.1915e-05
0.000457746
-1.83872e-05
0.000454175
-1.46055e-05
0.000450925
-1.06318e-05
0.000447991
-6.54126e-06
0.000445362
-2.40816e-06
0.00044303
1.68466e-06
0.000440981
5.65816e-06
0.000439199
9.43366e-06
0.000437667
1.29292e-05
0.000436368
1.60684e-05
0.000435279
1.87747e-05
0.000434384
2.10053e-05
0.000433661
2.26959e-05
0.00043309
2.38088e-05
0.00043265
2.43128e-05
0.00043232
2.41936e-05
0.000432079
2.34483e-05
0.00043191
2.20985e-05
0.000431791
2.01588e-05
0.000431706
1.77074e-05
0.000431632
1.47526e-05
0.000431555
1.1408e-05
0.000431455
7.74369e-06
0.000431318
3.86416e-06
0.00043112
-1.39966e-07
0.000430845
-4.18919e-06
0.00043047
-8.11708e-06
0.000429975
-1.18414e-05
0.000429336
-1.5273e-05
0.000428524
-1.83346e-05
0.000427506
-2.09685e-05
0.000426245
-2.31338e-05
0.000424695
-2.48205e-05
0.0004228
-2.60353e-05
0.000420493
-2.68358e-05
0.000417699
-2.72856e-05
0.000414314
-2.75167e-05
0.000410229
-2.76383e-05
0.000405283
-2.78906e-05
0.000399315
-2.83949e-05
0.000392062
-2.95775e-05
0.000383286
-3.14736e-05
0.000372529
-3.48752e-05
0.000359424
-3.96275e-05
0.000343174
-4.70673e-05
0.000323058
-5.71954e-05
0.000297968
-7.088e-05
0.00026581
-9.18735e-05
0.000226609
-0.000112623
0.000174156
-0.000153369
0.000116069
-0.000171967
4.72663e-05
-0.000204273
-0.000147309
0.000637488
2.28809e-07
0.000637784
3.16215e-07
0.000638516
7.14582e-07
0.000639585
7.84376e-07
0.00064089
6.55841e-07
0.000642299
3.81499e-07
0.000643674
6.03676e-08
0.000644896
-1.97413e-07
0.000645863
-3.15178e-07
0.000646494
-2.42773e-07
0.000646725
3.21867e-08
0.000646515
4.92958e-07
0.000645827
1.09527e-06
0.000644645
1.79043e-06
0.000642961
2.51317e-06
0.000640776
3.19683e-06
0.000638095
3.7765e-06
0.000634932
4.19305e-06
0.000631304
4.39532e-06
0.000627232
4.34138e-06
0.000622738
3.99866e-06
0.000617847
3.34739e-06
0.000612588
2.37917e-06
0.000606989
1.09556e-06
0.000601081
-4.91542e-07
0.000594895
-2.35944e-06
0.000588465
-4.47457e-06
0.000581825
-6.79508e-06
0.000575011
-9.27156e-06
0.00056806
-1.18465e-05
0.00056101
-1.4458e-05
0.000553899
-1.70393e-05
0.000546765
-1.95237e-05
0.000539648
-2.18441e-05
0.000532585
-2.3937e-05
0.000525612
-2.57417e-05
0.000518765
-2.72046e-05
0.000512077
-2.8281e-05
0.000505579
-2.89324e-05
0.000499298
-2.91315e-05
0.000493259
-2.88607e-05
0.000487486
-2.81129e-05
0.000481995
-2.68912e-05
0.000476803
-2.5209e-05
0.000471922
-2.30894e-05
0.00046736
-2.05652e-05
0.000463123
-1.76785e-05
0.000459214
-1.44781e-05
0.000455632
-1.10235e-05
0.000452373
-7.37269e-06
0.000449431
-3.59915e-06
0.000446796
2.27499e-07
0.00044446
4.02018e-06
0.000442407
7.71076e-06
0.000440624
1.1217e-05
0.000439093
1.446e-05
0.000437797
1.7365e-05
0.000436714
1.98573e-05
0.000435827
2.18921e-05
0.000435116
2.34074e-05
0.000434559
2.43654e-05
0.000434137
2.47351e-05
0.000433829
2.45018e-05
0.000433614
2.36626e-05
0.000433475
2.2238e-05
0.00043339
2.02436e-05
0.000433344
1.77535e-05
0.000433315
1.4782e-05
0.000433286
1.14369e-05
0.00043324
7.78992e-06
0.00043316
3.94399e-06
0.000433029
-9.14301e-09
0.000432822
-3.98221e-06
0.00043252
-7.81538e-06
0.000432103
-1.14238e-05
0.000431545
-1.47151e-05
0.000430818
-1.7608e-05
0.00042989
-2.004e-05
0.000428721
-2.19648e-05
0.000427265
-2.33643e-05
0.000425466
-2.42373e-05
0.000423259
-2.46282e-05
0.000420564
-2.45911e-05
0.000417281
-2.42335e-05
0.000413297
-2.36543e-05
0.000408452
-2.30457e-05
0.000402584
-2.25265e-05
0.000395428
-2.24214e-05
0.000386743
-2.27895e-05
0.00037607
-2.42021e-05
0.000363033
-2.65903e-05
0.000346836
-3.08697e-05
0.000326721
-3.70811e-05
0.000301613
-4.57715e-05
0.000269291
-5.95521e-05
0.000229878
-7.32106e-05
0.000176971
-0.000100461
0.000118084
-0.000113081
4.86651e-05
-0.000134854
-9.8644e-05
0.000639545
1.1138e-07
0.000639827
3.40317e-08
0.000640539
3.35285e-09
0.000641581
-2.57772e-07
0.000642858
-6.2156e-07
0.000644239
-9.99514e-07
0.000645588
-1.28829e-06
0.000646784
-1.39394e-06
0.000647727
-1.25743e-06
0.000648334
-8.49636e-07
0.000648543
-1.7749e-07
0.00064831
7.26622e-07
0.0006476
1.80518e-06
0.000646395
2.99514e-06
0.000644688
4.22029e-06
0.000642478
5.40641e-06
0.000639773
6.48159e-06
0.000636585
7.38119e-06
0.000632931
8.04954e-06
0.000628831
8.44116e-06
0.000624309
8.52091e-06
0.000619389
8.26662e-06
0.000614101
7.66778e-06
0.000608472
6.72439e-06
0.000602534
5.4468e-06
0.000596318
3.85658e-06
0.000589858
1.98548e-06
0.000583188
-1.25678e-07
0.000576346
-2.4289e-06
0.000569367
-4.86767e-06
0.00056229
-7.38101e-06
0.000555153
-9.90254e-06
0.000547995
-1.2366e-05
0.000540855
-1.4704e-05
0.000533771
-1.68524e-05
0.000526778
-1.87492e-05
0.000519912
-2.03391e-05
0.000513207
-2.15757e-05
0.000506693
-2.24178e-05
0.000500397
-2.28356e-05
0.000494345
-2.28085e-05
0.000488558
-2.23263e-05
0.000483056
-2.13888e-05
0.000477853
-2.00062e-05
0.000472962
-1.81982e-05
0.000468391
-1.59944e-05
0.000464146
-1.34335e-05
0.000460229
-1.05611e-05
0.00045664
-7.43427e-06
0.000453374
-4.10682e-06
0.000450424
-6.49438e-07
0.000447786
2.8656e-06
0.000445444
6.3621e-06
0.000443387
9.76744e-06
0.000441601
1.30037e-05
0.000440067
1.59933e-05
0.000438769
1.86628e-05
0.000437687
2.09395e-05
0.000436802
2.27769e-05
0.000436094
2.41152e-05
0.000435544
2.49161e-05
0.00043513
2.51491e-05
0.000434832
2.47991e-05
0.000434632
2.3863e-05
0.000434509
2.23605e-05
0.000434445
2.0308e-05
0.000434423
1.77759e-05
0.000434421
1.47838e-05
0.000434423
1.14344e-05
0.000434412
7.80121e-06
0.000434373
3.98319e-06
0.000434286
7.7397e-08
0.000434127
-3.8232e-06
0.000433876
-7.56433e-06
0.000433513
-1.10605e-05
0.000433013
-1.42149e-05
0.000432347
-1.6942e-05
0.000431482
-1.9175e-05
0.000430379
-2.08617e-05
0.00042899
-2.19762e-05
0.000427262
-2.25091e-05
0.000425126
-2.2492e-05
0.000422504
-2.19695e-05
0.000419295
-2.10244e-05
0.000415387
-1.97457e-05
0.000410618
-1.82771e-05
0.000404827
-1.67355e-05
0.000397749
-1.53432e-05
0.000389143
-1.41834e-05
0.000378547
-1.36065e-05
0.000365583
-1.36258e-05
0.000349458
-1.47454e-05
0.000329392
-1.7015e-05
0.000304342
-2.07209e-05
0.000271989
-2.71996e-05
0.000232555
-3.37758e-05
0.000179459
-4.7366e-05
0.000120135
-5.37572e-05
5.02544e-05
-6.49728e-05
-4.83897e-05
0.00064055
-2.82726e-09
0.000640826
-2.42409e-07
0.00064153
-7.00014e-07
0.000642561
-1.28943e-06
0.000643828
-1.88858e-06
0.000645199
-2.37056e-06
0.000646538
-2.62701e-06
0.000647726
-2.5815e-06
0.000648659
-2.19087e-06
0.000649258
-1.44797e-06
0.000649459
-3.79229e-07
0.000649217
9.68481e-07
0.000648499
2.52381e-06
0.000647285
4.20875e-06
0.000645569
5.93671e-06
0.000643349
7.6258e-06
0.000640634
9.19717e-06
0.000637434
1.05806e-05
0.000633768
1.17158e-05
0.000629655
1.25539e-05
0.000625119
1.30569e-05
0.000620186
1.32003e-05
0.000614882
1.29715e-05
0.000609238
1.23687e-05
0.000603283
1.1401e-05
0.000597052
1.00883e-05
0.000590576
8.46117e-06
0.000583891
6.55886e-06
0.000577034
4.42844e-06
0.000570041
2.12516e-06
0.000562951
-2.90987e-07
0.000555802
-2.75363e-06
0.000548634
-5.19715e-06
0.000541483
-7.55375e-06
0.00053439
-9.75869e-06
0.000527389
-1.17486e-05
0.000520516
-1.34665e-05
0.000513805
-1.48642e-05
0.000507285
-1.58979e-05
0.000500984
-1.6535e-05
0.000494928
-1.67522e-05
0.000489138
-1.6536e-05
0.000483632
-1.58831e-05
0.000478426
-1.48003e-05
0.000473532
-1.3304e-05
0.000468958
-1.14204e-05
0.00046471
-9.18528e-06
0.000460789
-6.6406e-06
0.000457197
-3.84151e-06
0.000453926
-8.36232e-07
0.000450973
2.30301e-06
0.00044833
5.50943e-06
0.000445983
8.70873e-06
0.000443921
1.18296e-05
0.000442128
1.47961e-05
0.00044059
1.75323e-05
0.000439286
1.99662e-05
0.000438199
2.20269e-05
0.000437309
2.36664e-05
0.000436598
2.48269e-05
0.000436044
2.54697e-05
0.000435628
2.55647e-05
0.000435331
2.50964e-05
0.000435132
2.40617e-05
0.000435014
2.24792e-05
0.000434955
2.03663e-05
0.000434941
1.77898e-05
0.000434951
1.47742e-05
0.000434968
1.14177e-05
0.000434973
7.79568e-06
0.000434951
4.0057e-06
0.000434898
1.30409e-07
0.000434761
-3.68647e-06
0.000434538
-7.34149e-06
0.000434206
-1.07283e-05
0.000433739
-1.37483e-05
0.000433109
-1.6312e-05
0.000432282
-1.8348e-05
0.000431219
-1.97985e-05
0.000429873
-2.06296e-05
0.000428187
-2.08239e-05
0.000426096
-2.04001e-05
0.00042352
-1.93937e-05
0.000420358
-1.78627e-05
0.000416499
-1.58866e-05
0.000411783
-1.35606e-05
0.000406047
-1.09997e-05
0.000399029
-8.32496e-06
0.000390486
-5.64106e-06
0.000379961
-3.08154e-06
0.000367075
-7.39473e-07
0.000351042
1.28763e-06
0.000331073
2.95398e-06
0.000306149
4.20255e-06
0.000273906
5.04394e-06
0.000234628
5.50183e-06
0.000181621
5.64074e-06
0.000122221
5.64322e-06
5.20602e-05
5.18809e-06
3.67049e-06
0.00040255
7.63921e-06
-8.93969e-06
0.000404876
1.53998e-05
-1.7725e-05
0.000407872
2.54869e-05
-2.84832e-05
0.000411348
3.29058e-05
-3.63821e-05
0.000414886
3.61904e-05
-3.97287e-05
0.000418339
3.69166e-05
-4.0369e-05
0.000421583
3.51141e-05
-3.83579e-05
0.000424538
3.15617e-05
-3.45173e-05
0.000427151
2.66667e-05
-2.92796e-05
0.000429385
2.08683e-05
-2.3102e-05
0.000431215
1.44568e-05
-1.62866e-05
0.000432626
7.67732e-06
-9.08844e-06
0.000433609
6.77089e-07
-1.66055e-06
0.000434169
-6.42552e-06
5.86586e-06
0.000434307
-1.35419e-05
1.34035e-05
0.000434033
-2.06365e-05
2.09105e-05
0.000433357
-2.7687e-05
2.83635e-05
0.000432291
-3.46819e-05
3.5748e-05
0.000430849
-4.16222e-05
4.30636e-05
0.000429048
-4.85088e-05
5.03101e-05
0.000426903
-5.53427e-05
5.74876e-05
0.000424431
-6.21181e-05
6.45899e-05
0.00042165
-6.88221e-05
7.16032e-05
0.000418579
-7.5432e-05
7.85039e-05
0.000415235
-8.19137e-05
8.52569e-05
0.000411642
-8.82219e-05
9.18154e-05
0.00040782
-9.4299e-05
9.81205e-05
0.000403795
-0.000100078
0.000104103
0.000399591
-0.000105483
0.000109686
0.000395238
-0.000110433
0.000114787
0.000390763
-0.000114846
0.00011932
0.000386197
-0.00011864
0.000123205
0.000381572
-0.00012174
0.000126365
0.000376918
-0.000124078
0.000128732
0.000372267
-0.0001256
0.000130251
0.000367648
-0.000126261
0.000130881
0.000363089
-0.000126034
0.000130593
0.000358616
-0.000124904
0.000129376
0.000354255
-0.000122874
0.000127235
0.000350026
-0.000119959
0.000124188
0.000345948
-0.000116191
0.000120269
0.000342036
-0.000111614
0.000115526
0.000338302
-0.000106286
0.000110019
0.000334757
-0.000100275
0.000103821
0.000331404
-9.36626e-05
9.70155e-05
0.000328246
-8.65365e-05
8.96944e-05
0.000325282
-7.89949e-05
8.1959e-05
0.000322507
-7.11422e-05
7.3917e-05
0.000319914
-6.3088e-05
6.56813e-05
0.000317491
-5.49468e-05
5.73692e-05
0.000315226
-4.68353e-05
4.91003e-05
0.000313103
-3.88712e-05
4.0995e-05
0.000311102
-3.11713e-05
3.31722e-05
0.000309203
-2.38481e-05
2.57466e-05
0.000307385
-1.70101e-05
1.88286e-05
0.000305622
-1.07538e-05
1.25167e-05
0.00030389
-5.18705e-06
6.91838e-06
0.00030216
-4.29605e-07
2.16022e-06
0.000300428
3.54846e-06
-1.81692e-06
0.000298648
6.58186e-06
-4.80146e-06
0.000296797
8.6777e-06
-6.82714e-06
0.000294853
9.8165e-06
-7.8727e-06
0.000292793
9.98689e-06
-7.92687e-06
0.000290595
9.20203e-06
-7.004e-06
0.000288238
7.49028e-06
-5.13332e-06
0.00028571
4.93307e-06
-2.40514e-06
0.00028298
1.5583e-06
1.17258e-06
0.000280048
-2.63767e-06
5.56905e-06
0.000276902
-7.4113e-06
1.05573e-05
0.000273522
-1.27206e-05
1.61007e-05
0.000269899
-1.84898e-05
2.21134e-05
0.000266024
-2.46044e-05
2.84786e-05
0.000261891
-3.09541e-05
3.50878e-05
0.000257487
-3.74338e-05
4.18374e-05
0.000252803
-4.39704e-05
4.86546e-05
0.000247825
-5.05048e-05
5.54824e-05
0.000242538
-5.70124e-05
6.22993e-05
0.000236922
-6.35084e-05
6.91244e-05
0.000230953
-7.004e-05
7.601e-05
0.000224598
-7.67147e-05
8.30696e-05
0.000217819
-8.36687e-05
9.04469e-05
0.000210572
-9.11374e-05
9.83847e-05
0.0002028
-9.93535e-05
0.000107125
0.000194441
-0.000108735
0.000117094
0.000185419
-0.000119596
0.000128617
0.000175656
-0.000132657
0.00014242
0.000165058
-0.000148233
0.000158831
0.000153538
-0.00016765
0.00017917
0.000140992
-0.000190962
0.000203508
0.000127352
-0.000220886
0.000234526
0.000112554
-0.000256364
0.000271162
9.65704e-05
-0.000303495
0.000319478
7.9697e-05
-0.000357819
0.000374693
6.17363e-05
-0.000431913
0.000449874
4.48036e-05
-0.000516004
0.000532937
2.72629e-05
-0.000619766
0.000637307
1.77251e-05
-0.000750371
0.000759909
6.89643e-06
-0.000808645
0.000819474
5.96848e-06
-0.000968583
0.000969511
-0.000433451
0.00043942
0.000415048
6.53528e-06
0.000417117
1.33308e-05
0.000419837
2.27675e-05
0.000423062
2.96799e-05
0.000426372