/*--------------------------------*- C++ -*----------------------------------*\
  =========                 |
  \\      /  F ield         | OpenFOAM: The Open Source CFD Toolbox
   \\    /   O peration     | Website:  https://openfoam.org
    \\  /    A nd           | Version:  7
     \\/     M anipulation  |
\*---------------------------------------------------------------------------*/
FoamFile
{
    version     2.0;
    format      ascii;
    class       volVectorField;
    location    "96";
    object      U;
}
// * * * * * * * * * * * * * * * * * * * * * * * * * * * * * * * * * * * * * //

dimensions      [0 1 -1 0 0 0 0];

internalField   nonuniform List<vector> 
11200
(
(-0.310221 -0.000144137 -2.29961e-20)
(-0.310535 -0.00030573 2.00184e-19)
(-0.310983 -0.000668892 -1.10946e-19)
(-0.311856 -0.00092343 -6.37217e-20)
(-0.312836 -0.00107271 1.2322e-19)
(-0.313944 -0.00111605 -4.22205e-19)
(-0.315039 -0.00105989 -5.08382e-19)
(-0.316074 -0.000930967 2.83894e-20)
(-0.316979 -0.000747665 9.50196e-19)
(-0.317714 -0.000529289 -1.31235e-18)
(-0.318244 -0.000289143 -1.82739e-19)
(-0.318546 -3.65269e-05 2.36139e-18)
(-0.318602 0.000220555 3.17409e-19)
(-0.318402 0.000481321 1.56001e-18)
(-0.317943 0.000743989 -2.7907e-18)
(-0.317224 0.00100932 1.15623e-18)
(-0.316248 0.0012786 1.03941e-18)
(-0.315023 0.0015535 -1.81923e-18)
(-0.313556 0.00183587 -2.38372e-18)
(-0.311858 0.00212725 -3.29089e-18)
(-0.309939 0.00242882 -5.21049e-18)
(-0.307813 0.00274099 -1.52034e-18)
(-0.305492 0.00306346 -7.54133e-19)
(-0.302989 0.00339514 -3.86016e-19)
(-0.300319 0.00373404 -2.0152e-19)
(-0.297497 0.0040773 -2.51961e-18)
(-0.294538 0.00442115 1.56892e-18)
(-0.291457 0.00476108 3.64844e-19)
(-0.288272 0.00509186 2.0959e-18)
(-0.285001 0.00540776 -2.38127e-19)
(-0.28166 0.00570271 -1.56576e-18)
(-0.278269 0.00597049 1.46682e-19)
(-0.274847 0.00620508 -2.49605e-18)
(-0.271412 0.00640072 2.45e-18)
(-0.267983 0.00655224 -9.21594e-19)
(-0.264579 0.00665513 -1.8664e-18)
(-0.261218 0.00670573 5.1031e-20)
(-0.257915 0.00670135 2.00046e-19)
(-0.254688 0.00664026 -2.61111e-18)
(-0.25155 0.00652178 -3.54979e-18)
(-0.248516 0.00634626 -4.38711e-18)
(-0.245597 0.00611508 -4.43559e-18)
(-0.242803 0.00583063 -1.24815e-19)
(-0.240142 0.00549621 -1.08861e-18)
(-0.237623 0.00511601 6.16192e-19)
(-0.235249 0.00469502 2.22899e-18)
(-0.233026 0.00423901 -2.30253e-18)
(-0.230955 0.0037544 -4.46542e-18)
(-0.229036 0.00324816 -1.82512e-19)
(-0.227269 0.00272769 -1.94577e-19)
(-0.225651 0.00220091 3.15213e-18)
(-0.224179 0.00167591 2.41101e-18)
(-0.222847 0.00116106 1.76261e-19)
(-0.221649 0.000664562 5.3778e-20)
(-0.220578 0.000195075 -8.56675e-19)
(-0.219628 -0.000242736 -8.57664e-19)
(-0.218789 -0.000640606 -3.48906e-18)
(-0.21805 -0.000987615 2.58196e-18)
(-0.2174 -0.00128306 1.04697e-18)
(-0.216831 -0.0015192 5.96363e-19)
(-0.216331 -0.00169312 -3.30498e-18)
(-0.21589 -0.00180198 -2.14833e-18)
(-0.215496 -0.00184472 -4.4462e-18)
(-0.215137 -0.00182124 -4.48191e-18)
(-0.214805 -0.00173381 -1.81054e-18)
(-0.214486 -0.00158377 -2.5561e-18)
(-0.214173 -0.00137998 -1.06754e-18)
(-0.213855 -0.00111873 -5.92139e-19)
(-0.213516 -0.000814317 -8.16517e-19)
(-0.213152 -0.00047203 8.74258e-19)
(-0.212752 -9.76814e-05 -4.48112e-18)
(-0.212301 0.000292957 -3.5611e-18)
(-0.211792 0.000694286 8.5245e-19)
(-0.211216 0.0010984 -4.49398e-18)
(-0.21056 0.00149743 2.53175e-18)
(-0.209813 0.00188471 -4.23283e-18)
(-0.20896 0.00225522 5.22754e-18)
(-0.207989 0.00260648 -1.71241e-18)
(-0.20688 0.0029379 -5.76694e-18)
(-0.205617 0.0032529 2.99158e-18)
(-0.204174 0.00355643 -1.9106e-18)
(-0.20253 0.00386044 -7.61738e-18)
(-0.200643 0.00417598 -2.72833e-18)
(-0.198492 0.00452717 -1.29558e-19)
(-0.196005 0.00492958 1.32986e-18)
(-0.193169 0.00542818 -5.50442e-18)
(-0.189849 0.00603661 4.528e-18)
(-0.186079 0.00684193 7.18242e-18)
(-0.181559 0.00783716 1.15248e-17)
(-0.176505 0.00920152 7.90762e-18)
(-0.170183 0.0108724 6.58817e-18)
(-0.163376 0.0131961 4.20584e-18)
(-0.154185 0.0160872 -2.2192e-18)
(-0.145017 0.0199048 -3.65794e-20)
(-0.13111 0.0252833 4.04339e-18)
(-0.118514 0.0307231 3.62042e-18)
(-0.0975684 0.0410577 -5.46225e-18)
(-0.0776286 0.0450468 -2.69796e-18)
(-0.0504811 0.0551771 -1.45357e-18)
(-0.0121454 0.0383788 -1.52314e-18)
(-0.315116 -0.000118508 -3.04341e-20)
(-0.315379 -0.00025082 2.32544e-19)
(-0.315771 -0.000562175 8.71053e-20)
(-0.316561 -0.000778311 3.56951e-19)
(-0.317458 -0.000905537 3.08879e-20)
(-0.318484 -0.000940438 2.1991e-19)
(-0.319501 -0.000889506 1.69102e-19)
(-0.320462 -0.000776376 2.25657e-19)
(-0.321297 -0.000617593 1.04333e-18)
(-0.321967 -0.000430331 1.80149e-19)
(-0.322433 -0.000226246 -1.07227e-18)
(-0.322672 -1.26316e-05 2.55245e-18)
(-0.322667 0.000202428 8.91924e-19)
(-0.322406 0.000420605 2.40616e-18)
(-0.321885 0.000640218 -2.01713e-18)
(-0.321104 0.0008627 2.05209e-18)
(-0.320065 0.00108988 1.44924e-18)
(-0.318775 0.00132386 -2.19236e-18)
(-0.317243 0.00156681 -2.03117e-18)
(-0.315478 0.00182052 -2.00807e-18)
(-0.313493 0.00208634 -3.8048e-18)
(-0.311298 0.00236485 -1.34879e-18)
(-0.308908 0.00265587 -1.61652e-18)
(-0.306336 0.0029584 6.80385e-19)
(-0.303597 0.00327058 -1.17973e-19)
(-0.300706 0.00358967 -1.44729e-18)
(-0.297678 0.00391202 3.13814e-19)
(-0.294529 0.00423321 -5.17653e-20)
(-0.291278 0.00454819 2.13293e-18)
(-0.28794 0.00485129 -9.21814e-19)
(-0.284536 0.00513657 -1.89703e-18)
(-0.281083 0.00539787 5.54706e-19)
(-0.2776 0.00562921 -1.55108e-18)
(-0.274107 0.00582481 1.50901e-18)
(-0.270622 0.0059795 -3.8549e-19)
(-0.267164 0.00608863 -1.91632e-18)
(-0.263751 0.00614845 1.13816e-18)
(-0.2604 0.00615609 3.58597e-19)
(-0.257127 0.00610962 -2.90316e-18)
(-0.253946 0.00600814 -4.24236e-18)
(-0.250872 0.00585175 -4.60005e-18)
(-0.247915 0.00564157 -3.66237e-18)
(-0.245087 0.0053797 -6.84017e-19)
(-0.242395 0.00506916 6.79605e-19)
(-0.239848 0.00471382 1.64449e-18)
(-0.23745 0.00431841 2.81062e-19)
(-0.235206 0.0038884 -1.81665e-18)
(-0.233117 0.00342991 -3.90951e-18)
(-0.231185 0.00294965 -1.08179e-18)
(-0.229407 0.00245472 -1.21391e-19)
(-0.227783 0.00195278 1.29742e-18)
(-0.226308 0.00145165 2.61919e-18)
(-0.224977 0.000959439 -1.92393e-19)
(-0.223785 0.000483939 -2.50008e-19)
(-0.222723 3.48957e-05 -1.69242e-18)
(-0.221787 -0.000386505 -1.11139e-18)
(-0.220967 -0.000765282 -2.4027e-18)
(-0.22025 -0.00109621 4.27177e-18)
(-0.219628 -0.00137736 6.87376e-19)
(-0.219091 -0.00160132 -3.1107e-19)
(-0.218628 -0.00176507 -2.02815e-18)
(-0.218229 -0.00186573 -3.4877e-18)
(-0.217883 -0.00190222 -3.5762e-18)
(-0.217578 -0.00187437 -3.59954e-18)
(-0.217304 -0.00178443 -2.54801e-18)
(-0.217048 -0.00163362 -4.52045e-18)
(-0.216804 -0.00143057 -1.47545e-18)
(-0.21656 -0.00117233 7.39161e-19)
(-0.216301 -0.000872346 -1.75562e-18)
(-0.216023 -0.000535901 2.25769e-18)
(-0.215714 -0.000169548 -4.41252e-18)
(-0.21536 0.000213711 -4.12575e-18)
(-0.214953 0.000604852 -1.56726e-18)
(-0.214484 0.00099742 -5.03791e-18)
(-0.21394 0.00138301 2.22523e-18)
(-0.213309 0.00175486 -2.70098e-18)
(-0.212577 0.00210771 5.03809e-18)
(-0.21173 0.00243872 -2.01876e-18)
(-0.210749 0.00274689 -5.19973e-18)
(-0.209618 0.00303502 1.69301e-19)
(-0.208308 0.00330744 -2.28289e-18)
(-0.206797 0.00357514 -8.76922e-18)
(-0.205045 0.00384836 -3.56603e-18)
(-0.203027 0.0041495 -3.10137e-18)
(-0.200669 0.00449325 1.94408e-18)
(-0.197959 0.00492134 -3.95888e-18)
(-0.194751 0.00544692 3.82103e-18)
(-0.191086 0.00615039 5.27244e-18)
(-0.186642 0.00702622 1.2839e-17)
(-0.181649 0.0082387 8.056e-18)
(-0.175322 0.00973339 7.87864e-18)
(-0.168483 0.0118229 3.30745e-18)
(-0.159127 0.0144451 -2.21525e-18)
(-0.149708 0.0179029 1.72213e-19)
(-0.135344 0.0228315 4.67598e-18)
(-0.121955 0.0277924 5.42861e-18)
(-0.100099 0.0372308 -6.87186e-18)
(-0.078363 0.0409988 -2.06077e-18)
(-0.0497674 0.0496823 -1.1165e-18)
(-0.0116398 0.0344168 -2.00272e-18)
(-0.319474 -9.68976e-05 -4.06794e-20)
(-0.319695 -0.000203892 1.3387e-19)
(-0.320041 -0.000466556 -1.5498e-20)
(-0.320759 -0.000646457 3.89959e-19)
(-0.321584 -0.000751787 4.89291e-19)
(-0.322538 -0.00077801 2.35644e-19)
(-0.323486 -0.000731686 8.49885e-19)
(-0.324381 -0.00063369 4.8882e-19)
(-0.325155 -0.000498787 1.28483e-18)
(-0.325766 -0.000342057 2.84012e-19)
(-0.326175 -0.00017343 -7.89796e-19)
(-0.326358 1.38446e-06 1.90634e-18)
(-0.326298 0.000174551 1.49042e-18)
(-0.325982 0.000349742 1.92069e-18)
(-0.325406 0.000526009 -1.30783e-19)
(-0.324569 0.000705384 1.72257e-18)
(-0.323473 0.00089023 1.9158e-18)
(-0.322126 0.00108309 -1.2265e-18)
(-0.320536 0.00128644 -1.96875e-18)
(-0.318711 0.00150232 -1.00418e-18)
(-0.316665 0.00173228 -3.08397e-18)
(-0.314409 0.00197706 -1.26099e-18)
(-0.311957 0.0022366 -6.09941e-19)
(-0.309324 0.00251002 2.06678e-18)
(-0.306522 0.00279557 -1.92095e-19)
(-0.303569 0.00309061 -7.10422e-19)
(-0.300479 0.00339161 1.38602e-18)
(-0.29727 0.00369428 -5.56174e-19)
(-0.293958 0.00399366 2.74117e-18)
(-0.290562 0.00428422 2.31704e-19)
(-0.2871 0.00456009 -2.61545e-19)
(-0.283591 0.00481518 1.13787e-18)
(-0.280054 0.00504354 -9.26088e-19)
(-0.276509 0.0052394 1.11187e-18)
(-0.272973 0.00539753 -1.06775e-19)
(-0.269468 0.0055132 -2.33695e-18)
(-0.266009 0.00558252 4.53588e-19)
(-0.262614 0.00560246 4.52968e-19)
(-0.2593 0.0055709 -3.79712e-18)
(-0.256081 0.00548669 -3.51017e-18)
(-0.25297 0.0053497 -3.53274e-18)
(-0.249981 0.00516079 -3.40456e-18)
(-0.247122 0.00492177 -1.0865e-18)
(-0.244403 0.00463537 2.59854e-18)
(-0.241831 0.0043052 3.02773e-18)
(-0.239411 0.0039357 -1.63859e-18)
(-0.237148 0.00353205 -1.82333e-18)
(-0.235043 0.00310009 -4.16739e-18)
(-0.233098 0.0026463 -1.95253e-18)
(-0.231311 0.00217748 -6.2698e-20)
(-0.22968 0.00170109 -2.77015e-19)
(-0.228202 0.00122473 1.08188e-18)
(-0.226872 0.000756379 -6.87782e-19)
(-0.225683 0.000303983 -6.76312e-19)
(-0.22463 -0.000123834 -5.64857e-19)
(-0.223705 -0.000525611 -1.46384e-18)
(-0.2229 -0.000886816 -1.62697e-18)
(-0.222202 -0.00120185 4.60469e-18)
(-0.221603 -0.0014685 2.01744e-19)
(-0.221094 -0.00167986 1.21352e-18)
(-0.220663 -0.00183286 -1.16759e-18)
(-0.2203 -0.00192465 -2.90717e-18)
(-0.219995 -0.00195412 -3.28057e-18)
(-0.219735 -0.00192107 -3.32582e-18)
(-0.219511 -0.00182772 -3.52212e-18)
(-0.219311 -0.00167518 -4.52454e-18)
(-0.219127 -0.00147182 -1.96675e-18)
(-0.218948 -0.00121539 -6.86951e-19)
(-0.21876 -0.00091854 -3.09699e-18)
(-0.218556 -0.000586594 4.16593e-18)
(-0.218328 -0.000227099 -5.39428e-18)
(-0.218059 0.000149823 -1.97213e-18)
(-0.217742 0.000530588 -8.05812e-19)
(-0.217367 0.000911618 -6.4757e-18)
(-0.216922 0.00128393 2.71467e-18)
(-0.216394 0.00164054 -1.70706e-18)
(-0.215769 0.00197592 6.05037e-18)
(-0.215032 0.00228683 -2.92917e-18)
(-0.214165 0.0025718 -1.67276e-18)
(-0.213149 0.00283302 1.54196e-18)
(-0.211957 0.00307414 7.94483e-19)
(-0.210565 0.00330512 -1.16199e-17)
(-0.208931 0.00353538 -4.78872e-18)
(-0.20703 0.00378548 -6.34134e-18)
(-0.204786 0.00406919 3.07996e-18)
(-0.202186 0.00442479 -3.46969e-18)
(-0.199078 0.00486501 4.05564e-18)
(-0.195504 0.00546307 4.00817e-18)
(-0.191126 0.00621522 1.20184e-17)
(-0.186185 0.00726951 9.03883e-18)
(-0.179854 0.0085807 5.68739e-18)
(-0.172982 0.0104247 2.64977e-18)
(-0.163482 0.0127623 -2.8685e-18)
(-0.153832 0.0158373 5.59573e-19)
(-0.139073 0.0202765 6.20298e-18)
(-0.124963 0.0247152 3.33406e-18)
(-0.102316 0.0331905 -5.32974e-18)
(-0.0790228 0.0366694 -1.58582e-18)
(-0.0491125 0.0440388 -9.25229e-19)
(-0.0111906 0.0305262 -2.60944e-18)
(-0.323292 -7.84907e-05 -6.06272e-20)
(-0.32348 -0.000163116 5.22574e-20)
(-0.323787 -0.00037988 -1.27074e-19)
(-0.324445 -0.000525239 5.23862e-19)
(-0.325209 -0.000608853 4.4671e-19)
(-0.3261 -0.000626139 -4.47372e-19)
(-0.326988 -0.000583865 8.79342e-19)
(-0.327826 -0.000500421 7.90725e-19)
(-0.328546 -0.000388884 1.80035e-18)
(-0.329104 -0.000262293 3.20626e-19)
(-0.329463 -0.000128896 -6.50617e-19)
(-0.329598 6.2604e-06 1.79015e-18)
(-0.32949 0.000138576 2.28683e-18)
(-0.329125 0.000270837 1.75185e-18)
(-0.328501 0.000403682 1.65706e-18)
(-0.327614 0.000539808 1.87999e-18)
(-0.326469 0.000682138 2.60996e-18)
(-0.325071 0.000833662 -7.39321e-19)
(-0.323429 0.000997183 -2.2839e-18)
(-0.321552 0.00117501 -1.48892e-19)
(-0.319452 0.00136892 -2.87168e-18)
(-0.317143 0.00157981 -1.28206e-18)
(-0.314636 0.00180773 4.02807e-19)
(-0.311947 0.00205193 1.61396e-18)
(-0.309091 0.00231078 -5.41951e-19)
(-0.306082 0.00258176 2.04505e-18)
(-0.302938 0.00286144 6.39776e-19)
(-0.299674 0.00314566 -1.15962e-18)
(-0.29631 0.00342957 4.04062e-18)
(-0.292862 0.00370775 1.22796e-18)
(-0.289349 0.00397442 -8.68622e-19)
(-0.285791 0.00422355 2.06092e-18)
(-0.282206 0.00444923 -4.81576e-19)
(-0.278614 0.00464567 9.58402e-19)
(-0.275035 0.0048076 -2.43729e-20)
(-0.271487 0.0049302 -3.08779e-18)
(-0.267988 0.00500944 -2.20151e-20)
(-0.264555 0.00504214 7.65375e-19)
(-0.261205 0.00502594 -3.35467e-18)
(-0.257952 0.00495951 -3.26021e-18)
(-0.254811 0.00484244 -5.04713e-18)
(-0.251792 0.00467532 -3.61372e-18)
(-0.248906 0.0044597 -1.43241e-18)
(-0.246163 0.00419802 3.0578e-18)
(-0.24357 0.0038936 2.72637e-18)
(-0.241131 0.0035506 -2.0112e-18)
(-0.238851 0.00317391 -2.05271e-18)
(-0.236732 0.00276911 -3.03591e-18)
(-0.234776 0.00234241 -2.90246e-18)
(-0.23298 0.00190033 7.21244e-20)
(-0.231344 0.00145013 -1.87768e-18)
(-0.229862 0.000999218 -2.47203e-19)
(-0.228532 0.000555395 -1.55131e-18)
(-0.227346 0.000127825 -1.18421e-18)
(-0.226299 -0.000281688 5.3055e-19)
(-0.225383 -0.000661477 -2.04116e-18)
(-0.22459 -0.00100407 -1.17337e-18)
(-0.223908 -0.00130248 3.55842e-18)
(-0.223328 -0.00155401 -5.33189e-19)
(-0.222842 -0.00175213 2.92531e-18)
(-0.222438 -0.00189373 -5.98848e-19)
(-0.222106 -0.001976 -2.78372e-18)
(-0.221835 -0.00199778 -3.5007e-18)
(-0.221614 -0.00195886 -3.37004e-18)
(-0.221433 -0.00186139 -2.23182e-18)
(-0.22128 -0.00170646 -5.11819e-18)
(-0.221147 -0.00150209 -2.66138e-18)
(-0.221024 -0.00124677 -2.1148e-18)
(-0.220896 -0.000952394 -5.01528e-18)
(-0.220758 -0.000624409 3.99935e-18)
(-0.220599 -0.000270898 -4.61619e-18)
(-0.220405 0.000100425 -3.20829e-18)
(-0.220166 0.000471875 -4.13663e-20)
(-0.219873 0.000842336 -5.76738e-18)
(-0.219514 0.00120228 4.99945e-19)
(-0.219076 0.00154452 -1.1728e-18)
(-0.218544 0.00186326 4.67643e-18)
(-0.217904 0.00215484 -1.0878e-18)
(-0.217135 0.00241733 -2.14044e-18)
(-0.21622 0.00265224 -5.78789e-19)
(-0.21513 0.00286257 -7.06119e-20)
(-0.213842 0.0030572 -1.24736e-17)
(-0.212311 0.00324468 -6.19003e-18)
(-0.210513 0.00344364 -6.25527e-18)
(-0.208368 0.00366692 8.64349e-19)
(-0.205863 0.00394912 -3.98684e-18)
(-0.20284 0.0043025 5.35173e-18)
(-0.199346 0.00479272 3.52719e-18)
(-0.195025 0.00541768 8.81928e-18)
(-0.190128 0.00630851 6.39779e-18)
(-0.183793 0.00742846 4.04088e-18)
(-0.176891 0.00901655 2.01438e-18)
(-0.167265 0.0110518 -4.25432e-18)
(-0.15741 0.0137248 1.16454e-18)
(-0.142312 0.0176343 9.02367e-18)
(-0.127562 0.0215175 1.74624e-18)
(-0.104235 0.0289753 -2.82085e-19)
(-0.0796034 0.0321186 -1.23097e-18)
(-0.0485081 0.0383508 -1.07413e-18)
(-0.0107795 0.026757 -3.79991e-18)
(-0.326566 -6.26414e-05 -3.68972e-20)
(-0.326727 -0.000127367 -1.15663e-20)
(-0.327004 -0.00030068 -2.45464e-19)
(-0.327613 -0.000413086 3.40265e-19)
(-0.328325 -0.000475253 4.57734e-19)
(-0.329163 -0.000483487 -5.16287e-19)
(-0.33 -0.000444859 1.15854e-18)
(-0.33079 -0.0003755 1.18663e-18)
(-0.331463 -0.000286927 2.55959e-18)
(-0.331977 -0.000190176 3.17096e-19)
(-0.332293 -9.18201e-05 -6.1354e-19)
(-0.332386 4.69551e-06 2.10241e-18)
(-0.332236 9.54212e-05 1.90006e-18)
(-0.331831 0.000184794 1.86346e-18)
(-0.331164 0.000274197 3.67271e-18)
(-0.330235 0.000366984 2.27194e-18)
(-0.329047 0.000466658 1.84658e-18)
(-0.327606 0.000576672 -6.65242e-19)
(-0.325919 0.000700172 -1.05084e-18)
(-0.323997 0.000839732 7.77998e-19)
(-0.321851 0.000997458 -1.23087e-18)
(-0.319494 0.00117434 -1.19584e-18)
(-0.31694 0.00137054 1.45047e-18)
(-0.314203 0.00158544 1.46202e-18)
(-0.311299 0.00181755 -1.0337e-18)
(-0.308243 0.00206446 3.1132e-18)
(-0.305051 0.00232287 -1.33284e-19)
(-0.301741 0.00258871 2.91905e-19)
(-0.29833 0.00285727 4.0451e-18)
(-0.294837 0.00312321 2.04049e-18)
(-0.29128 0.00338086 -1.85693e-18)
(-0.287679 0.00362424 1.27201e-18)
(-0.284053 0.00384746 -2.85798e-19)
(-0.280422 0.00404474 1.0619e-18)
(-0.276804 0.00421076 -6.90034e-20)
(-0.27322 0.00434059 -2.41925e-18)
(-0.269686 0.00443006 -2.65538e-19)
(-0.266221 0.00447585 1.14964e-18)
(-0.26284 0.00447538 -1.72753e-18)
(-0.259559 0.00442707 -3.5351e-18)
(-0.256391 0.0043303 -5.2797e-18)
(-0.253347 0.00418536 -2.22939e-18)
(-0.250439 0.00399354 -1.85621e-18)
(-0.247676 0.00375698 2.27352e-18)
(-0.245064 0.00347873 2.64389e-18)
(-0.242609 0.00316264 -2.99014e-18)
(-0.240315 0.00281335 -2.70446e-18)
(-0.238184 0.00243612 -2.50413e-18)
(-0.236218 0.00203694 -4.22906e-18)
(-0.234415 0.00162203 2.33035e-19)
(-0.232773 0.00119845 -3.82633e-18)
(-0.231289 0.000773353 -1.45369e-18)
(-0.229958 0.000354597 -4.8226e-19)
(-0.228774 -4.93679e-05 -1.90991e-18)
(-0.227732 -0.000437696 -4.48666e-19)
(-0.226823 -0.000796248 -8.91899e-19)
(-0.226039 -0.00111956 -3.10282e-18)
(-0.22537 -0.00140063 3.29638e-18)
(-0.224806 -0.00163641 -1.6265e-18)
(-0.224338 -0.00182066 2.85667e-18)
(-0.223956 -0.00195023 -4.67416e-19)
(-0.223649 -0.00202232 -6.24518e-19)
(-0.223406 -0.00203576 -4.19799e-18)
(-0.223217 -0.00199029 -1.1235e-18)
(-0.223072 -0.00188802 -1.2448e-18)
(-0.222958 -0.00173004 -3.84922e-18)
(-0.222869 -0.00152401 -3.65529e-18)
(-0.222792 -0.00126909 -3.87222e-18)
(-0.222716 -0.000976496 -7.74936e-18)
(-0.222633 -0.000651788 1.76314e-18)
(-0.222532 -0.000303334 -4.97321e-18)
(-0.222402 6.27687e-05 -4.77861e-18)
(-0.22223 0.000425681 -2.63594e-18)
(-0.222008 0.000786315 -6.17001e-18)
(-0.221722 0.00113463 -1.19232e-18)
(-0.221361 0.00146322 -8.49562e-19)
(-0.220909 0.00176596 4.38617e-18)
(-0.220351 0.0020388 1.82816e-19)
(-0.219668 0.00227934 -3.04497e-18)
(-0.21884 0.00248841 -2.83522e-18)
(-0.217837 0.00266833 -1.20118e-18)
(-0.216638 0.00282689 -1.20386e-17)
(-0.215195 0.00297178 -7.9861e-18)
(-0.213484 0.00311962 -7.11117e-18)
(-0.211423 0.00328233 -1.05756e-18)
(-0.208999 0.00349067 -5.21023e-18)
(-0.20605 0.00375648 3.58293e-18)
(-0.202623 0.00413742 -1.24561e-18)
(-0.19835 0.00463315 7.37256e-18)
(-0.19349 0.00535708 4.65204e-18)
(-0.187151 0.00628073 2.96146e-18)
(-0.180222 0.00760585 1.50783e-18)
(-0.170491 0.0093259 -6.22872e-18)
(-0.160457 0.0115844 2.17476e-18)
(-0.145074 0.0149334 8.78754e-18)
(-0.129771 0.0182388 2.46134e-19)
(-0.105868 0.0246309 -3.54835e-19)
(-0.0801048 0.0273915 -9.71005e-19)
(-0.0479656 0.0325821 -1.09869e-18)
(-0.0104091 0.0229219 -5.82434e-18)
(-0.329293 -4.87999e-05 -2.38058e-20)
(-0.329435 -9.56254e-05 1.07062e-19)
(-0.329687 -0.000227573 -9.81513e-20)
(-0.330256 -0.000308429 2.52503e-19)
(-0.330927 -0.000349444 4.55456e-19)
(-0.331723 -0.00034861 -7.23866e-19)
(-0.332517 -0.000313383 8.80486e-19)
(-0.333268 -0.000257674 8.26115e-19)
(-0.333902 -0.000191685 2.72884e-18)
(-0.33438 -0.000124515 9.74432e-20)
(-0.33466 -6.10854e-05 -6.75368e-19)
(-0.334718 -3.37402e-06 1.51576e-18)
(-0.334534 4.6579e-05 1.7998e-18)
(-0.334094 9.30139e-05 2.2857e-18)
(-0.333392 0.000138909 4.58286e-18)
(-0.332428 0.000188232 1.14948e-18)
(-0.331204 0.000245081 1.22324e-18)
(-0.329726 0.000313395 -9.5694e-19)
(-0.328002 0.000396698 -1.88735e-18)
(-0.326041 0.00049789 -2.17267e-20)
(-0.323857 0.000619208 -5.8941e-20)
(-0.32146 0.000761867 -1.13154e-18)
(-0.318866 0.000926199 8.45891e-19)
(-0.316089 0.00111172 1.50268e-18)
(-0.313145 0.00131704 -1.6957e-18)
(-0.310048 0.00153991 2.71692e-18)
(-0.306816 0.00177708 9.99746e-19)
(-0.303466 0.00202462 1.84352e-18)
(-0.300016 0.00227793 2.72847e-18)
(-0.296485 0.00253177 8.36616e-19)
(-0.292891 0.00278055 -3.24788e-18)
(-0.289254 0.00301836 7.8939e-19)
(-0.285593 0.00323933 -2.21721e-19)
(-0.281929 0.00343767 -7.19538e-19)
(-0.27828 0.003608 -2.32827e-18)
(-0.274665 0.00374529 -2.37259e-18)
(-0.271103 0.00384525 -3.54143e-19)
(-0.26761 0.00390438 -3.68734e-19)
(-0.264204 0.0039199 -2.61749e-18)
(-0.260899 0.00389 -2.35738e-18)
(-0.257709 0.0038138 -4.28388e-18)
(-0.254646 0.00369133 -2.92534e-18)
(-0.251719 0.00352359 -2.42264e-18)
(-0.248939 0.00331246 2.13083e-18)
(-0.246312 0.00306067 8.66765e-19)
(-0.243844 0.0027718 -2.73195e-18)
(-0.241539 0.00245021 -3.67277e-18)
(-0.239399 0.00210087 -2.24247e-18)
(-0.237424 0.00172954 -4.14337e-18)
(-0.235615 0.00134213 -1.26806e-18)
(-0.233969 0.000945496 -4.4784e-18)
(-0.232482 0.000546488 -2.79545e-18)
(-0.23115 0.000154129 -1.58436e-18)
(-0.229968 -0.000228695 -2.84091e-18)
(-0.228929 -0.000593115 -1.45705e-18)
(-0.228025 -0.000930284 1.54978e-19)
(-0.227248 -0.00123392 -3.11042e-18)
(-0.226589 -0.00149719 1.551e-18)
(-0.226037 -0.00171674 -6.86288e-19)
(-0.225584 -0.00188661 9.14297e-19)
(-0.225218 -0.00200361 -5.92264e-19)
(-0.224931 -0.00206496 -1.15761e-18)
(-0.224711 -0.00206947 -5.75706e-18)
(-0.224547 -0.00201688 1.13848e-18)
(-0.224431 -0.00190918 -4.12614e-19)
(-0.22435 -0.00174752 -6.15719e-18)
(-0.224295 -0.0015392 -2.14128e-18)
(-0.224257 -0.00128402 -3.31244e-18)
(-0.224223 -0.000992557 -8.69371e-18)
(-0.224185 -0.000670476 3.49406e-19)
(-0.224133 -0.000326286 -6.48836e-18)
(-0.224055 3.49658e-05 -7.0353e-18)
(-0.22394 0.00039002 -5.45388e-18)
(-0.223776 0.000741345 -7.72032e-18)
(-0.223552 0.00107861 -2.73094e-18)
(-0.223255 0.00139408 -5.49853e-19)
(-0.22287 0.00168132 1.39769e-18)
(-0.222381 0.00193587 1.07823e-18)
(-0.221769 0.00215485 -4.55086e-18)
(-0.221013 0.00233842 -5.39739e-18)
(-0.220084 0.00248821 -2.37471e-18)
(-0.218958 0.00261087 -9.77531e-18)
(-0.217589 0.00271327 -1.07467e-17)
(-0.21595 0.00280997 -8.80416e-18)
(-0.213959 0.00291196 -2.73529e-18)
(-0.211604 0.00304604 -7.40356e-18)
(-0.208714 0.00322369 2.93246e-18)
(-0.205343 0.00349421 -1.67256e-18)
(-0.201109 0.0038592 7.47801e-18)
(-0.196281 0.00441366 3.59151e-18)
(-0.189937 0.00513723 2.21153e-18)
(-0.182987 0.00619425 1.34028e-18)
(-0.173169 0.00758928 -9.75117e-18)
(-0.162984 0.0094244 3.79072e-18)
(-0.147369 0.0121876 1.01692e-17)
(-0.131603 0.0148988 -1.46747e-18)
(-0.107224 0.0201846 -5.78675e-19)
(-0.0805284 0.0225163 -1.14325e-18)
(-0.047498 0.0267242 -1.18956e-18)
(-0.0100858 0.0189821 -4.9324e-18)
(-0.331473 -3.64908e-05 -1.42302e-20)
(-0.331599 -6.69549e-05 2.46367e-19)
(-0.331833 -0.000159245 1.55164e-20)
(-0.332372 -0.000209652 2.16717e-19)
(-0.33301 -0.000229733 5.29983e-19)
(-0.333773 -0.000219757 -3.52752e-19)
(-0.334535 -0.000187603 8.77254e-19)
(-0.335254 -0.000145302 6.53386e-19)
(-0.335859 -0.000101563 2.25498e-18)
(-0.336308 -6.37204e-05 -3.27818e-19)
(-0.33656 -3.54747e-05 -7.98072e-19)
(-0.336591 -1.72413e-05 1.3095e-18)
(-0.336379 -7.58553e-06 1.9378e-18)
(-0.335911 -3.91858e-06 3.1185e-18)
(-0.335182 -1.54639e-06 4.57082e-18)
(-0.33419 4.29e-06 1.64039e-18)
(-0.332937 1.83214e-05 2.59329e-18)
(-0.331429 4.49822e-05 -1.55703e-18)
(-0.329675 8.82024e-05 -9.82681e-19)
(-0.327683 0.000151395 -7.08837e-19)
(-0.325467 0.000235862 1.08991e-18)
(-0.323039 0.000343756 -1.30593e-18)
(-0.320412 0.000475999 4.27385e-19)
(-0.317602 0.000632037 1.79984e-18)
(-0.314624 0.000810562 -2.65772e-18)
(-0.311495 0.00100932 3.00032e-18)
(-0.30823 0.00122528 2.24594e-18)
(-0.304848 0.00145457 1.5694e-18)
(-0.301366 0.00169273 1.99833e-18)
(-0.297804 0.00193459 1.64408e-18)
(-0.294179 0.00217466 -3.09546e-18)
(-0.290513 0.00240704 8.22178e-19)
(-0.286825 0.00262593 -2.22828e-19)
(-0.283133 0.00282551 -5.43514e-19)
(-0.279459 0.00300035 -2.85692e-18)
(-0.27582 0.00314531 -2.60471e-18)
(-0.272235 0.00325597 -2.79498e-19)
(-0.268722 0.00332867 -2.03774e-18)
(-0.265296 0.0033604 -1.99457e-18)
(-0.261972 0.00334914 -1.51555e-18)
(-0.258765 0.00329373 -2.03105e-18)
(-0.255686 0.00319397 -1.87301e-18)
(-0.252746 0.00305055 -3.25636e-18)
(-0.249953 0.00286506 2.51774e-18)
(-0.247315 0.00263998 1.20257e-18)
(-0.244837 0.00237857 -1.13238e-18)
(-0.242523 0.00208492 -3.07093e-18)
(-0.240375 0.00176372 -2.32705e-18)
(-0.238395 0.0014205 -4.7525e-18)
(-0.236581 0.00106085 -2.9296e-18)
(-0.234931 0.000691449 -5.91569e-18)
(-0.233442 0.00031923 -2.23728e-18)
(-0.232109 -4.77006e-05 -2.92183e-18)
(-0.230928 -0.000407572 -1.97743e-18)
(-0.229891 -0.000748327 -3.14345e-19)
(-0.228991 -0.00106381 1.35851e-18)
(-0.228219 -0.00134746 -1.45965e-18)
(-0.227566 -0.00159254 3.23035e-19)
(-0.227023 -0.00179548 1.54634e-20)
(-0.22658 -0.00195056 -8.36248e-19)
(-0.226228 -0.00205455 -8.34179e-19)
(-0.225955 -0.00210471 -1.99273e-18)
(-0.225752 -0.0020998 -5.79951e-18)
(-0.225608 -0.00203956 1.25941e-18)
(-0.225513 -0.0019259 2.58916e-19)
(-0.225457 -0.00176002 -6.86084e-18)
(-0.22543 -0.00154887 -7.63078e-19)
(-0.225421 -0.00129283 -3.43291e-19)
(-0.22542 -0.00100192 -8.21514e-18)
(-0.225418 -0.000681934 -5.72747e-19)
(-0.225404 -0.000341408 -6.29928e-18)
(-0.225369 1.6587e-05 -7.05934e-18)
(-0.225299 0.000363132 -5.54268e-18)
(-0.225182 0.000705697 -7.15135e-18)
(-0.225008 0.00103245 -4.46426e-18)
(-0.224762 0.00133528 -3.90247e-18)
(-0.224431 0.00160745 2.40766e-18)
(-0.223999 0.00184409 2.07591e-18)
(-0.223444 0.00204185 -7.14352e-18)
(-0.222746 0.0022002 -4.78699e-18)
(-0.221876 0.00232006 -3.82112e-18)
(-0.22081 0.002407 -9.62516e-18)
(-0.219499 0.002467 -1.07699e-17)
(-0.217919 0.00251254 -7.48992e-18)
(-0.215984 0.00255371 -4.25532e-18)
(-0.213682 0.00261322 -1.07974e-17)
(-0.210841 0.00270224 -1.02071e-18)
(-0.207514 0.00286147 -2.48392e-18)
(-0.203311 0.00309453 4.55382e-18)
(-0.198508 0.0034776 2.778e-18)
(-0.192161 0.00399814 1.87143e-18)
(-0.185192 0.00478332 1.05274e-18)
(-0.175305 0.00584557 -1.06016e-17)
(-0.165001 0.00725108 1.96483e-18)
(-0.149203 0.00940791 8.6052e-18)
(-0.133064 0.0115128 -4.04308e-18)
(-0.108308 0.0156596 -8.53125e-19)
(-0.0808734 0.0175216 -1.44297e-18)
(-0.0471137 0.0207891 -1.03129e-18)
(-0.00981538 0.0149375 -5.36492e-18)
(-0.333103 -2.53028e-05 -2.21141e-21)
(-0.333218 -4.04816e-05 2.53855e-19)
(-0.33344 -9.43327e-05 1.36847e-19)
(-0.333956 -0.00011516 2.33531e-19)
(-0.334572 -0.000114412 7.17901e-19)
(-0.335311 -9.50015e-05 -1.17968e-19)
(-0.33605 -6.48375e-05 1.08208e-18)
(-0.336746 -3.64505e-05 6.06456e-19)
(-0.33733 -1.53314e-05 2.13532e-18)
(-0.337757 -6.86334e-06 1.79514e-19)
(-0.337989 -1.27535e-05 2.96202e-19)
(-0.338 -3.47541e-05 1.51813e-18)
(-0.337768 -6.66916e-05 2.50288e-18)
(-0.33728 -0.000105909 2.90982e-18)
(-0.33653 -0.000147117 3.53553e-18)
(-0.335517 -0.000184805 2.18957e-18)
(-0.334242 -0.000213631 2.47849e-18)
(-0.332712 -0.000228698 -7.91304e-19)
(-0.330935 -0.000225723 -1.71261e-19)
(-0.32892 -0.000201013 -1.44877e-18)
(-0.32668 -0.000153031 2.62812e-18)
(-0.324227 -7.93988e-05 -1.89102e-18)
(-0.321575 2.0952e-05 2.72095e-19)
(-0.31874 0.00014764 2.30739e-18)
(-0.315736 0.000299443 -4.30502e-18)
(-0.312581 0.000473884 1.9002e-18)
(-0.309291 0.000668637 1.56204e-18)
(-0.305883 0.000879764 1.51304e-18)
(-0.302377 0.00110284 1.50347e-18)
(-0.298791 0.00133283 2.6479e-18)
(-0.295144 0.00156433 -3.73427e-18)
(-0.291455 0.00179142 1.19421e-18)
(-0.287746 0.00200839 -2.37633e-19)
(-0.284034 0.00220936 -4.95859e-19)
(-0.28034 0.0023889 -4.01311e-18)
(-0.276684 0.00254172 -9.85654e-19)
(-0.273082 0.00266326 -4.15093e-20)
(-0.269553 0.00274971 -2.04743e-18)
(-0.266113 0.00279784 -1.57055e-18)
(-0.262777 0.00280539 -8.8007e-19)
(-0.259558 0.00277097 -4.18067e-20)
(-0.256468 0.00269408 -1.13501e-18)
(-0.253518 0.00257515 -2.48709e-18)
(-0.250716 0.00241549 3.53322e-18)
(-0.24807 0.00221727 1.63977e-18)
(-0.245586 0.00198349 1.77703e-19)
(-0.243266 0.00171795 -3.10466e-18)
(-0.241113 0.00142506 -2.65125e-18)
(-0.239129 0.00111016 -4.06359e-18)
(-0.237312 0.000778463 -2.75324e-18)
(-0.23566 0.000436681 -6.3533e-18)
(-0.234169 9.32525e-05 -1.70678e-18)
(-0.232836 -0.000251711 -2.49137e-18)
(-0.231655 -0.000586391 -1.32143e-18)
(-0.230619 -0.000903746 8.53408e-19)
(-0.229721 -0.00119741 2.71579e-18)
(-0.228952 -0.00146085 -2.53573e-18)
(-0.228303 -0.0016875 -7.81615e-19)
(-0.227766 -0.00187359 7.03672e-19)
(-0.22733 -0.00201361 -2.68497e-18)
(-0.226985 -0.00210429 -1.32212e-18)
(-0.226722 -0.00214292 -5.88045e-19)
(-0.226531 -0.00212824 -4.15364e-18)
(-0.2264 -0.00205996 1.98151e-18)
(-0.226321 -0.00193992 8.82363e-19)
(-0.226282 -0.00176938 -6.20162e-18)
(-0.226274 -0.00155493 9.30808e-19)
(-0.226288 -0.00129747 2.61884e-18)
(-0.226311 -0.00100652 -6.29856e-18)
(-0.226335 -0.000687991 -9.69853e-19)
(-0.22635 -0.000350336 -4.18609e-18)
(-0.226346 3.52556e-06 -8.19184e-18)
(-0.226311 0.000343224 -6.3444e-18)
(-0.226229 0.00067736 -7.85761e-18)
(-0.226093 0.000993834 -6.66607e-18)
(-0.225887 0.00128429 -4.13304e-18)
(-0.225598 0.00154166 4.06648e-18)
(-0.225207 0.00176066 3.49095e-18)
(-0.224696 0.00193744 -7.52846e-18)
(-0.224043 0.00207079 -4.68159e-18)
(-0.223219 0.00216093 -5.78281e-18)
(-0.222198 0.0022123 -7.0996e-18)
(-0.220932 0.00223005 -8.52808e-18)
(-0.219395 0.00222452 -7.1659e-18)
(-0.217502 0.00220492 -6.55626e-18)
(-0.215241 0.00218979 -1.17927e-17)
(-0.212435 0.00219001 -1.35269e-19)
(-0.209141 0.00223767 7.20214e-19)
(-0.204961 0.00233813 2.7302e-18)
(-0.200176 0.00254866 2.40351e-18)
(-0.193826 0.00286415 1.69094e-18)
(-0.186844 0.00337532 9.23017e-19)
(-0.176905 0.00409964 -8.7432e-18)
(-0.166512 0.00507223 1.32949e-18)
(-0.150577 0.00660754 4.15849e-18)
(-0.134161 0.00809934 -3.27013e-18)
(-0.109124 0.0110826 -1.30254e-18)
(-0.081137 0.0124411 -1.85536e-18)
(-0.0468184 0.0147936 -1.09928e-18)
(-0.0096036 0.0107809 -6.811e-18)
(-0.334181 -1.48814e-05 1.45462e-20)
(-0.33429 -1.53255e-05 1.27078e-19)
(-0.334504 -3.11029e-05 2.78881e-19)
(-0.335007 -2.35697e-05 3.16162e-19)
(-0.335609 -2.56462e-06 1.01944e-18)
(-0.336334 2.56594e-05 1.01039e-19)
(-0.337059 5.27312e-05 1.52226e-18)
(-0.337742 6.77531e-05 6.40865e-19)
(-0.338311 6.65514e-05 2.39413e-18)
(-0.338726 4.58105e-05 5.69549e-19)
(-0.338945 6.04205e-06 1.44102e-18)
(-0.338943 -5.48742e-05 2.02978e-18)
(-0.338698 -0.000128878 1.93593e-18)
(-0.338197 -0.000211276 3.1759e-18)
(-0.337434 -0.000296155 3.04594e-18)
(-0.336407 -0.000377466 2.91944e-18)
(-0.335118 -0.000449304 2.64643e-18)