/*--------------------------------*- C++ -*----------------------------------*\
  =========                 |
  \\      /  F ield         | OpenFOAM: The Open Source CFD Toolbox
   \\    /   O peration     | Website:  https://openfoam.org
    \\  /    A nd           | Version:  7
     \\/     M anipulation  |
\*---------------------------------------------------------------------------*/
FoamFile
{
    version     2.0;
    format      ascii;
    class       volVectorField;
    location    "120";
    object      U;
}
// * * * * * * * * * * * * * * * * * * * * * * * * * * * * * * * * * * * * * //

dimensions      [0 1 -1 0 0 0 0];

internalField   nonuniform List<vector> 
8000
(
(-0.243341 -0.000360526 -6.26202e-20)
(-0.244112 -0.00094263 2.74285e-19)
(-0.245106 -0.0016796 -2.68222e-19)
(-0.246494 -0.00221753 7.34689e-19)
(-0.247982 -0.00250066 -5.61661e-19)
(-0.249457 -0.00254653 -7.14309e-19)
(-0.25084 -0.00238273 1.16672e-18)
(-0.252076 -0.00204516 4.05529e-19)
(-0.253129 -0.00157007 2.49938e-19)
(-0.253979 -0.000989959 3.63348e-19)
(-0.254609 -0.000332797 -1.08303e-18)
(-0.255015 0.000374561 -8.6568e-19)
(-0.255195 0.00111057 -5.89042e-18)
(-0.255149 0.00186196 -1.66834e-18)
(-0.254881 0.00261416 1.05061e-18)
(-0.254396 0.0033548 1.1024e-18)
(-0.2537 0.00407376 4.11657e-18)
(-0.252803 0.00476246 -8.88314e-19)
(-0.251714 0.00541345 1.29826e-18)
(-0.250445 0.00602012 2.03739e-19)
(-0.249008 0.00657649 1.77723e-18)
(-0.247417 0.00707704 2.89808e-18)
(-0.245686 0.00751678 9.03177e-19)
(-0.243831 0.00789122 -6.65959e-19)
(-0.241869 0.00819658 5.06736e-20)
(-0.239814 0.00842992 1.19371e-18)
(-0.237686 0.00858935 -2.29524e-19)
(-0.235501 0.00867417 2.25205e-18)
(-0.233275 0.008685 1.34229e-20)
(-0.231026 0.00862379 -1.02997e-19)
(-0.228769 0.00849382 9.9085e-19)
(-0.22652 0.00829957 -1.62091e-20)
(-0.224291 0.00804666 4.21851e-18)
(-0.222096 0.00774157 -6.77639e-19)
(-0.219945 0.00739154 -3.15423e-18)
(-0.217849 0.0070043 -4.36819e-20)
(-0.215815 0.00658791 2.09227e-19)
(-0.213849 0.00615054 4.60934e-18)
(-0.211956 0.0057003 1.87767e-18)
(-0.210141 0.00524514 5.13166e-18)
(-0.208403 0.00479269 1.39861e-18)
(-0.206745 0.00435012 8.62183e-19)
(-0.205164 0.00392404 5.17528e-18)
(-0.20366 0.00352031 -5.13208e-19)
(-0.202228 0.00314419 1.70946e-19)
(-0.200865 0.00280023 5.04539e-19)
(-0.199565 0.00249196 -4.4731e-18)
(-0.198322 0.00222206 -6.03722e-19)
(-0.19713 0.0019923 3.5284e-19)
(-0.195982 0.00180364 7.07739e-19)
(-0.19487 0.00165604 8.19599e-19)
(-0.193788 0.00154856 -9.37603e-19)
(-0.192727 0.00147941 -1.35333e-18)
(-0.191679 0.00144596 -2.37258e-18)
(-0.190638 0.00144498 -1.40648e-18)
(-0.189594 0.00147255 -2.53847e-20)
(-0.188542 0.00152409 -1.682e-18)
(-0.187473 0.00159466 3.0282e-19)
(-0.18638 0.00167954 -8.11353e-19)
(-0.185256 0.00177391 6.02379e-19)
(-0.184096 0.00187299 5.90121e-18)
(-0.182893 0.00197219 1.35186e-18)
(-0.18164 0.00206737 6.76845e-18)
(-0.180333 0.00215503 6.77708e-20)
(-0.178965 0.00223259 5.31503e-19)
(-0.17753 0.0022985 3.94701e-18)
(-0.176023 0.00235235 2.13822e-18)
(-0.174438 0.00239495 8.82004e-18)
(-0.172767 0.00242843 2.34464e-18)
(-0.171005 0.00245632 6.53812e-19)
(-0.169143 0.00248354 8.33203e-18)
(-0.167175 0.00251639 4.49579e-18)
(-0.16509 0.00256249 1.14987e-17)
(-0.16288 0.00263075 1.91384e-18)
(-0.160532 0.00273117 2.76928e-18)
(-0.158036 0.00287481 -2.83235e-18)
(-0.155377 0.00307366 -2.68439e-18)
(-0.152541 0.00334073 5.60557e-18)
(-0.149513 0.00368962 9.13951e-18)
(-0.146276 0.00413405 7.8982e-19)
(-0.142813 0.00468871 7.79339e-18)
(-0.139105 0.00536927 2.85672e-18)
(-0.13513 0.00619273 9.96289e-18)
(-0.13087 0.00717841 -5.03242e-18)
(-0.126302 0.00834885 7.42952e-18)
(-0.121407 0.00973196 8.31143e-18)
(-0.116164 0.0113615 1.1007e-17)
(-0.11056 0.0132851 -3.78753e-18)
(-0.104581 0.0155578 7.5353e-18)
(-0.098238 0.0182637 -7.26603e-18)
(-0.0915367 0.0215015 -1.69656e-18)
(-0.0845843 0.0254344 -2.05374e-18)
(-0.0773817 0.030214 -8.26949e-19)
(-0.07048 0.0361527 5.47072e-20)
(-0.0633501 0.0434585 -3.20159e-19)
(-0.0589616 0.052119 3.64666e-18)
(-0.0525579 0.0633761 2.21942e-19)
(-0.0559271 0.0711143 -1.647e-17)
(-0.0469906 0.0839266 -4.46532e-18)
(-0.0369886 0.0508182 -2.46899e-17)
(-0.25747 -0.000253676 -8.42697e-20)
(-0.258025 -0.000720446 3.82987e-20)
(-0.258816 -0.00134275 -1.76771e-19)
(-0.259966 -0.00181658 3.21434e-19)
(-0.261229 -0.00208133 -5.57535e-19)
(-0.262501 -0.00214046 -1.34777e-18)
(-0.263698 -0.00201164 -2.67095e-19)
(-0.264761 -0.00172374 2.10173e-19)
(-0.265651 -0.00130779 4.97953e-20)
(-0.266341 -0.000792813 1.22711e-19)
(-0.266815 -0.000204187 -4.22643e-19)
(-0.267063 0.000431257 -1.57282e-18)
(-0.267084 0.00109717 -5.25383e-18)
(-0.266875 0.00177894 -1.81436e-18)
(-0.266441 0.00246285 2.35616e-18)
(-0.265787 0.00313726 1.83e-18)
(-0.264919 0.00379261 1.91156e-18)
(-0.263848 0.00442082 -3.81248e-19)
(-0.262584 0.00501486 3.00621e-18)
(-0.261138 0.00556854 1.34938e-19)
(-0.259524 0.00607621 3.83843e-19)
(-0.257756 0.00653272 6.19351e-18)
(-0.25585 0.00693335 4.25907e-18)
(-0.253821 0.00727387 -1.63344e-18)
(-0.251686 0.00755069 -1.46268e-19)
(-0.249463 0.007761 1.74374e-18)
(-0.24717 0.00790294 -1.52086e-18)
(-0.244824 0.00797579 3.80702e-18)
(-0.242442 0.00798001 -1.23683e-18)
(-0.240042 0.00791735 -8.44204e-19)
(-0.237641 0.00779079 1.32844e-18)
(-0.235253 0.00760448 -8.46912e-19)
(-0.232893 0.0073636 1.49507e-18)
(-0.230574 0.00707418 -3.29946e-18)
(-0.228308 0.00674297 -4.35962e-19)
(-0.226105 0.00637721 -1.84036e-19)
(-0.223973 0.00598441 -2.94501e-19)
(-0.221919 0.00557224 2.07465e-18)
(-0.21995 0.00514829 2.16405e-18)
(-0.218068 0.00472 2.62107e-18)
(-0.216277 0.00429454 9.14119e-19)
(-0.214577 0.00387867 5.40221e-19)
(-0.212967 0.0034786 2.54631e-18)
(-0.211446 0.00309977 -3.21624e-18)
(-0.210012 0.00274715 -5.1646e-19)
(-0.20866 0.00242501 1.34534e-19)
(-0.207386 0.00213664 -1.99672e-18)
(-0.206185 0.00188451 -5.14479e-19)
(-0.205049 0.00167025 4.50529e-20)
(-0.203973 0.00149473 7.08566e-19)
(-0.202949 0.00135788 5.77622e-19)
(-0.201971 0.00125877 1.34118e-18)
(-0.20103 0.00119559 -1.65809e-18)
(-0.200119 0.00116581 -3.272e-19)
(-0.19923 0.0011663 -2.65681e-18)
(-0.198356 0.00119326 -4.55303e-19)
(-0.19749 0.00124216 -4.70306e-18)
(-0.196624 0.00130816 -3.24924e-19)
(-0.195751 0.00138672 -2.84396e-18)
(-0.194864 0.00147314 2.35083e-19)
(-0.193957 0.00156272 1.64527e-18)
(-0.193024 0.00165096 5.55308e-19)
(-0.192058 0.00173374 2.92249e-18)
(-0.191054 0.00180759 -2.29183e-18)
(-0.190005 0.00186987 -3.74739e-19)
(-0.188906 0.00191895 7.10558e-18)
(-0.187752 0.00195428 1.96243e-18)
(-0.186535 0.00197649 4.03929e-18)
(-0.18525 0.00198747 1.42559e-18)
(-0.183889 0.00199045 5.86901e-19)
(-0.182445 0.00199 3.86815e-18)
(-0.18091 0.00199202 8.11338e-18)
(-0.179276 0.00200364 9.44553e-18)
(-0.177532 0.00203325 1.79792e-18)
(-0.175667 0.0020903 5.62081e-18)
(-0.173669 0.00218526 -6.91504e-18)
(-0.171524 0.00232954 -5.72172e-18)
(-0.169217 0.00253558 1.23481e-17)
(-0.166732 0.00281656 2.09096e-18)
(-0.16405 0.00318542 -6.36868e-20)
(-0.161153 0.00365628 -3.16354e-19)
(-0.158018 0.00424411 4.30126e-18)
(-0.154622 0.00496512 3.58577e-18)
(-0.15094 0.00583787 -1.35507e-17)
(-0.146943 0.00688402 -2.51695e-18)
(-0.142603 0.00813069 -3.77279e-18)
(-0.137888 0.00961077 2.5243e-18)
(-0.132769 0.0113705 -1.04134e-17)
(-0.127208 0.0134653 -3.2024e-18)
(-0.12119 0.0159795 -1.77311e-17)
(-0.114672 0.0190155 -2.77456e-18)
(-0.107714 0.02274 -3.78723e-18)
(-0.100206 0.0273329 -1.34678e-18)
(-0.0926228 0.033086 -1.33837e-19)
(-0.0841961 0.0403755 -9.88639e-20)
(-0.0776018 0.0489707 7.89571e-18)
(-0.0680156 0.0607431 5.75469e-19)
(-0.0651525 0.0684352 -1.34283e-17)
(-0.0500535 0.0804337 -4.28153e-18)
(-0.0252761 0.0466033 -1.15205e-17)
(-0.270122 -0.000178086 -8.72135e-21)
(-0.270518 -0.000549004 -1.56773e-19)
(-0.271143 -0.0010699 -2.05404e-19)
(-0.272088 -0.00148091 1.29347e-19)
(-0.273153 -0.00172399 -1.11578e-18)
(-0.27424 -0.00179165 -4.70441e-19)
(-0.275268 -0.00169374 1.09382e-18)
(-0.276173 -0.00145263 3.16763e-19)
(-0.276912 -0.00109421 -1.4261e-19)
(-0.277457 -0.000643905 -6.19159e-20)
(-0.277788 -0.000124159 -2.38393e-19)
(-0.277893 0.000440052 9.97464e-19)
(-0.277769 0.00103576 -3.16447e-18)
(-0.277414 0.00164745 -1.70267e-18)
(-0.27683 0.00226256 2.60556e-19)
(-0.276024 0.00287017 3.32159e-18)
(-0.275001 0.0034614 7.15942e-19)
(-0.273773 0.00402869 -4.67287e-19)
(-0.27235 0.00456549 6.02382e-19)
(-0.270745 0.00506602 -7.03917e-19)
(-0.268971 0.00552502 -5.59972e-19)
(-0.267044 0.00593769 7.27356e-18)
(-0.264978 0.00629958 2.53329e-18)
(-0.262791 0.00660675 1.92383e-18)
(-0.260501 0.00685578 -2.53091e-20)
(-0.258125 0.00704399 3.22524e-18)
(-0.255681 0.00716956 -4.12376e-18)
(-0.253188 0.00723173 1.73827e-18)
(-0.250664 0.00723083 -4.07347e-18)
(-0.248126 0.00716838 -1.92047e-18)
(-0.245592 0.00704708 2.71918e-18)
(-0.243076 0.00687069 -2.61929e-18)
(-0.240595 0.00664396 -1.44251e-19)
(-0.238161 0.00637248 -1.65722e-18)
(-0.235787 0.00606245 2.69871e-18)
(-0.233483 0.00572059 -3.2031e-19)
(-0.231259 0.0053539 -9.82583e-19)
(-0.229122 0.0049695 1.19007e-18)
(-0.227078 0.00457445 3.62634e-18)
(-0.225132 0.00417571 1.43829e-18)
(-0.223286 0.00377996 4.79339e-19)
(-0.221541 0.00339358 5.07842e-19)
(-0.219899 0.00302235 1.46632e-18)
(-0.218357 0.00267134 -8.73796e-19)
(-0.216913 0.00234521 -8.10685e-19)
(-0.215565 0.00204802 -1.54826e-19)
(-0.214306 0.0017828 -1.11005e-18)
(-0.213134 0.00155185 -2.42845e-19)
(-0.21204 0.00135668 -6.4187e-20)
(-0.21102 0.00119805 1.09018e-18)
(-0.210067 0.0010759 4.01588e-19)
(-0.209172 0.000989315 4.48243e-18)
(-0.20833 0.000936458 -3.49565e-18)
(-0.207532 0.000914768 1.45876e-18)
(-0.206771 0.000921258 -5.71771e-18)
(-0.20604 0.000952249 -4.80079e-19)
(-0.205331 0.0010032 -1.05183e-18)
(-0.204638 0.0010693 8.82786e-20)
(-0.203952 0.00114619 3.40917e-18)
(-0.203267 0.0012293 8.37819e-19)
(-0.202577 0.00131397 -1.50797e-18)
(-0.201875 0.00139576 -2.98217e-19)
(-0.201156 0.00147059 1.25793e-18)
(-0.200413 0.00153496 -7.15996e-18)
(-0.199639 0.00158622 -7.45674e-19)
(-0.198831 0.00162264 3.0102e-18)
(-0.19798 0.00164355 1.86569e-18)
(-0.197082 0.00164939 2.21812e-18)
(-0.196129 0.00164185 9.35583e-19)
(-0.195116 0.00162391 3.60087e-19)
(-0.194033 0.00159986 1.94597e-18)
(-0.192873 0.00157524 2.24026e-18)
(-0.191628 0.00155676 -1.76561e-18)
(-0.190287 0.00155235 7.94868e-19)
(-0.188839 0.00157094 1.22688e-17)
(-0.187271 0.00162244 -1.63043e-18)
(-0.18557 0.00171769 4.22796e-18)
(-0.183718 0.00186855 1.2673e-17)
(-0.1817 0.00208767 -5.72382e-18)
(-0.179495 0.00238713 -1.24382e-18)
(-0.177084 0.00278039 -8.53324e-18)
(-0.174441 0.0032815 8.81225e-18)
(-0.17154 0.00390561 -1.11289e-18)
(-0.168351 0.00467004 -1.36857e-17)
(-0.16484 0.00559502 -1.09229e-17)
(-0.16097 0.00670603 -1.80439e-17)
(-0.156698 0.00803401 -1.99552e-18)
(-0.15198 0.00962211 -5.10285e-18)
(-0.146758 0.0115236 -1.30105e-17)
(-0.140988 0.0138189 -1.92396e-17)
(-0.134582 0.0166088 -2.46377e-18)
(-0.127553 0.0200534 -7.90479e-18)
(-0.119682 0.0243465 -1.93018e-18)
(-0.11136 0.0297559 8.35639e-20)
(-0.101594 0.0367726 2.70999e-19)
(-0.0927467 0.045011 1.5948e-17)
(-0.0800079 0.0566442 1.61579e-18)
(-0.0713316 0.0640862 -2.03046e-17)
(-0.0512326 0.0744548 -4.42349e-18)
(-0.0196636 0.0431694 -8.8672e-18)
(-0.281261 -0.000124513 5.08669e-20)
(-0.281543 -0.000419385 -4.92862e-19)
(-0.282036 -0.00085014 -3.32498e-19)
(-0.28281 -0.00120264 9.2055e-22)
(-0.283704 -0.00142216 -6.49909e-19)
(-0.284628 -0.00149465 3.32365e-19)
(-0.285504 -0.00142393 6.71473e-19)
(-0.286266 -0.00122653 3.28788e-19)
(-0.286871 -0.000923389 -5.10614e-19)
(-0.287285 -0.000536095 -2.72794e-19)
(-0.287488 -8.3966e-05 3.7927e-20)
(-0.287467 0.000409127 -3.98365e-19)
(-0.287214 0.000933245 -3.67044e-18)
(-0.286728 0.00147367 -2.0154e-18)
(-0.286012 0.00201893 -1.15716e-18)
(-0.28507 0.00255882 1.57798e-18)
(-0.283911 0.00308512 -7.43321e-19)
(-0.282544 0.00359085 -1.08914e-18)
(-0.280981 0.00406995 -1.25089e-18)
(-0.279234 0.00451706 -2.03767e-18)
(-0.277318 0.00492731 -1.33756e-18)
(-0.275248 0.00529622 7.13306e-18)
(-0.273041 0.00561964 7.51344e-19)
(-0.270715 0.00589386 -3.64396e-19)
(-0.268286 0.00611564 -1.40141e-19)
(-0.265773 0.00628241 -1.13226e-19)
(-0.263195 0.0063924 -3.43179e-18)
(-0.260571 0.00644476 1.57416e-18)
(-0.257919 0.00643972 -3.40993e-18)
(-0.255257 0.00637856 -3.12489e-18)
(-0.252603 0.00626367 -4.20203e-19)
(-0.249973 0.00609848 1.25e-19)
(-0.247381 0.00588729 -1.14034e-18)
(-0.244843 0.00563524 -1.18128e-18)
(-0.24237 0.00534804 1.05348e-18)
(-0.239975 0.00503189 -1.33788e-18)
(-0.237666 0.00469329 -2.20103e-18)
(-0.235451 0.00433883 1.28767e-18)
(-0.233337 0.00397507 4.8193e-19)
(-0.231329 0.00360847 6.08943e-19)
(-0.22943 0.00324527 1.62311e-19)
(-0.227642 0.00289145 7.81137e-19)
(-0.225965 0.00255239 1.2178e-18)
(-0.224398 0.00223276 4.62141e-19)
(-0.222941 0.00193689 -1.58625e-18)
(-0.221588 0.00166865 -3.24177e-19)
(-0.220338 0.00143077 -1.19764e-18)
(-0.219184 0.00122533 1.98836e-19)
(-0.218122 0.00105367 1.41113e-19)
(-0.217144 0.000916412 2.03088e-18)
(-0.216245 0.000813509 7.70506e-19)
(-0.215418 0.000743944 1.34046e-18)
(-0.214655 0.000705874 2.98769e-19)
(-0.21395 0.000696841 4.69575e-18)
(-0.213294 0.000713851 -3.75736e-18)
(-0.212682 0.000753294 2.33004e-19)
(-0.212105 0.000810653 2.06939e-18)
(-0.211555 0.000881175 7.07177e-19)
(-0.211027 0.000960698 1.81462e-18)
(-0.210513 0.00104474 1.05539e-18)
(-0.210006 0.00112873 -6.105e-18)
(-0.209501 0.0012083 -8.81817e-19)
(-0.20899 0.00127939 4.40804e-19)
(-0.208469 0.00133851 -5.69662e-18)
(-0.20793 0.00138298 -1.82132e-19)
(-0.207368 0.001411 1.75557e-18)
(-0.206777 0.00142178 2.19328e-18)
(-0.206151 0.00141556 1.63344e-18)
(-0.205482 0.00139386 5.97592e-19)
(-0.204764 0.00135938 2.86637e-19)
(-0.203989 0.00131613 1.12862e-18)
(-0.20315 0.00126929 -2.18573e-18)
(-0.202236 0.0012251 -4.52948e-20)
(-0.201239 0.00119097 8.9822e-19)
(-0.200146 0.00117528 1.24929e-17)
(-0.198945 0.00118727 -3.47001e-19)
(-0.197621 0.00123704 1.64722e-18)
(-0.196157 0.00133588 5.11162e-18)
(-0.194535 0.00149616 -3.35195e-18)
(-0.192737 0.00172876 -1.6941e-18)
(-0.190738 0.00204622 -5.61486e-18)
(-0.188513 0.00246148 2.93545e-18)
(-0.186031 0.00298849 -7.83364e-18)
(-0.18326 0.00364311 -4.03519e-18)
(-0.180158 0.0044437 -5.06161e-18)
(-0.176683 0.00541361 -2.31829e-17)
(-0.172781 0.00658105 -4.54063e-18)
(-0.168396 0.00798501 -3.27486e-18)
(-0.163449 0.00967487 -1.01278e-17)
(-0.157872 0.0117249 -1.0785e-17)
(-0.151535 0.0142307 -1.04342e-18)
(-0.144409 0.0173397 -1.6944e-17)
(-0.136171 0.0212503 -2.47045e-18)
(-0.127129 0.0261899 2.45321e-20)
(-0.116098 0.0327164 -1.4055e-19)
(-0.105117 0.0403386 1.33052e-17)
(-0.089476 0.051335 1.51985e-18)
(-0.0756777 0.058345 -1.88768e-17)
(-0.0514801 0.0670319 -4.12065e-18)
(-0.0168437 0.0396643 -1.35249e-17)
(-0.29086 -8.67249e-05 1.26459e-19)
(-0.29106 -0.000320293 -6.15736e-19)
(-0.29145 -0.000672518 -5.76252e-19)
(-0.292085 -0.000971315 -6.1774e-20)
(-0.292836 -0.0011669 -6.32902e-19)
(-0.293621 -0.00124183 1.51353e-18)
(-0.294364 -0.00119546 6.56614e-19)
(-0.295002 -0.00103929 3.60334e-19)
(-0.295488 -0.000789654 -1.34865e-18)
(-0.295788 -0.000464385 -5.32382e-19)
(-0.29588 -8.00373e-05 3.66259e-19)
(-0.295748 0.000342872 -2.37526e-18)
(-0.295383 0.000795115 -1.74404e-18)
(-0.294784 0.00126371 -2.91423e-18)
(-0.293952 0.00173844 -2.63588e-18)
(-0.292894 0.00220987 1.16388e-18)
(-0.291616 0.00267056 -3.24302e-18)
(-0.290128 0.00311413 -2.11503e-18)
(-0.288443 0.00353502 -3.75808e-18)
(-0.286574 0.00392835 -4.42094e-18)
(-0.284535 0.00428961 -2.1884e-18)
(-0.282342 0.00461467 1.2202e-17)
(-0.280012 0.00489967 -1.95133e-18)
(-0.277564 0.00514112 -2.89964e-18)
(-0.275014 0.00533597 -1.59881e-19)
(-0.272383 0.00548174 -3.53002e-18)
(-0.269688 0.00557668 -4.98381e-18)
(-0.26695 0.00561989 2.94057e-18)
(-0.264187 0.00561146 -5.60542e-18)
(-0.261416 0.00555247 -5.81844e-18)
(-0.258657 0.00544501 -3.14707e-18)
(-0.255925 0.00529213 2.92281e-18)
(-0.253237 0.00509776 -2.92909e-18)
(-0.250607 0.00486656 -1.07999e-18)
(-0.248047 0.00460378 4.05451e-19)
(-0.245569 0.0043151 -3.56696e-18)
(-0.243184 0.00400652 -4.56487e-18)
(-0.240899 0.00368412 2.80884e-18)
(-0.238721 0.00335394 -2.63277e-18)
(-0.236657 0.00302194 1.56107e-19)
(-0.234708 0.00269388 -7.11359e-20)
(-0.232878 0.0023754 1.6488e-18)
(-0.231167 0.00207141 1.51932e-18)
(-0.229575 0.00178621 1.78581e-18)
(-0.228101 0.00152374 -3.5953e-18)
(-0.226741 0.00128765 -4.65215e-19)
(-0.225492 0.00108044 -2.02087e-18)
(-0.22435 0.000904026 1.02117e-18)
(-0.223308 0.000759604 3.72264e-19)
(-0.222362 0.000647566 4.78133e-18)
(-0.221505 0.000567435 1.17111e-18)
(-0.220731 0.000518765 -9.97844e-19)
(-0.220031 0.000498933 4.1552e-18)
(-0.2194 0.000505673 1.12675e-17)
(-0.21883 0.000536588 -5.43267e-18)
(-0.218314 0.000588189 1.65195e-18)
(-0.217844 0.000655617 6.68348e-18)
(-0.217414 0.000734216 1.55434e-18)
(-0.217016 0.000820079 1.12913e-18)
(-0.216643 0.000908796 1.66285e-18)
(-0.216289 0.000995857 -1.54283e-17)
(-0.215947 0.00107693 -1.1066e-18)
(-0.215611 0.00114799 6.63061e-20)
(-0.215275 0.00120555 -8.13153e-18)
(-0.214932 0.00124688 1.07428e-18)
(-0.214577 0.00127011 1.94649e-18)
(-0.214203 0.00127432 3.99815e-18)
(-0.213804 0.00125959 1.57925e-18)
(-0.213374 0.00122724 5.59609e-19)
(-0.212904 0.00117973 5.82148e-19)
(-0.212387 0.00112082 8.35462e-19)
(-0.211816 0.00105534 5.86034e-18)
(-0.21118 0.000989105 2.16189e-18)
(-0.210471 0.000929056 1.68231e-18)
(-0.209675 0.000883002 6.2044e-18)
(-0.208781 0.000859513 -2.41223e-18)
(-0.207773 0.000868062 2.67986e-19)
(-0.206633 0.000919221 1.12575e-18)
(-0.205343 0.00102393 -4.99347e-18)
(-0.203884 0.00119231 -3.2729e-18)
(-0.20223 0.00143657 -6.35718e-18)
(-0.200353 0.00176835 5.64031e-19)
(-0.198221 0.00219984 -2.87738e-18)
(-0.195798 0.00274493 3.52242e-18)
(-0.193038 0.0034196 -2.06028e-18)
(-0.189891 0.00424441 -2.45179e-17)
(-0.186297 0.0052443 -5.8249e-18)
(-0.182186 0.0064529 -2.21657e-18)
(-0.177463 0.00791396 -1.39553e-17)
(-0.172041 0.00969298 -8.36535e-18)
(-0.165749 0.0118769 2.38091e-18)
(-0.158522 0.0145955 -1.64919e-17)
(-0.14995 0.0180418 -1.72162e-18)
(-0.140259 0.0223956 1.10256e-18)
(-0.128105 0.0282363 1.99333e-17)
(-0.115216 0.0350151 2.05624e-17)
(-0.0970295 0.0449715 2.54004e-18)
(-0.0788793 0.0513849 -1.17609e-17)
(-0.0512632 0.0586018 -3.25367e-18)
(-0.0152794 0.035691 -8.84266e-18)
(-0.298896 -6.00391e-05 8.987e-20)
(-0.299039 -0.000243796 -6.35772e-19)
(-0.299351 -0.000528118 -7.02866e-20)
(-0.299876 -0.000778247 -6.55546e-20)
(-0.30051 -0.000950603 8.97322e-19)
(-0.301179 -0.00102666 1.67951e-18)
(-0.301811 -0.00100264 7.56937e-19)
(-0.302344 -0.000885766 3.65813e-19)
(-0.30273 -0.000688173 3.0032e-19)
(-0.302933 -0.000423987 -8.46224e-19)
(-0.30293 -0.000107228 8.98632e-19)
(-0.302704 0.000246051 -1.64425e-18)
(-0.302245 0.000626342 -6.94979e-19)
(-0.30155 0.00102276 -3.09327e-19)
(-0.300622 0.00142644 1.61958e-19)
(-0.299465 0.00182883 1.96275e-18)
(-0.298086 0.00222334 -2.53177e-18)
(-0.296498 0.00260422 1.87871e-18)
(-0.29471 0.0029665 -2.5231e-18)
(-0.292737 0.00330573 -2.81718e-18)
(-0.290594 0.0036178 -2.6782e-18)
(-0.288298 0.00389892 1.32662e-17)
(-0.285865 0.00414551 -2.74013e-18)
(-0.283314 0.00435432 -3.67973e-19)
(-0.280663 0.00452245 2.80838e-19)
(-0.277932 0.00464752 -2.83428e-18)
(-0.275139 0.00472782 -2.26896e-18)
(-0.272304 0.00476239 4.85118e-19)
(-0.269446 0.00475118 -5.68078e-18)
(-0.266585 0.00469505 -4.57383e-18)
(-0.263736 0.00459582 4.62768e-19)
(-0.260919 0.0044562 1.2654e-18)
(-0.258148 0.00427969 -5.51571e-19)
(-0.255439 0.00407052 -9.81003e-19)
(-0.252804 0.00383345 1.13587e-19)
(-0.250256 0.00357367 -1.50782e-18)
(-0.247804 0.00329668 -2.1375e-18)
(-0.245458 0.00300802 1.20576e-19)
(-0.243225 0.00271324 -9.23801e-19)
(-0.24111 0.0024178 3.06081e-19)
(-0.239117 0.00212696 -2.72256e-19)
(-0.237249 0.00184602 3.63289e-18)
(-0.235507 0.00157936 2.51704e-18)
(-0.23389 0.00133097 3.98409e-18)
(-0.232398 0.00110447 -8.63068e-19)
(-0.231028 0.000903181 -4.45051e-20)
(-0.229777 0.000729049 -4.12309e-18)
(-0.22864 0.000583719 2.83407e-18)
(-0.227613 0.000468301 1.1983e-18)
(-0.226689 0.000382787 1.82552e-18)
(-0.225863 0.000328357 1.19204e-18)
(-0.225128 0.000303266 -4.23221e-18)
(-0.224478 0.000306055 2.43943e-18)
(-0.223905 0.000333277 6.12806e-18)
(-0.223402 0.000381729 -3.76359e-18)
(-0.222962 0.00044872 5.73592e-18)
(-0.222579 0.000529689 5.36714e-18)
(-0.222245 0.000619866 1.98729e-18)
(-0.221951 0.000715451 1.3773e-18)
(-0.221693 0.000812142 2.5263e-18)
(-0.221462 0.000905509 -1.40025e-17)
(-0.221253 0.000991283 1.06119e-18)
(-0.22106 0.00106548 -2.31051e-19)
(-0.220875 0.00112459 -4.62751e-18)
(-0.220692 0.00116586 5.10074e-18)
(-0.220506 0.00118734 3.227e-18)
(-0.22031 0.001188 7.92647e-18)
(-0.220097 0.00116772 1.81049e-18)
(-0.219861 0.00112764 5.43436e-19)
(-0.219594 0.00106998 1.61337e-18)
(-0.219289 0.000998259 7.99293e-19)
(-0.218937 0.000916976 3.93707e-18)
(-0.218529 0.000831495 4.84618e-18)
(-0.218054 0.000748264 3.50204e-18)
(-0.217502 0.000674534 3.75232e-18)
(-0.216858 0.000618167 -7.35297e-18)
(-0.216107 0.000587459 -7.73913e-19)
(-0.215232 0.000592435 -2.41841e-18)
(-0.214214 0.000645927 -1.03549e-17)
(-0.213031 0.000754991 -5.79563e-18)
(-0.211657 0.000929368 -1.12319e-17)
(-0.210065 0.00117929 -7.93168e-19)
(-0.208218 0.001516 3.96113e-19)
(-0.206079 0.00195158 -4.52016e-18)
(-0.203597 0.00249959 -1.4658e-18)
(-0.200719 0.00317756 -2.36902e-17)
(-0.197375 0.00400627 -6.34304e-18)
(-0.193488 0.00501238 -1.9718e-18)
(-0.188949 0.00623251 -7.33863e-18)
(-0.183652 0.0077213 -8.74388e-18)
(-0.177394 0.00955382 9.06638e-18)
(-0.17008 0.0118373 -7.47148e-18)
(-0.161226 0.0147499 2.11748e-19)
(-0.150987 0.0184228 2.12565e-18)
(-0.137891 0.023416 3.04056e-17)
(-0.123383 0.0291688 1.80609e-17)
(-0.103056 0.0377609 1.82031e-18)
(-0.0813228 0.0433958 -1.38481e-17)
(-0.0508114 0.0493598 -2.71358e-18)
(-0.0142544 0.031125 -1.16255e-17)
(-0.305351 -4.09954e-05 9.84095e-20)
(-0.305456 -0.000183806 -5.42753e-19)
(-0.305709 -0.000409193 5.32944e-19)
(-0.306151 -0.000615422 -7.84589e-20)
(-0.306694 -0.000765822 1.32473e-18)
(-0.307271 -0.00084242 5.48526e-19)
(-0.307813 -0.000839364 1.04749e-18)
(-0.308261 -0.000760287 4.12382e-19)
(-0.308565 -0.000613524 2.02184e-18)
(-0.30869 -0.000409598 -1.73167e-18)
(-0.30861 -0.000159831 2.14488e-18)
(-0.308308 0.000125848 -2.2573e-18)
(-0.307772 0.000432623 2.7777e-19)
(-0.307 0.00075632 2.12627e-18)
(-0.305993 0.00108843 3.2891e-18)
(-0.304756 0.00142126 3.78005e-18)
(-0.303297 0.00174913 1.90992e-18)
(-0.301626 0.00206694 1.74151e-18)
(-0.299756 0.00237027 2.22797e-18)
(-0.2977 0.00265515 -2.53438e-18)
(-0.295473 0.00291787 -3.52981e-18)
(-0.293094 0.00315496 1.1091e-17)
(-0.290578 0.00336315 -2.07139e-18)
(-0.287944 0.00353938 2.55258e-18)
(-0.285212 0.00368093 9.04229e-19)
(-0.2824 0.00378553 -4.42456e-18)
(-0.279528 0.00385146 -3.84036e-19)
(-0.276615 0.00387775 -1.2448e-18)
(-0.273681 0.00386418 -3.3897e-18)
(-0.270745 0.00381142 -5.1759e-18)
(-0.267825 0.00372102 -1.22415e-18)
(-0.264938 0.00359532 3.35747e-19)
(-0.2621 0.00343744 8.98477e-19)
(-0.259327 0.00325117 -1.52407e-18)
(-0.256631 0.00304078 -2.30617e-20)
(-0.254025 0.00281096 -6.17639e-19)
(-0.251519 0.00256674 -1.0097e-18)
(-0.249123 0.0023131 -2.01988e-18)
(-0.246843 0.00205508 1.37302e-19)
(-0.244686 0.00179767 7.82552e-19)
(-0.242655 0.00154561 -6.0815e-19)
(-0.240754 0.00130406 8.74126e-19)
(-0.238984 0.00107666 4.68963e-18)
(-0.237345 0.000866781 9.46485e-19)
(-0.235836 0.000677531 3.35801e-19)
(-0.234455 0.000513858 3.13999e-19)
(-0.233199 0.000377028 -8.86925e-18)
(-0.232064 0.000267872 -7.03786e-19)
(-0.231045 0.000187391 2.28709e-18)
(-0.230136 0.000135605 -7.66415e-20)
(-0.229332 0.000110494 1.36207e-18)
(-0.228625 0.000110408 -1.0634e-17)
(-0.228011 0.000133993 3.66051e-18)
(-0.227482 0.000179811 4.70458e-18)
(-0.22703 0.000247883 -5.75358e-18)
(-0.226649 0.000332994 5.2608e-18)
(-0.226332 0.00042929 7.23598e-18)
(-0.226072 0.000532895 2.51095e-18)
(-0.225861 0.000640402 2.30535e-18)
(-0.225692 0.000747457 4.49661e-18)
(-0.225558 0.000849613 -1.25426e-17)
(-0.225454 0.000942618 -3.92899e-18)
(-0.225372 0.0010225 -9.12401e-19)
(-0.225306 0.00108571 -4.56981e-18)
(-0.22525 0.00112945 1.48088e-18)
(-0.225197 0.00115173 6.06539e-18)
(-0.225141 0.00115137 4.08608e-18)
(-0.225076 0.00112808 1.29642e-18)
(-0.224994 0.00108284 7.63551e-19)
(-0.224887 0.00101761 4.11489e-18)
(-0.224748 0.000935758 8.25995e-19)
(-0.224569 0.000841475 4.88713e-18)
(-0.22434 0.000739741 1.01874e-17)
(-0.22405 0.000636584 6.60817e-18)
(-0.223689 0.00053874 3.49188e-18)
(-0.223243 0.000453391 -3.26866e-18)
(-0.222695 0.000388694 -7.04311e-19)
(-0.222027 0.000353801 -7.68632e-18)
(-0.22122 0.000355045 -5.92766e-18)
(-0.220255 0.00040141 -1.00543e-17)
(-0.219103 0.000506461 -2.27958e-17)
(-0.217734 0.000678109 4.74009e-20)
(-0.216112 0.000923892 4.56226e-18)
(-0.214196 0.00125317 3.05998e-18)
(-0.211934 0.00167618 -1.59222e-18)
(-0.209267 0.00220549 -2.0138e-17)
(-0.206122 0.00285745 -6.70566e-18)
(-0.202413 0.00365358 -1.89661e-18)
(-0.19802 0.00462261 -5.61788e-18)
(-0.192824 0.00580658 -1.4083e-17)
(-0.186597 0.00726586 1.97756e-18)
(-0.179218 0.00908242 -5.62438e-18)
(-0.170143 0.0114098 3.51326e-18)
(-0.159472 0.0143331 3.55446e-18)
(-0.145634 0.0183504 1.97973e-17)
(-0.129829 0.0229398 2.28716e-17)
(-0.107788 0.0299079 1.28295e-18)
(-0.0832145 0.034579 -5.95163e-18)
(-0.0502623 0.039411 -1.03417e-18)
(-0.0134603 0.025856 -4.692e-18)
(-0.310211 -2.70763e-05 1.66583e-19)
(-0.31029 -0.000135426 -2.26811e-19)
(-0.310504 -0.000308948 6.76022e-19)
(-0.310885 -0.000475323 -1.7529e-19)
(-0.31136 -0.000605134 8.96368e-19)
(-0.311868 -0.000682079 -4.90414e-19)
(-0.312343 -0.000699045 1.90396e-18)
(-0.312726 -0.000656652 6.0942e-19)
(-0.312968 -0.000559768 1.40822e-18)
(-0.313033 -0.00041549 -3.21052e-19)
(-0.312895 -0.000232277 9.42225e-19)
(-0.312535 -1.52354e-05 -5.37492e-19)
(-0.311942 0.000220047 2.17177e-18)
(-0.311111 0.000469028 1.31963e-18)
(-0.310044 0.000729837 3.13535e-18)
(-0.308747 0.000993172 1.93149e-18)
(-0.307226 0.00125417 9.45392e-19)
(-0.305493 0.0015086 2.50011e-18)
(-0.30356 0.0017527 1.70932e-18)
(-0.301441 0.00198298 -4.81803e-18)
(-0.299151 0.00219616 -5.52314e-18)
(-0.296709 0.00238911 4.41896e-18)
(-0.29413 0.00255883 9.41412e-19)
(-0.291435 0.00270249 1.25105e-18)
(-0.288641 0.00281753 1.30214e-18)
(-0.285768 0.00290176 -2.79739e-18)
(-0.282837 0.00295351 -4.40834e-18)
(-0.279866 0.00297173 -4.02396e-18)
(-0.276876 0.00295608 -3.33894e-18)
(-0.273884 0.00290704 -1.57539e-18)
(-0.27091 0.00282585 -2.50458e-18)
(-0.267971 0.00271454 1.22746e-19)
(-0.265083 0.00257583 -4.14784e-18)
(-0.26226 0.00241305 -3.12837e-18)
(-0.259518 0.00223003 2.45381e-19)
(-0.256868 0.00203094 -1.67054e-19)
(-0.25432 0.00182038 -4.58097e-19)
(-0.251885 0.00160278 -5.38282e-18)
(-0.249569 0.00138259 -5.22722e-18)
(-0.247379 0.00116421 1.69617e-18)
(-0.245319 0.000951699 -1.47731e-18)
(-0.243391 0.000750948 -1.03165e-18)
(-0.241598 0.000565294 2.55682e-18)
(-0.239941 0.000397593 -2.49756e-18)
(-0.238417 0.000251163 1.43667e-18)
(-0.237025 0.000124501 6.57395e-19)
(-0.235762 2.19305e-05 -3.96896e-18)
(-0.234626 -5.37e-05 -2.56956e-18)
(-0.23361 -0.000101645 -3.32669e-18)
(-0.23271 -0.000122242 -2.55548e-18)
(-0.231921 -0.000117729 2.4907e-18)
(-0.231236 -8.96307e-05 -7.20576e-18)
(-0.230647 -3.88163e-05 1.06737e-18)
(-0.230148 3.37572e-05 -3.73512e-18)
(-0.229731 0.00012072 -3.1978e-18)
(-0.229393 0.000224789 1.77062e-19)
(-0.229125 0.000340429 2.89904e-18)
(-0.228919 0.000461268 3.37689e-18)
(-0.228767 0.000583821 4.33316e-18)
(-0.228664 0.000704014 -1.61034e-18)
(-0.228602 0.000817519 -1.01446e-17)
(-0.228575 0.000920161 -9.01082e-18)
(-0.228576 0.00100799 -1.6087e-18)
(-0.228598 0.00107746 -7.32585e-18)
(-0.228637 0.0011257 -4.46737e-20)
(-0.228683 0.00115066 1.21621e-18)
(-0.228732 0.00115106 1.74387e-18)
(-0.228777 0.00112638 6.73933e-19)
(-0.228809 0.00107741 1.32625e-18)
(-0.228821 0.00100589 9.38539e-18)
(-0.228806 0.000914994 2.96357e-19)
(-0.228755 0.000808595 9.74892e-18)
(-0.228659 0.000691236 7.10628e-18)
(-0.228506 0.000568489 1.23918e-17)
(-0.228287 0.000446682 4.38795e-18)
(-0.227986 0.000332491 -2.36116e-18)
(-0.227588 0.000231657 -7.83815e-19)
(-0.227075 0.000153251 -1.75922e-18)
(-0.226428 0.000114697 -3.96716e-18)
(-0.225622 0.000114863 -3.8615e-18)
(-0.224631 0.000155367 -1.36834e-17)
(-0.223427 0.000245443 5.2844e-18)
(-0.221971 0.000395162 1.19115e-17)
(-0.220221 0.000611856 1.14927e-17)
(-0.218124 0.000902748 -4.27739e-18)
(-0.215616 0.00128086 -3.1041e-17)
(-0.212619 0.00176157 -7.12341e-18)
(-0.209045 0.00235116 -1.97846e-18)
(-0.204763 0.00306881 -6.63235e-18)
(-0.199647 0.00394353 -7.395e-18)
(-0.193447 0.00501931 -1.6279e-19)
(-0.186027 0.00635167 -7.49453e-18)
(-0.176796 0.00806181 1.03607e-17)
(-0.165814 0.0101913 6.85215e-18)
(-0.151434 0.0131369 2.2789e-17)
(-0.13467 0.0164695 1.968e-17)
(-0.111346 0.0216098 -1.88983e-18)
(-0.0846503 0.025141 -2.89474e-18)
(-0.0497188 0.0288295 -4.13448e-20)
(-0.012796 0.0198016 -2.2271e-18)
(-0.313466 -1.63435e-05 1.7338e-19)
(-0.31353 -9.47031e-05 -4.84647e-20)
(-0.313717 -0.000221557 2.94126e-19)
(-0.314058 -0.000351291 -4.99631e-19)
(-0.314489 -0.000461878 1.12115e-18)
(-0.314951 -0.000539218 3.50203e-19)
(-0.315381 -0.000575613 1.53684e-18)
(-0.31572 -0.000569115 8.27883e-19)
(-0.31592 -0.000521349 1.53122e-18)
(-0.315944 -0.000436127 5.89307e-19)
(-0.315766 -0.000319031 3.81394e-19)
(-0.315367 -0.00017332 6.4792e-19)
(-0.314736 -6.12572e-06 1.13389e-18)
(-0.313864 0.000174885 1.0533e-18)
(-0.312756 0.000360846 -4.25255e-19)
(-0.311418 0.000552459 5.93997e-19)
(-0.309856 0.000745346 3.19614e-19)
(-0.308081 0.000935491 4.79553e-18)
(-0.306105 0.00111972 1.55043e-18)
(-0.303943 0.00129499 -4.9111e-18)
(-0.301612 0.00145836 -3.4365e-18)
(-0.299127 0.00160701 2.43182e-18)
(-0.296507 0.0017382 3.44596e-18)
(-0.29377 0.00184929 6.55651e-19)
(-0.290936 0.00193788 1.89268e-18)
(-0.288024 0.00200185 -3.63424e-18)