/*--------------------------------*- C++ -*----------------------------------*\
  =========                 |
  \\      /  F ield         | OpenFOAM: The Open Source CFD Toolbox
   \\    /   O peration     | Website:  https://openfoam.org
    \\  /    A nd           | Version:  7
     \\/     M anipulation  |
\*---------------------------------------------------------------------------*/
FoamFile
{
    version     2.0;
    format      ascii;
    class       volVectorField;
    location    "70";
    object      U;
}
// * * * * * * * * * * * * * * * * * * * * * * * * * * * * * * * * * * * * * //

dimensions      [0 1 -1 0 0 0 0];

internalField   nonuniform List<vector> 
175
(
(-0.224364 0.0029226 -4.43572e-21)
(-0.222689 0.00255084 8.26819e-19)
(-0.221224 0.00220017 7.90243e-19)
(-0.219955 0.0018741 2.86562e-18)
(-0.218864 0.00157537 -1.96432e-18)
(-0.217931 0.00130588 -8.31631e-19)
(-0.217137 0.00106671 -4.24706e-19)
(-0.216464 0.000858097 2.22951e-18)
(-0.21589 0.000679395 1.40559e-18)
(-0.215398 0.000529569 2.82179e-18)
(-0.214971 0.000406995 2.68916e-18)
(-0.21459 0.000309822 1.07503e-18)
(-0.214241 0.000236186 1.37712e-18)
(-0.21391 0.000184285 5.32953e-19)
(-0.213583 0.000152516 2.68683e-19)
(-0.213248 0.0001396 4.00037e-19)
(-0.212893 0.000144684 -2.97991e-19)
(-0.226621 0.00263133 2.61094e-19)
(-0.22493 0.002296 1.49896e-18)
(-0.223458 0.00197924 9.52211e-19)
(-0.222188 0.00168421 1.98405e-18)
(-0.221104 0.00141343 -3.24767e-18)
(-0.220186 0.00116864 -5.73759e-19)
(-0.219416 0.000950842 1.44246e-19)
(-0.218773 0.000760303 1.36054e-18)
(-0.218237 0.000596469 2.2558e-18)
(-0.217791 0.000458475 2.28455e-18)
(-0.217415 0.000344891 2.18687e-18)
(-0.217093 0.000254076 1.43872e-18)
(-0.216809 0.000184399 2.3495e-18)
(-0.216549 0.000134272 7.92885e-19)
(-0.216298 0.000102261 -2.67167e-19)
(-0.216044 8.71877e-05 7.81681e-19)
(-0.215776 8.82308e-05 -7.84387e-19)
(-0.228627 0.00233368 6.43519e-19)
(-0.226922 0.002036 5.08496e-19)
(-0.225442 0.00175451 1.24126e-18)
(-0.22417 0.00149202 1.40253e-18)
(-0.223091 0.00125078 -3.53086e-18)
(-0.222186 0.00103236 -1.96698e-19)
(-0.221435 0.000837677 -9.26366e-19)
(-0.220818 0.000667003 8.01339e-19)
(-0.220315 0.000519845 1.88918e-18)
(-0.219908 0.000395488 2.1061e-18)
(-0.219577 0.000292671 1.95676e-18)
(-0.219306 0.000209932 1.95218e-18)
(-0.219079 0.00014584 2.3455e-18)
(-0.218881 9.89817e-05 1.07474e-18)
(-0.218697 6.80546e-05 3.70606e-19)
(-0.218515 5.19343e-05 1.36645e-18)
(-0.218323 4.97895e-05 -1.50737e-18)
(-0.230384 0.00203424 1.06602e-18)
(-0.228665 0.00177529 -3.96622e-19)
(-0.227176 0.00153019 1.72698e-18)
(-0.225903 0.00130139 1.01575e-18)
(-0.224827 0.00109085 -2.77868e-18)
(-0.223932 0.000899939 3.46333e-19)
(-0.223196 0.00072948 -2.13776e-18)
(-0.222601 0.000579712 4.11973e-19)
(-0.222127 0.000450186 1.83277e-18)
(-0.221753 0.000340325 2.25371e-18)
(-0.221461 0.000249025 1.95099e-18)
(-0.221235 0.000175 1.26759e-18)
(-0.221056 0.000117035 2.67197e-18)
(-0.220911 7.39327e-05 1.38454e-18)
(-0.220785 4.4604e-05 9.89482e-19)
(-0.220666 2.80749e-05 2.09734e-18)
(-0.22054 2.35415e-05 -1.38406e-18)
(-0.23189 0.0017319 1.58278e-18)
(-0.230158 0.00151254 4.56812e-19)
(-0.228662 0.00130473 7.19186e-19)
(-0.227386 0.00111055 2.50114e-18)
(-0.226313 0.000931636 -2.59297e-18)
(-0.225425 0.000769164 1.1574e-18)
(-0.224703 0.000623834 -2.01586e-18)
(-0.224126 0.000495852 2.81968e-19)
(-0.223675 0.000384803 4.70201e-19)
(-0.223329 0.000290249 2.66522e-18)
(-0.22307 0.000211246 6.89713e-19)
(-0.222881 0.00014669 6.9706e-19)
(-0.222744 9.55901e-05 2.05615e-18)
(-0.222644 5.69766e-05 1.77252e-18)
(-0.222568 2.9989e-05 1.76793e-18)
(-0.222501 1.38494e-05 3.22194e-18)
(-0.222431 7.66877e-06 -5.28633e-19)
(-0.233145 0.00142637 2.40163e-18)
(-0.231403 0.00124733 1.25133e-18)
(-0.229899 0.00107761 -1.18637e-19)
(-0.22862 0.000918857 2.5224e-18)
(-0.227549 0.000772424 -1.26608e-18)
(-0.226668 0.000639254 4.90699e-19)
(-0.225956 0.000519915 -6.12181e-19)
(-0.225394 0.000414576 3.81995e-19)
(-0.224961 0.000322835 8.09448e-19)
(-0.224639 0.000244391 3.60965e-18)
(-0.224407 0.000178456 -5.75016e-19)
(-0.224248 0.00012409 2.37139e-19)
(-0.224145 8.05153e-05 3.18816e-18)
(-0.224083 4.69721e-05 1.13146e-18)
(-0.224047 2.28159e-05 1.49221e-18)
(-0.224024 7.52458e-06 3.60975e-18)
(-0.224001 6.22862e-07 -4.64685e-20)
(-0.234149 0.00111806 1.68123e-18)
(-0.232398 0.000979983 3.10694e-19)
(-0.230888 0.000849008 -1.08049e-18)
(-0.229607 0.000726402 1.20738e-18)
(-0.228537 0.000613175 -2.26292e-19)
(-0.22766 0.000510034 3.26145e-20)
(-0.226956 0.000417408 6.0543e-19)
(-0.226406 0.000335413 6.06511e-19)
(-0.225988 0.000263657 1.30501e-18)
(-0.225684 0.000201967 3.60129e-18)
(-0.225473 0.000149691 -6.24508e-19)
(-0.225339 0.000106062 -1.34522e-19)
(-0.225263 7.0513e-05 3.59121e-18)
(-0.225231 4.24946e-05 4.97448e-19)
(-0.225227 2.15724e-05 1.8974e-19)
(-0.225238 7.44785e-06 3.45179e-18)
(-0.225252 7.39243e-08 3.18097e-19)
(-0.234902 0.000807378 1.1058e-18)
(-0.233143 0.000710782 -7.62125e-19)
(-0.23163 0.00061912 -2.24029e-18)
(-0.230346 0.000533244 2.06204e-18)
(-0.229277 0.000453822 6.852e-19)
(-0.228403 0.000381308 -4.50339e-19)
(-0.227705 0.000315981 1.92229e-18)
(-0.227163 0.000257882 8.39312e-19)
(-0.226757 0.000206651 4.18104e-19)
(-0.226466 0.000162218 2.6421e-18)
(-0.226271 0.00012406 -1.0457e-18)
(-0.226155 9.1572e-05 -4.64917e-19)
(-0.2261 6.43931e-05 3.24561e-18)
(-0.226089 4.21669e-05 -3.43934e-19)
(-0.226109 2.46353e-05 -1.09482e-18)
(-0.226146 1.16131e-05 2.68257e-18)
(-0.226188 2.97085e-06 5.17022e-19)
(-0.235403 0.000494465 5.8115e-19)
(-0.23364 0.000439696 -2.12761e-18)
(-0.232123 0.000387736 -1.87203e-18)
(-0.230839 0.000339009 3.4751e-18)
(-0.22977 0.000293839 -1.83264e-19)
(-0.228898 0.000252421 -1.01236e-18)
(-0.228204 0.000214884 1.92775e-18)
(-0.227668 0.000181205 1.20125e-18)
(-0.227269 0.000150866 -4.07066e-19)
(-0.226987 0.000123991 2.17249e-18)
(-0.226803 0.000100462 -2.83703e-19)
(-0.226698 7.95505e-05 -7.81692e-19)
(-0.226656 6.12019e-05 3.55901e-18)
(-0.226661 4.52631e-05 -4.74544e-20)
(-0.226697 3.16665e-05 -1.27486e-18)
(-0.226751 2.03818e-05 2.51505e-18)
(-0.226811 1.14149e-05 5.8586e-19)
(-0.235653 0.000180299 2.08763e-18)
(-0.233888 0.00016757 -3.84794e-18)
(-0.23237 0.000155467 -1.70612e-18)
(-0.231084 0.000143993 3.80359e-18)
(-0.230016 0.000133135 -1.40121e-18)
(-0.229145 0.000122839 3.99249e-20)
(-0.228453 0.000113111 5.91712e-19)
(-0.22792 0.000103949 1.68721e-18)
(-0.227524 9.44758e-05 -1.38405e-18)
(-0.227247 8.54647e-05 2.06914e-18)
(-0.227068 7.61738e-05 2.36226e-19)
(-0.22697 6.6795e-05 -1.21784e-18)
(-0.226935 5.71754e-05 3.21841e-18)
(-0.226946 4.73962e-05 -6.61358e-20)
(-0.226991 3.75982e-05 -3.29684e-19)
(-0.227053 2.79362e-05 2.92413e-18)
(-0.227122 1.85808e-05 6.16694e-19)
(-0.211517 0.00027613 5.75217e-19)
(-0.211108 0.00022394 3.67002e-19)
(-0.210697 0.000193598 8.57757e-19)
(-0.210272 0.000183644 1.17891e-19)
(-0.209821 0.000193124 7.32234e-20)
)
;

boundaryField
{
    inlet
    {
        type            uniformFixedValue;
        uniformValue    constant (1 0 0);
        value           nonuniform 0();
    }
    outlet
    {
        type            pressureInletOutletVelocity;
        value           nonuniform 0();
    }
    polygon
    {
        type            fixedValue;
        value           nonuniform 0();
    }
    top
    {
        type            symmetryPlane;
    }
    bottom
    {
        type            symmetryPlane;
    }
    outside
    {
        type            zeroGradient;
    }
    procBoundary36to28
    {
        type            processor;
        value           nonuniform List<vector> 
17
(
(-0.235653 -0.000127045 1.98747e-18)
(-0.233887 -9.67187e-05 -4.55829e-18)
(-0.232369 -6.80942e-05 -1.57349e-18)
(-0.231084 -4.16047e-05 3.07786e-18)
(-0.230015 -1.76373e-05 -1.35255e-18)
(-0.229144 3.44056e-06 -6.16688e-19)
(-0.228452 2.13147e-05 -6.23275e-19)
(-0.227919 3.52786e-05 7.41016e-19)
(-0.227524 4.89998e-05 -1.10367e-18)
(-0.227247 6.01992e-05 9.20607e-19)
(-0.227068 6.58222e-05 6.9339e-19)
(-0.22697 6.8895e-05 -1.8575e-18)
(-0.226935 6.87343e-05 2.11414e-18)
(-0.226947 6.56612e-05 -2.70782e-19)
(-0.226991 6.00195e-05 4.90132e-19)
(-0.227054 5.20759e-05 2.70378e-18)
(-0.227123 4.20251e-05 5.79852e-19)
)
;
    }
    procBoundary36to35
    {
        type            processor;
        value           nonuniform List<vector> 9((-0.215482 0.000105169 1.52126e-18) (-0.21811 6.14469e-05 1.87884e-18) (-0.220396 3.08073e-05 1.61376e-18) (-0.222347 1.11012e-05 1.77248e-18) (-0.223965 1.03445e-06 2.32567e-18) (-0.225256 -1.63111e-06 2.29004e-18) (-0.226221 -1.2511e-06 1.61626e-18) (-0.226864 5.25037e-06 1.20922e-18) (-0.227185 1.00037e-05 1.00201e-18));
    }
    procBoundary36to37
    {
        type            processor;
        value           nonuniform List<vector> 10((-0.226263 0.0033113 -1.65708e-19) (-0.228542 0.00298149 2.08811e-19) (-0.23057 0.00264423 7.44956e-19) (-0.232346 0.00230415 1.4348e-18) (-0.233869 0.00196039 4.91434e-19) (-0.235138 0.00161274 1.49597e-18) (-0.236154 0.00126174 2.68883e-18) (-0.236916 0.000907905 2.27406e-18) (-0.237424 0.000551527 2.40544e-19) (-0.237677 0.000193619 1.09156e-19));
    }
    procBoundary36to43
    {
        type            processor;
        value           nonuniform List<vector> 2((-0.212507 0.000167503 1.51823e-18) (-0.209335 0.000221745 8.03459e-19));
    }
    procBoundary36to44
    {
        type            processor;
        value           nonuniform List<vector> 
18
(
(-0.222004 0.00317173 -2.76211e-19)
(-0.220343 0.00276642 3.63479e-19)
(-0.218884 0.00238477 7.3065e-19)
(-0.217612 0.00203059 2.42032e-18)
(-0.21651 0.00170681 -1.25452e-18)
(-0.215558 0.00141546 -1.14507e-18)
(-0.214737 0.00115765 -1.02145e-18)
(-0.214028 0.000933552 1.86293e-18)
(-0.213411 0.000742429 7.14923e-19)
(-0.212869 0.000583057 2.20548e-18)
(-0.212383 0.000453607 2.01556e-18)
(-0.211937 0.000352003 7.97397e-19)
(-0.208646 0.000337598 5.78118e-19)
(-0.20815 0.00028675 1.41527e-19)
(-0.207645 0.000259414 9.10683e-19)
(-0.20712 0.000254096 -2.22847e-19)
(-0.206563 0.000269836 -3.51169e-20)
(-0.211937 0.000352003 7.97397e-19)
)
;
    }
}


// ************************************************************************* //
