/*--------------------------------*- C++ -*----------------------------------*\
  =========                 |
  \\      /  F ield         | OpenFOAM: The Open Source CFD Toolbox
   \\    /   O peration     | Website:  https://openfoam.org
    \\  /    A nd           | Version:  7
     \\/     M anipulation  |
\*---------------------------------------------------------------------------*/
FoamFile
{
    version     2.0;
    format      ascii;
    class       surfaceScalarField;
    location    "54";
    object      phi;
}
// * * * * * * * * * * * * * * * * * * * * * * * * * * * * * * * * * * * * * //

dimensions      [0 3 -1 0 0 0 0];

internalField   nonuniform List<scalar> 
205
(
0.000731652
-6.53499e-05
7.03875e-05
0.000727302
-5.31455e-05
5.74954e-05
0.000723446
-4.27244e-05
4.65809e-05
0.000719911
-3.39919e-05
3.75271e-05
0.000716552
-2.68195e-05
3.01784e-05
0.000713249
2.43621e-05
0.000709906
1.98914e-05
0.000706449
1.65745e-05
0.000702822
1.4229e-05
0.000698982
1.26893e-05
0.000694898
1.1809e-05
0.000690548
1.14672e-05
0.000685914
1.15642e-05
0.000680978
1.20191e-05
0.000675723
1.27698e-05
1.37773e-05
0.000768313
0.000763735
0.00075986
0.000756505
-0.000373872
-0.000142442
-0.000432865
-0.000145649
-0.000495244
-0.000150154
-0.000560987
-0.000155739
-0.000630103
-0.000162229
-0.000702628
-0.000169492
-0.000778625
-0.00017743
-0.000858173
-0.000185979
-0.000941372
-0.0001951
-0.000204777
0.000333741
-0.000144547
0.000307687
-0.000130192
0.00027841
-0.0001191
0.000245963
-0.00011097
0.000210423
-0.000105469
0.000171882
-0.000102254
0.000130429
-0.000100989
8.61451e-05
-0.000101364
3.90904e-05
-0.000103099
-1.06963e-05
-0.000105952
-6.31995e-05
-0.000109726
-0.000118429
-0.000114263
-0.000176416
-0.000119444
-0.00023721
-0.000125185
-0.000300879
-0.00013143
-0.000138151
0.00069985
-0.000127868
0.000681123
-0.000111465
0.000660212
-9.8189e-05
0.000637042
-8.78003e-05
0.000611586
-8.00136e-05
0.000583851
-7.45188e-05
0.000553866
-7.10042e-05
0.00052167
-6.91689e-05
0.000487302
-6.87311e-05
0.000450792
-6.94421e-05
0.000412158
-7.10918e-05
0.000371404
-7.35079e-05
0.000328516
-7.65561e-05
0.000283467
-8.01358e-05
0.000236214
-8.41767e-05
0.000186698
-8.8635e-05
-9.34892e-05
0.00101095
-0.000114091
0.000996411
-9.69292e-05
0.000980849
-8.26276e-05
0.00096406
-7.10114e-05
0.000945898
-6.18515e-05
0.000926264
-5.48842e-05
0.000905099
-4.98398e-05
0.000882379
-4.64491e-05
0.000858091
-4.44432e-05
0.00083223
-4.3581e-05
0.000804795
-4.3656e-05
0.000775779
-4.44927e-05
0.000745174
-4.59505e-05
0.000712958
-4.79197e-05
0.0006791
-5.03194e-05
0.00064356
-5.30953e-05
-5.62163e-05
0.00127386
-0.000100535
0.00126082
-8.38935e-05
0.00124794
-6.97464e-05
0.00123491
-5.79755e-05
0.00122146
-4.84072e-05
0.0012074
-4.08205e-05
0.00119257
-3.50081e-05
0.00117686
-3.07421e-05
0.0011602
-2.77808e-05
0.00114253
-2.59078e-05
0.0011238
-2.49304e-05
0.00110399
-2.46825e-05
0.00108307
-2.50284e-05
0.00106101
-2.58583e-05
0.00103777
-2.70876e-05
0.00101334
-2.86563e-05
-3.05275e-05
0.00149291
0.00147941
0.00146715
0.00145576
0.00144488
0.00143424
0.00142359
0.00141274
0.00140153
0.00138986
0.00137761
0.00136474
0.00135118
0.00133689
0.00132182
0.00130593
)
;

boundaryField
{
    inlet
    {
        type            calculated;
        value           nonuniform 0();
    }
    outlet
    {
        type            calculated;
        value           nonuniform 0();
    }
    polygon
    {
        type            calculated;
        value           nonuniform 0();
    }
    top
    {
        type            symmetryPlane;
        value           uniform 0;
    }
    bottom
    {
        type            symmetryPlane;
        value           uniform 0;
    }
    outside
    {
        type            calculated;
        value           nonuniform 0();
    }
    procBoundary44to36
    {
        type            processor;
        value           nonuniform List<scalar> 
17
(
-5.98665e-05
-4.85675e-05
-3.88492e-05
-3.0637e-05
-2.3826e-05
-2.10594e-05
-1.65486e-05
-1.31173e-05
-1.06015e-05
-8.84934e-06
-7.72529e-06
-7.11743e-06
-6.93003e-06
-7.08336e-06
-7.51488e-06
-8.18447e-06
0.000753512
)
;
    }
    procBoundary44to37
    {
        type            processor;
        value           uniform -0.000773797;
    }
    procBoundary44to43
    {
        type            processor;
        value           nonuniform List<scalar> 8(0.000670131 -0.00102833 -0.000367506 0.000145335 0.000134852 0.000606288 0.000987647 0.00128918);
    }
    procBoundary44to45
    {
        type            processor;
        value           nonuniform List<scalar> 7(-0.00073669 -8.53323e-05 -0.000356565 -0.000716529 -0.00102472 -0.00128742 -0.00150811);
    }
    procBoundary44to52
    {
        type            processor;
        value           nonuniform List<scalar> 
17
(
0.000197996
0.000204642
0.000212532
0.000221482
0.000231345
0.000242018
0.000253427
0.000265527
0.000278299
0.000291739
0.000167372
0.000156246
0.000148377
0.000143418
0.000141009
0.000318318
0.000140795
)
;
    }
}


// ************************************************************************* //
