/*--------------------------------*- C++ -*----------------------------------*\
  =========                 |
  \\      /  F ield         | OpenFOAM: The Open Source CFD Toolbox
   \\    /   O peration     | Website:  https://openfoam.org
    \\  /    A nd           | Version:  7
     \\/     M anipulation  |
\*---------------------------------------------------------------------------*/
FoamFile
{
    version     2.0;
    format      ascii;
    class       surfaceScalarField;
    location    "5";
    object      phi;
}
// * * * * * * * * * * * * * * * * * * * * * * * * * * * * * * * * * * * * * //

dimensions      [0 3 -1 0 0 0 0];

internalField   nonuniform List<scalar> 
415
(
-0.000972433
4.1626e-05
-4.29436e-05
-0.000968802
0.000111968
-0.000115599
-0.00095777
0.000345722
-0.000356754
-0.000940478
0.000539584
-0.000556877
-0.000894584
0.0014648
-0.0015107
-0.000833336
0.00200569
-0.00206694
-0.000714696
0.00395722
-0.00407586
-0.000599165
0.00393879
-0.00405432
0.00568209
-0.0059355
-0.000972426
4.0305e-05
-0.000968792
0.000108334
-0.000957736
0.000334666
-0.000940385
0.000522233
-0.000894285
0.0014187
-0.000832539
0.00194395
-0.00071282
0.0038375
-0.000595782
0.00382175
0.00543324
-0.000972421
3.89809e-05
-0.000968783
0.000104696
-0.000957704
0.000323587
-0.000940304
0.000504833
-0.000894007
0.00137241
-0.000831801
0.00188174
-0.000711048
0.00371675
-0.000592606
0.00370331
0.005189
-0.000972415
3.7654e-05
-0.000968775
0.000101056
-0.000957675
0.000312487
-0.000940232
0.00048739
-0.000893752
0.00132593
-0.000831115
0.00181911
-0.000709385
0.00359502
-0.00058963
0.00358356
-0.00097241
3.63243e-05
-0.000968768
-0.000957649
-0.000940168
-0.000893519
-0.000830481
-0.000707831
-0.000852387
5.33436e-05
-5.44813e-05
-0.000849166
0.000144743
-0.000147964
-0.000839586
0.000444374
-0.000453954
-0.000824406
0.000695645
-0.000710826
-0.000785434
0.00187256
-0.00191153
-0.000734453
0.00254577
-0.00259676
-0.000639688
0.00498319
-0.00507796
-0.000549733
0.0049229
-0.00501285
0.00818215
-0.00844919
-0.00085238
5.22012e-05
-0.000849159
0.000141522
-0.000839525
0.00043474
-0.000824339
0.00068046
-0.000784988
0.00183321
-0.000733733
0.00249452
-0.000637352
0.00488681
-0.000546678
0.00483222
0.00791748
-0.000852373
5.10551e-05
-0.000849147
0.000138296
-0.000839484
0.000425078
-0.000824231
0.000665206
-0.000784646
0.00179362
-0.000732867
0.00244274
-0.000635315
0.00478926
-0.000543131
0.00474004
0.00765645
-0.000852367
4.99056e-05
-0.000849135
0.000135064
-0.000839445
0.000415388
-0.000824128
0.000649889
-0.000784317
0.00175381
-0.000732028
0.00239045
-0.000633327
0.00469056
-0.000539635
0.00464635
0.00739916
-0.000852361
4.87527e-05
-0.000849125
0.000131828
-0.000839409
0.000405672
-0.000824032
0.000634513
-0.000784003
0.00171378
-0.000731221
0.00233767
-0.000631397
0.00459073
-0.000536228
0.00455118
0.00714563
-0.000852355
4.75966e-05
-0.000849115
0.000128589
-0.000839375
0.000395931
-0.000823943
0.000619081
-0.000783705
0.00167354
-0.000730445
0.00228441
-0.000629528
0.00448982
-0.000532914
0.00445457
0.00689588
-0.000852349
4.64375e-05
-0.000849106
0.000125345
-0.000839342
0.000386167
-0.000823859
0.000603597
-0.000783421
0.00163311
-0.000729702
0.00223069
-0.000627722
0.00438784
-0.000529694
0.00435654
0.00664994
-0.000852344
4.52755e-05
-0.000849098
0.000122099
-0.000839313
0.000376382
-0.000823782
0.000588066
-0.000783154
0.00159248
-0.000728991
0.00217653
-0.000625981
0.00428483
-0.000526572
0.00425713
0.00640786
-0.000852339
4.41108e-05
-0.00084909
0.00011885
-0.000839285
0.000366577
-0.000823711
0.000572492
-0.000782903
0.00155167
-0.000728315
0.00212194
-0.000624307
0.00418082
-0.000523556
0.00415638
0.0061697
-0.000852334
-0.000849083
-0.00083926
-0.000823645
-0.00078267
-0.000727672
-0.000622711
-0.000520654
-0.0185733
0.000135351
-0.018571
0.000447331
-0.0185622
0.0010189
-0.0185019
0.00205977
-0.0184173
0.00398199
-0.0181777
0.00619484
-0.018036
0.00884386
-0.017776
0.00817792
0.00802228
-0.018571
0.000136333
-0.0185664
0.000442747
-0.0185527
0.00100524
-0.018491
0.00199806
-0.0183976
0.00388857
-0.018155
0.00595223
-0.0179906
0.00867943
-0.0177475
0.00793486
0.00900652
-0.0185667
0.000135438
-0.0185573
0.000433358
-0.018537
0.000984976
-0.0184663
0.00192737
-0.0183641
0.00378639
-0.0181194
0.00570751
-0.0179556
0.00851563
-0.0177626
0.00774181
0.0100892
-0.0185615
0.000132218
-0.018546
0.000417867
-0.0185169
0.000955872
-0.0184333
0.00184377
-0.0183172
0.00367027
-0.0180666
0.00545696
-0.0178981
0.00834713
-0.0177496
0.00759329
0.011181
-0.0185561
0.000126518
-0.0185339
0.000395712
-0.0184949
0.00091687
-0.0183961
0.00174498
-0.0182627
0.00353687
-0.0180046
0.00519882
-0.0178314
0.008174
-0.0177333
0.00749515
0.0123326
-0.0185506
0.000118239
-0.0185212
0.000366308
-0.0184707
0.000866403
-0.0183525
0.00162678
-0.0181924
0.00337675
-0.0179095
0.00491596
-0.0176983
0.00796275
-0.0176126
0.00740945
0.0133275
-0.018545
0.000107243
-0.0185074
0.00032874
-0.0184428
0.00080182
-0.0182988
0.00148278
-0.0180997
0.00317765
-0.0177752
0.00459142
-0.0174988
0.00768634
-0.0173878
0.00729852
0.0142608
-0.018539
9.31217e-05
-0.0184911
0.000280914
-0.0184061
0.000716802
-0.0182205
0.00129722
-0.0179505
0.00290764
-0.0175355
0.00417641
-0.017115
0.00726579
-0.0169206
0.00710413
0.014656
-0.0185326
7.55035e-05
-0.018472
0.000220362
-0.0183582
0.000602952
-0.0181064
0.00104546
-0.0177086
0.00250979
-0.0171043
0.00357218
-0.0163797
0.0065412
-0.0158443
0.00656865
0.0139897
-0.0185268
-0.0184544
-0.0183054
-0.0179708
-0.0173725
-0.0163971
-0.0149339
-0.0133781
)
;

boundaryField
{
    inlet
    {
        type            calculated;
        value           nonuniform 0();
    }
    outlet
    {
        type            calculated;
        value           nonuniform List<scalar> 
26
(
0.00097375
0.000973747
0.000973745
0.000973742
0.00097374
0.000973737
0.000853525
0.000853522
0.000853519
0.000853516
0.000853514
0.000853511
0.000853509
0.000853506
0.000853504
0.000853501
0.0185714
0.01857
0.0185676
0.0185647
0.0185618
0.0185588
0.018556
0.0185531
0.0185502
0.0185478
)
;
    }
    polygon
    {
        type            calculated;
        value           nonuniform 0();
    }
    top
    {
        type            symmetryPlane;
        value           uniform 0;
    }
    bottom
    {
        type            symmetryPlane;
        value           uniform 0;
    }
    outside
    {
        type            calculated;
        value           nonuniform List<scalar> 9(-0.000133475 -0.000449681 -0.00102765 -0.00212011 -0.00406654 -0.00643447 -0.00898557 -0.00843792 -0.00707925);
    }
    procBoundary15to10
    {
        type            processor;
        value           nonuniform List<scalar> 
19
(
-0.000345754
-0.00034693
-0.000348366
-0.000350037
-0.000282692
-0.000282005
-0.000282104
-0.000282351
-0.000282695
-0.000283159
-0.000283758
-0.000284496
-0.000285389
-0.000286462
-0.0186075
-0.0183211
-0.0173158
-0.0151779
-0.00783756
)
;
    }
    procBoundary15to11
    {
        type            processor;
        value           nonuniform List<scalar> 
11
(
0.00494941
9.74139e-05
0.000301369
0.000469908
0.00127928
0.00175607
0.00347237
-0.00058685
0.00346257
-0.000972405
3.49922e-05
)
;
    }
    procBoundary15to14
    {
        type            processor;
        value           nonuniform List<scalar> 5(-0.018719 -0.0187317 -0.0188453 -0.0188414 -0.0188849);
    }
}


// ************************************************************************* //
