/*--------------------------------*- C++ -*----------------------------------*\
  =========                 |
  \\      /  F ield         | OpenFOAM: The Open Source CFD Toolbox
   \\    /   O peration     | Website:  https://openfoam.org
    \\  /    A nd           | Version:  7
     \\/     M anipulation  |
\*---------------------------------------------------------------------------*/
FoamFile
{
    version     2.0;
    format      ascii;
    class       volVectorField;
    location    "5";
    object      U;
}
// * * * * * * * * * * * * * * * * * * * * * * * * * * * * * * * * * * * * * //

dimensions      [0 1 -1 0 0 0 0];

internalField   nonuniform List<vector> 
225
(
(1.12646 -0.000364532 9.37517e-20)
(1.12348 -0.000981063 -2.69633e-19)
(1.11844 -0.00302775 5.46776e-19)
(1.09867 -0.0047348 -1.34419e-18)
(1.0812 -0.0128272 7.27631e-19)
(0.996332 -0.0175947 1.21725e-18)
(0.949069 -0.0346434 1.87932e-18)
(0.729445 -0.034559 2.13469e-17)
(0.694431 -0.050102 4.88735e-18)
(1.12646 -0.00035328 7.22769e-20)
(1.12347 -0.000950097 -1.61315e-19)
(1.11842 -0.00293363 7.9342e-19)
(1.09858 -0.00458747 -1.34173e-18)
(1.08097 -0.0124361 8.8812e-19)
(0.995615 -0.0170732 8.63532e-19)
(0.947466 -0.0336327 1.86934e-18)
(0.725949 -0.0335755 2.09012e-17)
(0.688791 -0.047974 4.19102e-18)
(1.12645 -0.000341974 5.57719e-20)
(1.12345 -0.000919028 -7.04441e-20)
(1.1184 -0.00283899 1.09082e-18)
(1.09848 -0.00443934 -1.38445e-18)
(1.08076 -0.0120409 1.10043e-18)
(0.994935 -0.0165448 6.06737e-19)
(0.945942 -0.0326037 1.86656e-18)
(0.722614 -0.0325709 2.09223e-17)
(0.68345 -0.0458573 4.76803e-18)
(1.12645 -0.000330648 4.55889e-20)
(1.12344 -0.000887933 -1.01124e-19)
(1.11838 -0.00274422 1.24312e-18)
(1.0984 -0.0042905 -1.49434e-18)
(1.08057 -0.0116444 1.29056e-18)
(0.994292 -0.0160116 1.29652e-18)
(0.944496 -0.0315674 1.77933e-18)
(0.719442 -0.0315532 2.00235e-17)
(0.67841 -0.0437816 5.62438e-18)
(1.12645 -0.000319294 3.32238e-20)
(1.12343 -0.000856803 -1.22628e-20)
(1.11836 -0.00264924 1.22042e-18)
(1.09832 -0.00414118 -1.63678e-18)
(1.08038 -0.0112464 1.53114e-18)
(0.993686 -0.0154744 2.00711e-18)
(0.943129 -0.0305233 1.6892e-18)
(0.716434 -0.0305245 1.98216e-17)
(1.12645 -0.000307908 2.20189e-20)
(1.12649 -0.000461961 -6.60456e-21)
(1.12363 -0.00125434 -3.21657e-19)
(1.11872 -0.00384892 -2.03689e-18)
(1.0998 -0.00604353 6.72143e-19)
(1.08391 -0.01622 -9.35883e-19)
(1.00455 -0.0221183 -7.64626e-18)
(0.967258 -0.0431545 1.91991e-18)
(0.769199 -0.0428002 1.05837e-17)
(0.759792 -0.0714011 5.72553e-18)
(1.12649 -0.000452635 -1.18022e-21)
(1.12361 -0.00122767 -3.01425e-19)
(1.11869 -0.0037703 -1.83071e-18)
(1.09967 -0.00591404 7.54616e-19)
(1.08359 -0.015896 -6.96762e-19)
(1.00362 -0.0216753 -6.68399e-18)
(0.965226 -0.042352 1.9232e-18)
(0.764805 -0.041992 1.17034e-17)
(0.752603 -0.0690098 3.66642e-18)
(1.12649 -0.000443213 4.09209e-21)
(1.12359 -0.00120124 -2.84204e-19)
(1.11866 -0.00369056 -1.52221e-18)
(1.09954 -0.00578651 4.19276e-19)
(1.08328 -0.0155704 -4.26664e-19)
(1.0027 -0.0212404 -5.04893e-18)
(0.963237 -0.0415542 1.86903e-18)
(0.760493 -0.04121 1.30807e-17)
(0.745536 -0.0668721 2.6747e-18)
(1.12648 -0.000433583 1.02386e-20)
(1.12358 -0.00117419 -2.75133e-19)
(1.11863 -0.0036093 -1.23732e-18)
(1.09942 -0.00565843 5.0897e-19)
(1.08298 -0.0152376 -1.60238e-19)
(1.00182 -0.0208054 -3.48848e-18)
(0.961293 -0.0407345 1.81828e-18)
(0.756268 -0.0404369 1.34263e-17)
(0.7386 -0.0647084 2.8181e-18)
(1.12648 -0.00042389 2.01245e-20)
(1.12356 -0.00114693 -1.52654e-19)
(1.1186 -0.00352758 -9.70956e-19)
(1.0993 -0.00552942 5.84077e-19)
(1.08269 -0.0149015 -5.34152e-20)
(1.00096 -0.020365 -1.98768e-18)
(0.959397 -0.0399006 1.84731e-18)
(0.752135 -0.0396485 1.41277e-17)
(0.731806 -0.0625393 3.03766e-18)
(1.12648 -0.000414171 2.76598e-20)
(1.12355 -0.00111965 -1.4571e-19)
(1.11857 -0.00344566 -7.26991e-19)
(1.09919 -0.00539971 3.07469e-19)
(1.08242 -0.0145637 5.6861e-20)
(1.00012 -0.0199193 -1.40322e-18)
(0.957551 -0.0390569 1.81313e-18)
(0.748099 -0.0388436 1.51502e-17)
(0.725162 -0.0604021 3.44122e-18)
(1.12647 -0.000404421 3.60579e-20)
(1.12353 -0.00109233 -1.39748e-19)
(1.11854 -0.0033635 -4.9867e-19)
(1.09908 -0.00526943 1.77223e-20)
(1.08215 -0.014224 1.8852e-19)
(0.999315 -0.019469 -8.59376e-19)
(0.955756 -0.0382037 1.79058e-18)
(0.744164 -0.0380251 1.65729e-17)
(0.718677 -0.0582999 3.95304e-18)
(1.12647 -0.00039463 4.58577e-20)
(1.12352 -0.00106494 -1.39314e-19)
(1.11851 -0.00328102 -2.66869e-19)
(1.09897 -0.00513862 -3.11751e-19)
(1.0819 -0.0138823 3.14482e-19)
(0.998534 -0.0190148 -4.19612e-19)
(0.954014 -0.0373414 1.77e-18)
(0.740334 -0.0371957 1.85403e-17)
(0.712359 -0.0562325 4.65762e-18)
(1.12647 -0.000384782 5.88272e-20)
(1.12351 -0.00103743 -2.60136e-19)
(1.11849 -0.00319807 -4.84726e-20)
(1.09887 -0.00500723 -6.50103e-19)
(1.08166 -0.0135379 4.50394e-19)
(0.997781 -0.0185569 5.96707e-20)
(0.952325 -0.0364691 1.8243e-18)
(0.736613 -0.0363574 1.93953e-17)
(0.706216 -0.0541981 5.56861e-18)
(1.12646 -0.000374918 7.26096e-20)
(1.12349 -0.00100991 -2.56127e-19)
(1.11847 -0.00311487 3.28053e-19)
(1.09877 -0.004875 -9.97761e-19)
(1.08143 -0.0131903 5.84393e-19)
(0.997056 -0.0180914 5.90711e-19)
(0.950692 -0.0355789 1.88668e-18)
(0.733005 -0.0354951 2.09708e-17)
(0.700254 -0.0521679 5.69444e-18)
(1.12797 -0.00114776 -3.49834e-20)
(1.12828 -0.00385292 -1.50316e-19)
(1.12841 -0.00881959 -5.79632e-19)
(1.12331 -0.0181192 -2.56186e-19)
(1.12983 -0.0348096 -2.16464e-18)
(1.09903 -0.0549456 -1.93884e-17)
(1.11978 -0.0769601 5.1475e-18)
(1.05844 -0.0720095 2.53147e-17)
(1.11358 -0.0616599 -1.86278e-17)
(1.12788 -0.00117356 -5.36903e-20)
(1.12806 -0.00383201 -6.10307e-19)
(1.12805 -0.00869222 -5.17458e-18)
(1.12264 -0.0173749 6.55357e-19)
(1.12901 -0.0337287 -6.83322e-19)
(1.09762 -0.0518822 -2.78573e-18)
(1.11822 -0.0751643 1.1859e-18)
(1.05455 -0.0689527 2.16446e-18)
(1.11426 -0.0744838 -2.16737e-18)
(1.12774 -0.00116957 -6.14328e-20)
(1.12767 -0.00377271 -6.16609e-19)
(1.12737 -0.00856507 -5.26868e-18)
(1.12138 -0.0168874 4.1919e-19)
(1.12732 -0.0329956 -2.23829e-18)
(1.0952 -0.0501338 -1.92669e-17)
(1.11639 -0.07389 -9.92814e-20)
(1.05197 -0.0673241 -2.2496e-17)
(1.11895 -0.0814874 1.94465e-17)
(1.12756 -0.00115568 -2.65409e-21)
(1.1272 -0.00366869 -1.03317e-19)
(1.12652 -0.00835242 -4.86499e-19)
(1.11974 -0.0162188 -2.10094e-19)
(1.12499 -0.0320288 -2.47412e-18)
(1.09177 -0.047894 -2.13146e-17)
(1.11349 -0.07222 4.46995e-18)
(1.04764 -0.065317 2.27455e-17)
(1.12225 -0.0906041 -1.96735e-17)
(1.12738 -0.00111543 -1.62571e-20)
(1.1267 -0.0035072 -4.01604e-20)
(1.12561 -0.0080652 -4.32001e-20)
(1.11793 -0.0154535 -1.49452e-19)
(1.12234 -0.0310157 -2.50321e-18)
(1.08774 -0.0458724 -2.15228e-17)
(1.11008 -0.0712257 5.65154e-18)
(1.04272 -0.0654307 2.85211e-17)
(1.1255 -0.102584 -2.67937e-17)
(1.12721 -0.00105807 -6.95292e-21)
(1.12618 -0.00328912 -5.52186e-20)
(1.12465 -0.00768088 -4.05487e-19)
(1.1159 -0.0145145 -2.39364e-20)
(1.11912 -0.0297067 -2.36661e-18)
(1.08235 -0.0433641 -2.08168e-17)
(1.10402 -0.0690034 5.65648e-18)
(1.03234 -0.0628755 2.92176e-17)
(1.12193 -0.1076 -3.04007e-17)
(1.12703 -0.000972303 -4.05948e-20)
(1.12565 -0.00299942 -4.82641e-19)
(1.12359 -0.00719763 -4.87702e-18)
(1.11352 -0.0134332 4.25418e-19)
(1.11504 -0.0282997 -7.15986e-19)
(1.07511 -0.041155 -2.92954e-18)
(1.09504 -0.0678623 1.47573e-18)
(1.01691 -0.0648433 3.72661e-18)
(1.11019 -0.12326 -4.64422e-18)
(1.12686 -0.000870456 -7.88795e-21)
(1.12505 -0.00264977 -1.38181e-19)
(1.12229 -0.00658895 -4.37869e-19)
(1.1103 -0.0120093 -1.43719e-19)
(1.10881 -0.0263213 -1.80342e-18)
(1.06318 -0.037574 -1.87142e-17)
(1.07791 -0.0640229 4.72056e-18)
(0.987216 -0.060022 2.89781e-17)
(1.08411 -0.118839 -3.12987e-17)
(1.12668 -0.000727618 -3.37307e-20)
(1.12441 -0.0021764 -7.71876e-21)
(1.12071 -0.00567826 -4.44544e-19)
(1.10598 -0.0103366 7.10946e-20)
(1.09933 -0.0234865 1.44022e-18)
(1.04323 -0.0343933 1.71932e-17)
(1.04551 -0.0608374 8.28824e-19)
(0.930449 -0.0626114 3.1197e-18)
(1.00964 -0.136255 -4.51844e-18)
(1.12654 -0.000573754 -5.38614e-20)
(1.12382 -0.00159101 -4.94873e-19)
(1.11912 -0.0047488 -4.75785e-18)
(1.10127 -0.00750835 4.69241e-19)
(1.08744 -0.0198405 -1.70245e-18)
(1.01448 -0.0266583 -1.90705e-17)
(0.988102 -0.0517346 1.94489e-18)
(0.812602 -0.0500729 3.20854e-18)
(0.828251 -0.0998043 2.56471e-17)
)
;

boundaryField
{
    inlet
    {
        type            uniformFixedValue;
        uniformValue    constant (1 0 0);
        value           nonuniform 0();
    }
    outlet
    {
        type            pressureInletOutletVelocity;
        value           nonuniform List<vector> 
26
(
(1.12646 -0.000364532 9.37517e-20)
(1.12646 -0.00035328 7.22769e-20)
(1.12645 -0.000341974 5.57719e-20)
(1.12645 -0.000330648 4.55889e-20)
(1.12645 -0.000319294 3.32238e-20)
(1.12645 -0.000307908 2.20189e-20)
(1.12649 -0.000461961 -6.60456e-21)
(1.12649 -0.000452635 -1.18022e-21)
(1.12649 -0.000443213 4.09209e-21)
(1.12648 -0.000433583 1.02386e-20)
(1.12648 -0.00042389 2.01245e-20)
(1.12648 -0.000414171 2.76598e-20)
(1.12647 -0.000404421 3.60579e-20)
(1.12647 -0.00039463 4.58577e-20)
(1.12647 -0.000384782 5.88272e-20)
(1.12646 -0.000374918 7.26096e-20)
(1.12797 -0.00114776 -3.49834e-20)
(1.12788 -0.00117356 -5.36903e-20)
(1.12774 -0.00116957 -6.14328e-20)
(1.12756 -0.00115568 -2.65409e-21)
(1.12738 -0.00111543 -1.62571e-20)
(1.12721 -0.00105807 -6.95292e-21)
(1.12703 -0.000972303 -4.05948e-20)
(1.12686 -0.000870456 -7.88795e-21)
(1.12668 -0.000727618 -3.37307e-20)
(1.12654 -0.000573754 -5.38614e-20)
)
;
    }
    polygon
    {
        type            fixedValue;
        value           nonuniform 0();
    }
    top
    {
        type            symmetryPlane;
    }
    bottom
    {
        type            symmetryPlane;
    }
    outside
    {
        type            zeroGradient;
    }
    procBoundary15to10
    {
        type            processor;
        value           nonuniform List<vector> 
19
(
(0.179984 -0.106935 6.78589e-18)
(0.185965 -0.103999 5.76026e-18)
(0.192188 -0.101004 4.88392e-18)
(0.198651 -0.0980209 4.04114e-18)
(0.133157 -0.130982 1.32005e-17)
(0.136936 -0.128881 1.5455e-17)
(0.140896 -0.126236 1.46762e-17)
(0.145044 -0.123806 1.43166e-17)
(0.149386 -0.121471 1.23628e-17)
(0.153932 -0.119113 1.04889e-17)
(0.158688 -0.116732 8.68558e-18)
(0.163666 -0.11435 7.2183e-18)
(0.168872 -0.111975 7.42231e-18)
(0.174315 -0.109545 7.87316e-18)
(1.12089 0.000278435 3.66266e-18)
(1.09766 -0.0139233 -1.19311e-19)
(0.995963 -0.0374844 -1.13865e-17)
(0.809874 -0.0704539 -6.39748e-19)
(0.100371 -0.130114 -1.31821e-18)
)
;
    }
    procBoundary15to11
    {
        type            processor;
        value           nonuniform List<vector> 
11
(
(0.673673 -0.0417479 5.6879e-18)
(1.12342 -0.000825636 7.79183e-20)
(1.11834 -0.00255404 1.24821e-18)
(1.09824 -0.00399145 -1.84084e-18)
(1.08021 -0.0108466 1.80635e-18)
(0.993116 -0.0149336 2.83831e-18)
(0.941839 -0.0294706 1.51944e-18)
(0.673673 -0.0417479 5.6879e-18)
(0.713589 -0.0294848 2.00298e-17)
(1.12342 -0.000825636 7.79183e-20)
(1.12644 -0.000296493 1.4471e-20)
)
;
    }
    procBoundary15to14
    {
        type            processor;
        value           nonuniform List<vector> 5((1.1507 0.0198208 4.44282e-18) (1.14992 0.0210156 1.23914e-18) (1.15887 0.0179395 1.12234e-18) (1.15279 0.0147206 2.94888e-18) (1.15463 0.00899391 3.20911e-18));
    }
}


// ************************************************************************* //
