/*--------------------------------*- C++ -*----------------------------------*\
  =========                 |
  \\      /  F ield         | OpenFOAM: The Open Source CFD Toolbox
   \\    /   O peration     | Website:  https://openfoam.org
    \\  /    A nd           | Version:  7
     \\/     M anipulation  |
\*---------------------------------------------------------------------------*/
FoamFile
{
    version     2.0;
    format      ascii;
    class       surfaceScalarField;
    location    "2";
    object      phi;
}
// * * * * * * * * * * * * * * * * * * * * * * * * * * * * * * * * * * * * * //

dimensions      [0 3 -1 0 0 0 0];

internalField   nonuniform List<scalar> 
15760
(
-0.00350915
9.99599e-09
-1.09914e-08
-0.00350915
1.34952e-08
-1.49029e-08
-0.00350914
1.51285e-08
-1.67477e-08
-0.00350914
1.83866e-08
-2.03491e-08
-0.00350914
2.1174e-08
-2.34405e-08
-0.00350914
2.4866e-08
-2.75286e-08
-0.00350913
2.87071e-08
-3.17858e-08
-0.00350913
3.32715e-08
-3.68422e-08
-0.00350913
3.83317e-08
-4.24504e-08
-0.00350912
4.41679e-08
-4.8918e-08
-0.00350912
5.07703e-08
-5.62368e-08
-0.00350911
5.83279e-08
-6.46149e-08
-0.0035091
6.69343e-08
-7.41577e-08
-0.00350909
7.67695e-08
-8.50642e-08
-0.00350908
8.79944e-08
-9.7514e-08
-0.00350907
1.00818e-07
-1.11739e-07
-0.00350906
1.15462e-07
-1.27986e-07
-0.00350905
1.3219e-07
-1.46548e-07
-0.00350903
1.51294e-07
-1.6775e-07
-0.00350901
1.73111e-07
-1.91965e-07
-0.00350899
1.98021e-07
-2.19619e-07
-0.00350896
2.26458e-07
-2.51192e-07
-0.00350894
2.58913e-07
-2.87232e-07
-0.0035089
2.95947e-07
-3.28362e-07
-0.00350887
3.38193e-07
-3.75288e-07
-0.00350882
3.86373e-07
-4.28813e-07
-0.00350878
4.41304e-07
-4.89846e-07
-0.00350872
5.03913e-07
-5.5942e-07
-0.00350866
5.75249e-07
-6.38703e-07
-0.00350858
6.56504e-07
-7.29021e-07
-0.0035085
7.49024e-07
-8.31874e-07
-0.00350841
8.54334e-07
-9.48961e-07
-0.0035083
9.74158e-07
-1.0822e-06
-0.00350818
1.11045e-06
-1.23377e-06
-0.00350804
1.2654e-06
-1.40612e-06
-0.00350787
1.44151e-06
-1.60202e-06
-0.00350769
1.64157e-06
-1.8246e-06
-0.00350748
1.86876e-06
-2.07738e-06
-0.00350725
2.12664e-06
-2.36435e-06
-0.00350697
2.41924e-06
-2.68999e-06
-0.00350667
2.75107e-06
-3.05934e-06
-0.00350632
3.12724e-06
-3.47807e-06
-0.00350592
3.55347e-06
-3.95258e-06
-0.00350546
4.0362e-06
-4.49005e-06
-0.00350495
4.58268e-06
-5.09855e-06
-0.00350436
5.20102e-06
-5.78715e-06
-0.00350369
5.90036e-06
-6.56601e-06
-0.00350294
6.69094e-06
-7.44656e-06
-0.00350208
7.58427e-06
-8.44164e-06
-0.00350111
8.59324e-06
-9.56562e-06
-0.00350001
9.73234e-06
-1.08346e-05
-0.00349876
1.10178e-05
-1.22669e-05
-0.00349734
1.2468e-05
-1.38826e-05
-0.00349574
1.41033e-05
-1.57048e-05
-0.00349393
1.5947e-05
-1.77592e-05
-0.00349188
1.8025e-05
-2.00748e-05
-0.00348956
2.03668e-05
-2.26845e-05
-0.00348694
2.30056e-05
-2.56252e-05
-0.00348398
2.59794e-05
-2.89392e-05
-0.00348064
2.93312e-05
-3.26744e-05
-0.00347686
3.31105e-05
-3.68859e-05
-0.0034726
3.73741e-05
-4.16368e-05
-0.00346779
4.2188e-05
-4.70008e-05
-0.00346235
4.76294e-05
-5.30636e-05
-0.00345622
5.37891e-05
-5.99262e-05
-0.00344928
6.07752e-05
-6.77089e-05
-0.00344144
6.8718e-05
-7.65565e-05
-0.00343258
7.77765e-05
-8.66462e-05
-0.00342253
8.81473e-05
-9.81959e-05
-0.00341113
0.000100076
-0.000111477
-0.00339816
0.000113873
-0.000126835
-0.00338339
0.000129933
-0.000144707
-0.00336649
0.000148772
-0.00016567
-0.00334709
0.000171081
-0.000190484
-0.0033247
0.000197784
-0.000220168
-0.00329875
0.000230122
-0.000256078
-0.00326849
0.000269755
-0.000300018
-0.003233
0.000318875
-0.000354356
-0.00319119
0.000380321
-0.000422136
-0.0031417
0.000457673
-0.000507164
-0.00308295
0.000555291
-0.000614038
-0.00301312
0.000678281
-0.000748107
-0.00293016
0.000832378
-0.000915342
-0.00283176
0.00102375
-0.00112215
-0.00271537
0.0012587
-0.00137508
-0.00257806
0.001543
-0.00168031
-0.0024166
0.00188108
-0.00204255
-0.00222791
0.00227408
-0.00246277
-0.00200986
0.00271715
-0.0029352
-0.00176306
0.00319008
-0.00343688
-0.00149343
0.00364434
-0.00391397
-0.00121592
0.00399008
-0.00426759
-0.000953599
0.00409056
-0.00435288
-0.000739134
0.00379676
-0.00401122
-0.000598325
0.0029396
-0.00308041
-0.000532632
0.00150711
-0.0015728
-0.000495676
-0.000341656
0.0003047
-0.000430693
-0.00213379
0.0020688
-0.000263599
-0.00319159
0.00302449
-0.00195221
0.00168862
-0.00350915
8.99017e-09
-0.00350915
1.20588e-08
-0.00350914
1.34915e-08
-0.00350914
1.63973e-08
-0.00350914
1.88752e-08
-0.00350914
2.2166e-08
-0.00350913
2.55857e-08
-0.00350913
2.96518e-08
-0.00350913
3.41575e-08
-0.00350912
3.93546e-08
-0.00350912
4.52325e-08
-0.00350911
5.19605e-08
-0.0035091
5.96207e-08
-0.00350909
6.83735e-08
-0.00350908
7.83615e-08
-0.00350907
8.97704e-08
-0.00350906
1.02798e-07
-0.00350905
1.17675e-07
-0.00350903
1.34665e-07
-0.00350901
1.54064e-07
-0.00350899
1.76211e-07
-0.00350896
2.0149e-07
-0.00350893
2.30337e-07
-0.0035089
2.63249e-07
-0.00350886
3.00788e-07
-0.00350882
3.43594e-07
-0.00350877
3.92392e-07
-0.00350872
4.48003e-07
-0.00350865
5.11359e-07
-0.00350858
5.83514e-07
-0.0035085
6.65663e-07
-0.0035084
7.59157e-07
-0.00350829
8.65524e-07
-0.00350817
9.86491e-07
-0.00350803
1.12401e-06
-0.00350787
1.28028e-06
-0.00350768
1.4578e-06
-0.00350747
1.65936e-06
-0.00350723
1.88813e-06
-0.00350696
2.14766e-06
-0.00350665
2.44197e-06
-0.0035063
2.77557e-06
-0.0035059
3.15352e-06
-0.00350545
3.58154e-06
-0.00350493
4.06604e-06
-0.00350434
4.61421e-06
-0.00350368
5.23413e-06
-0.00350292
5.93488e-06
-0.00350206
6.72664e-06
-0.00350109
7.62085e-06
-0.00349999
8.63032e-06
-0.00349874
9.76947e-06
-0.00349733
1.10545e-05
-0.00349573
1.25035e-05
-0.00349392
1.41371e-05
-0.00349187
1.59783e-05
-0.00348956
1.80532e-05
-0.00348694
2.03913e-05
-0.00348399
2.30261e-05
-0.00348066
2.5996e-05
-0.00347689
2.93448e-05
-0.00347264
3.31229e-05
-0.00346784
3.73889e-05
-0.00346242
4.22114e-05
-0.0034563
4.76709e-05
-0.00344939
5.38634e-05
-0.00344158
6.09046e-05
-0.00343274
6.89357e-05
-0.00342272
7.81314e-05
-0.00341136
8.87112e-05
-0.00339844
0.000100953
-0.00338371
0.000115203
-0.00336685
0.000131919
-0.00334749
0.000151717
-0.00332513
0.000175428
-0.00329918
0.000204167
-0.00326886
0.000239434
-0.00323321
0.000283225
-0.00319103
0.000338139
-0.00314083
0.000407479
-0.00308083
0.000495293
-0.00300891
0.000606355
-0.00292258
0.000746052
-0.00281903
0.000920195
-0.00269504
0.00113471
-0.00254714
0.00139509
-0.00237132
0.00170527
-0.00216349
0.00206625
-0.00192047
0.00247414
-0.00164188
0.00291149
-0.00133302
0.00333548
-0.00100915
0.00366621
-0.000696343
0.00377775
-0.000433541
0.00353396
-0.000255972
0.00276203
-0.000180405
0.00143154
-0.000183403
-0.000338659
-0.000216253
-0.00210094
-0.000202396
-0.00320544
-0.00215461
-0.00350915
7.94459e-09
-0.00350915
1.05982e-08
-0.00350914
1.18414e-08
-0.00350914
1.43885e-08
-0.00350914
1.65599e-08
-0.00350914
1.9445e-08
-0.00350913
2.24425e-08
-0.00350913
2.60064e-08
-0.00350913
2.99549e-08
-0.00350912
3.45088e-08
-0.00350912
3.96582e-08
-0.00350911
4.55515e-08
-0.0035091
5.22602e-08
-0.00350909
5.99247e-08
-0.00350908
6.86694e-08
-0.00350907
7.86566e-08
-0.00350906
9.00586e-08
-0.00350905
1.03079e-07
-0.00350903
1.17945e-07
-0.00350901
1.34917e-07
-0.00350899
1.5429e-07
-0.00350896
1.76399e-07
-0.00350893
2.01627e-07
-0.0035089
2.30405e-07
-0.00350886
2.63225e-07
-0.00350882
3.00644e-07
-0.00350877
3.43297e-07
-0.00350872
3.91898e-07
-0.00350865
4.47261e-07
-0.00350858
5.10305e-07
-0.00350849
5.82073e-07
-0.0035084
6.63743e-07
-0.00350829
7.56647e-07
-0.00350817
8.62291e-07
-0.00350802
9.82378e-07
-0.00350786
1.11883e-06
-0.00350768
1.27381e-06
-0.00350747
1.44976e-06
-0.00350723
1.64945e-06
-0.00350696
1.87596e-06
-0.00350665
2.13281e-06
-0.0035063
2.42391e-06
-0.0035059
2.7537e-06
-0.00350544
3.12714e-06
-0.00350493
3.54981e-06
-0.00350434
4.028e-06
-0.00350368
4.56875e-06
-0.00350292
5.17996e-06
-0.00350206
5.8705e-06
-0.00350109
6.65035e-06
-0.00349999
7.53068e-06
-0.00349875
8.52405e-06
-0.00349734
9.64457e-06
-0.00349574
1.09081e-05
-0.00349394
1.23325e-05
-0.0034919
1.39379e-05
-0.00348959
1.57471e-05
-0.00348699
1.77857e-05
-0.00348404
2.00832e-05
-0.00348072
2.26729e-05
-0.00347697
2.55931e-05
-0.00347273
2.88879e-05
-0.00346795
3.26084e-05
-0.00346256
3.68145e-05
-0.00345646
4.15766e-05
-0.00344958
4.69786e-05
-0.00344179
5.31214e-05
-0.00343299
6.01286e-05
-0.00342301
6.81529e-05
-0.00341169
7.73877e-05
-0.00339881
8.80761e-05
-0.00338412
0.000100518
-0.00336732
0.000115112
-0.003348
0.000132401
-0.00332568
0.000153112
-0.00329975
0.000178232
-0.0032694
0.00020909
-0.00323364
0.000247463
-0.00319119
0.000295684
-0.00314044
0.000356729
-0.00307942
0.000434272
-0.00300573
0.000532668
-0.00291654
0.000656859
-0.00280853
0.000812188
-0.00267793
0.00100411
-0.00252052
0.00123768
-0.00233181
0.00151655
-0.00210677
0.00184121
-0.00184136
0.00220872
-0.0015342
0.00260433
-0.00118976
0.00299104
-0.000823091
0.00329954
-0.000462704
0.00341736
-0.000154693
0.00322595
5.81808e-05
0.00254915
0.000146805
0.00134292
0.000106668
-0.000298521
-9.11772e-06
-0.00198515
-0.000116911
-0.00309765
-0.00227152
-0.00350915
6.87723e-09
-0.00350915
9.12313e-09
-0.00350914
1.01735e-08
-0.00350914
1.23622e-08
-0.00350914
1.42194e-08
-0.00350914
1.66978e-08
-0.00350913
1.92676e-08
-0.00350913
2.23263e-08
-0.00350913
2.57128e-08
-0.00350912
2.96193e-08
-0.00350912
3.40354e-08
-0.00350911
3.90893e-08
-0.0035091
4.48413e-08
-0.00350909
5.14121e-08
-0.00350908
5.89077e-08
-0.00350907
6.74673e-08
-0.00350906
7.72381e-08
-0.00350904
8.8394e-08
-0.00350903
1.0113e-07
-0.00350901
1.15668e-07
-0.00350899
1.3226e-07
-0.00350896
1.51195e-07
-0.00350893
1.72796e-07
-0.0035089
1.97434e-07
-0.00350886
2.25529e-07
-0.00350882
2.57559e-07
-0.00350877
2.94062e-07
-0.00350871
3.35652e-07
-0.00350865
3.83022e-07
-0.00350858
4.36959e-07
-0.00350849
4.98352e-07
-0.0035084
5.68208e-07
-0.00350829
6.47665e-07
-0.00350816
7.38008e-07
-0.00350802
8.40691e-07
-0.00350786
9.57354e-07
-0.00350768
1.08985e-06
-0.00350747
1.24026e-06
-0.00350723
1.41093e-06
-0.00350696
1.60453e-06
-0.00350665
1.82403e-06
-0.0035063
2.07278e-06
-0.0035059
2.35457e-06
-0.00350544
2.67362e-06
-0.00350493
3.03472e-06
-0.00350434
3.44322e-06
-0.00350368
3.90512e-06
-0.00350293
4.42719e-06
-0.00350207
5.01698e-06
-0.00350111
5.68302e-06
-0.00350001
6.43484e-06
-0.00349877
7.28317e-06
-0.00349737
8.24004e-06
-0.00349578
9.31902e-06
-0.00349398
1.05353e-05
-0.00349195
1.19062e-05
-0.00348965
1.34511e-05
-0.00348706
1.5192e-05
-0.00348413
1.71539e-05
-0.00348082
1.93655e-05
-0.00347709
2.18593e-05
-0.00347287
2.46732e-05
-0.00346812
2.7851e-05
-0.00346274
3.14437e-05
-0.00345668
3.55118e-05
-0.00344983
4.01267e-05
-0.00344208
4.53751e-05
-0.00343332
5.13623e-05
-0.00342338
5.82196e-05
-0.00341211
6.61132e-05
-0.00339928
7.5252e-05
-0.00338465
8.58889e-05
-0.00336791
9.83656e-05
-0.00334865
0.000113146
-0.0033264
0.000130857
-0.00330051
0.000152347
-0.00327019
0.000178767
-0.00323439
0.00021166
-0.00319177
0.000253062
-0.00314062
0.000305585
-0.00307882
0.00037247
-0.00300373
0.000457579
-0.00291218
0.000565312
-0.00280044
0.000700443
-0.00266418
0.000867855
-0.00249857
0.00107207
-0.00229841
0.00131639
-0.00205815
0.00160096
-0.00177297
0.00192354
-0.0014407
0.00227207
-0.0010651
0.00261544
-0.000660744
0.00289518
-0.000257668
0.00301429
9.51949e-05
0.00287308
0.000352387
0.00229196
0.000454244
0.00124106
0.000386462
-0.000230739
0.000198631
-0.00179732
-1.83422e-05
-0.00288068
-0.00228986
-0.00350915
5.77341e-09
-0.00350915
7.62487e-09
-0.00350914
8.49475e-09
-0.00350914
1.03198e-08
-0.00350914
1.18674e-08
-0.00350914
1.3935e-08
-0.00350913
1.60774e-08
-0.00350913
1.86279e-08
-0.00350913
2.14509e-08
-0.00350912
2.47072e-08
-0.00350912
2.83875e-08
-0.00350911
3.25989e-08
-0.0035091
3.73913e-08
-0.00350909
4.28652e-08
-0.00350908
4.91086e-08
-0.00350907
5.62372e-08
-0.00350906
6.43735e-08
-0.00350904
7.36621e-08
-0.00350903
8.42649e-08
-0.00350901
9.63663e-08
-0.00350899
1.10176e-07
-0.00350896
1.25933e-07
-0.00350893
1.43908e-07
-0.0035089
1.64407e-07
-0.00350886
1.87779e-07
-0.00350882
2.14422e-07
-0.00350877
2.44782e-07
-0.00350871
2.79369e-07
-0.00350865
3.18759e-07
-0.00350858
3.63604e-07
-0.00350849
4.14644e-07
-0.0035084
4.72713e-07
-0.00350829
5.38756e-07
-0.00350816
6.1384e-07
-0.00350802
6.99172e-07
-0.00350786
7.96112e-07
-0.00350768
9.06196e-07
-0.00350747
1.03116e-06
-0.00350723
1.17294e-06
-0.00350696
1.33375e-06
-0.00350665
1.51606e-06
-0.0035063
1.72266e-06
-0.0035059
1.95667e-06
-0.00350545
2.22161e-06
-0.00350494
2.52145e-06
-0.00350435
2.86061e-06
-0.00350369
3.24411e-06
-0.00350294
3.67752e-06
-0.00350209
4.16714e-06
-0.00350113
4.72002e-06
-0.00350004
5.3441e-06
-0.00349881
6.04825e-06
-0.00349741
6.84248e-06
-0.00349583
7.73805e-06
-0.00349404
8.7476e-06
-0.00349202
9.88543e-06
-0.00348973
1.11677e-05
-0.00348716
1.26126e-05
-0.00348424
1.42411e-05
-0.00348095
1.60768e-05
-0.00347724
1.81469e-05
-0.00347305
2.04828e-05
-0.00346832
2.31209e-05
-0.00346298
2.61037e-05
-0.00345695
2.94813e-05
-0.00345014
3.33134e-05
-0.00344243
3.76716e-05
-0.00343371
4.26437e-05
-0.00342383
4.83389e-05
-0.00341262
5.48964e-05
-0.00339986
6.24906e-05
-0.0033853
7.13283e-05
-0.00336862
8.16933e-05
-0.00334945
9.39722e-05
-0.00332728
0.000108686
-0.00330148
0.000126545
-0.00327122
0.000148511
-0.00323544
0.000175883
-0.00319276
0.000210379
-0.00314139
0.000254212
-0.00307906
0.000310142
-0.00300295
0.000381468
-0.0029096
0.000471968
-0.00279491
0.000585752
-0.0026541
0.000727037
-0.00248176
0.000899738
-0.00227211
0.00110673
-0.00201917
0.00134802
-0.00171743
0.00162179
-0.0013641
0.00191874
-0.00096225
0.00221359
-0.000525538
0.00245847
-8.61404e-05
0.00257489
0.000314867
0.00247208
0.000608426
0.0019984
0.000731875
0.00111761
0.000651417
-0.000150281
0.000406731
-0.00155263
9.39112e-05
-0.00256786
-0.00219595
-0.00350915
4.65395e-09
-0.00350915
6.11961e-09
-0.00350914
6.80531e-09
-0.00350914
8.26745e-09
-0.00350914
9.5015e-09
-0.00350914
1.11578e-08
-0.00350913
1.28701e-08
-0.00350913
1.49114e-08
-0.00350913
1.71689e-08
-0.00350912
1.97736e-08
-0.00350912
2.27165e-08
-0.00350911
2.60841e-08
-0.0035091
2.99155e-08
-0.00350909
3.42914e-08
-0.00350908
3.92816e-08
-0.00350907
4.49787e-08
-0.00350906
5.14803e-08
-0.00350904
5.89018e-08
-0.00350903
6.73722e-08
-0.00350901
7.70389e-08
-0.00350899
8.8069e-08
-0.00350896
1.00653e-07
-0.00350893
1.15005e-07
-0.0035089
1.31372e-07
-0.00350886
1.50031e-07
-0.00350882
1.71298e-07
-0.00350877
1.9553e-07
-0.00350871
2.23134e-07
-0.00350865
2.54566e-07
-0.00350858
2.90349e-07
-0.00350849
3.3107e-07
-0.0035084
3.77395e-07
-0.00350829
4.30076e-07
-0.00350816
4.89963e-07
-0.00350802
5.58018e-07
-0.00350786
6.35324e-07
-0.00350768
7.23104e-07
-0.00350747
8.22737e-07
-0.00350723
9.35777e-07
-0.00350696
1.06398e-06
-0.00350666
1.2093e-06
-0.00350631
1.37397e-06
-0.00350591
1.56048e-06
-0.00350546
1.77164e-06
-0.00350495
2.01058e-06
-0.00350437
2.28086e-06
-0.00350371
2.58644e-06
-0.00350297
2.93178e-06
-0.00350212
3.32188e-06
-0.00350116
3.76238e-06
-0.00350008
4.25957e-06
-0.00349885
4.82055e-06
-0.00349746
5.45327e-06
-0.00349589
6.16671e-06
-0.00349412
6.97093e-06
-0.00349211
7.87734e-06
-0.00348984
8.8988e-06
-0.00348728
1.00499e-05
-0.00348438
1.13472e-05
-0.00348111
1.28096e-05
-0.00347743
1.44588e-05
-0.00347326
1.63198e-05
-0.00346856
1.84218e-05
-0.00346326
2.07985e-05
-0.00345727
2.34899e-05
-0.0034505
2.65436e-05
-0.00344284
3.00167e-05
-0.00343418
3.39792e-05
-0.00342436
3.85181e-05
-0.00341321
4.37456e-05
-0.00340052
4.98014e-05
-0.00338604
5.6847e-05
-0.00336945
6.51086e-05
-0.00335037
7.48946e-05
-0.00332831
8.66212e-05
-0.00330262
0.000100855
-0.00327247
0.000118367
-0.00323679
0.000140201
-0.00319415
0.00016774
-0.00314271
0.000202774
-0.00308011
0.000247542
-0.00300338
0.00030473
-0.00290883
0.000377423
-0.00279207
0.000468988
-0.00264792
0.000582889
-0.00247055
0.000722367
-0.00225364
0.000889825
-0.00199087
0.00108525
-0.00167611
0.00130703
-0.00130605
0.00154868
-0.000883065
0.00179061
-0.000419567
0.00199497
5.19765e-05
0.00210334
0.000493514
0.00203054
0.000824675
0.00166724
0.000976462
0.000965823
0.000897813
-7.16326e-05
0.0006108
-0.00126562
0.000211499
-0.00216856
-0.00198445
-0.00350915
3.50434e-09
-0.00350915
4.59529e-09
-0.00350915
5.10839e-09
-0.00350914
6.20336e-09
-0.00350914
7.12918e-09
-0.00350914
8.37068e-09
-0.00350913
9.65441e-09
-0.00350913
1.11843e-08
-0.00350913
1.28762e-08
-0.00350912
1.4828e-08
-0.00350912
1.7033e-08
-0.00350911
1.95558e-08
-0.0035091
2.24259e-08
-0.00350909
2.57034e-08
-0.00350908
2.94406e-08
-0.00350907
3.37068e-08
-0.00350906
3.85748e-08
-0.00350904
4.4131e-08
-0.00350903
5.04719e-08
-0.00350901
5.77076e-08
-0.00350899
6.59632e-08
-0.00350896
7.53805e-08
-0.00350893
8.61206e-08
-0.0035089
9.83666e-08
-0.00350886
1.12326e-07
-0.00350882
1.28236e-07
-0.00350877
1.46362e-07
-0.00350871
1.67007e-07
-0.00350865
1.90515e-07
-0.00350858
2.17273e-07
-0.00350849
2.47721e-07
-0.0035084
2.82357e-07
-0.00350829
3.21741e-07
-0.00350817
3.6651e-07
-0.00350803
4.17379e-07
-0.00350786
4.75159e-07
-0.00350768
5.40762e-07
-0.00350748
6.15218e-07
-0.00350724
6.99687e-07
-0.00350697
7.95475e-07
-0.00350667
9.04054e-07
-0.00350632
1.02708e-06
-0.00350592
1.16641e-06
-0.00350548
1.32414e-06
-0.00350497
1.50262e-06
-0.00350439
1.70449e-06
-0.00350374
1.93272e-06
-0.003503
2.19063e-06
-0.00350216
2.48196e-06
-0.00350121
2.81091e-06
-0.00350013
3.18219e-06
-0.00349891
3.60108e-06
-0.00349753
4.07354e-06
-0.00349597
4.60625e-06
-0.0034942
5.20674e-06
-0.00349221
5.88352e-06
-0.00348996
6.6462e-06
-0.00348741
7.50567e-06
-0.00348454
8.47431e-06
-0.0034813
9.56625e-06
-0.00347764
1.07977e-05
-0.0034735
1.21874e-05
-0.00346884
1.37569e-05
-0.00346357
1.55317e-05
-0.00345762
1.75416e-05
-0.0034509
1.98221e-05
-0.0034433
2.24158e-05
-0.0034347
2.53749e-05
-0.00342494
2.87645e-05
-0.00341387
3.26692e-05
-0.00340126
3.7194e-05
-0.00338687
4.24567e-05
-0.00337039
4.8626e-05
-0.00335143
5.59318e-05
-0.00332949
6.46853e-05
-0.00330394
7.53088e-05
-0.00327396
8.83802e-05
-0.00323844
0.000104681
-0.00319595
0.00012525
-0.00314461
0.000151437
-0.003082
0.000184931
-0.00300504
0.000227769
-0.00290991
0.000282291
-0.00279198
0.00035106
-0.00264581
0.000436722
-0.00246522
0.000541773
-0.00224348
0.00066809
-0.00197392
0.00081569
-0.00165007
0.000983179
-0.00126798
0.00116659
-0.000829238
0.00135186
-0.000345106
0.00151084
0.000155959
0.00160228
0.000628958
0.00155754
0.000997297
0.0012989
0.00118292
0.000780201
0.00111777
-6.48101e-06
0.000804856
-0.000952709
0.000330798
-0.0016945
-0.00165365
-0.00350915
2.35031e-09
-0.00350915
3.0708e-09
-0.00350915
3.40651e-09
-0.00350914
4.13792e-09
-0.00350914
4.75213e-09
-0.00350914
5.58061e-09
-0.00350914
6.43469e-09
-0.00350913
7.45442e-09
-0.00350913
8.58093e-09
-0.00350912
9.88101e-09
-0.00350912
1.13491e-08
-0.00350911
1.3029e-08
-0.0035091
1.49396e-08
-0.00350909
1.71214e-08
-0.00350908
1.96088e-08
-0.00350907
2.24479e-08
-0.00350906
2.56871e-08
-0.00350905
2.93839e-08
-0.00350903
3.36023e-08
-0.00350901
3.84155e-08
-0.00350899
4.39065e-08
-0.00350896
5.01696e-08
-0.00350893
5.73116e-08
-0.0035089
6.54541e-08
-0.00350886
7.47351e-08
-0.00350882
8.53113e-08
-0.00350877
9.736e-08
-0.00350871
1.11082e-07
-0.00350865
1.26705e-07
-0.00350858
1.44487e-07
-0.00350849
1.6472e-07
-0.0035084
1.87732e-07
-0.00350829
2.13898e-07
-0.00350817
2.43639e-07
-0.00350803
2.77429e-07
-0.00350787
3.15807e-07
-0.00350769
3.59378e-07
-0.00350748
4.08825e-07
-0.00350725
4.64918e-07
-0.00350698
5.28523e-07
-0.00350668
6.00616e-07
-0.00350633
6.82296e-07
-0.00350594
7.74797e-07
-0.0035055
8.79506e-07
-0.00350499
9.97983e-07
-0.00350442
1.13198e-06
-0.00350377
1.28346e-06
-0.00350303
1.45464e-06
-0.0035022
1.64799e-06
-0.00350126
1.8663e-06
-0.00350019
2.11268e-06
-0.00349898
2.39066e-06
-0.00349761
2.70417e-06
-0.00349606
3.05766e-06
-0.00349431
3.45611e-06
-0.00349233
3.90518e-06
-0.00349009
4.41123e-06
-0.00348757
4.98149e-06
-0.00348472
5.62419e-06
-0.0034815
6.34869e-06
-0.00347787
7.16576e-06
-0.00347377
8.0878e-06
-0.00346914
9.1292e-06
-0.00346392
1.03068e-05
-0.00345802
1.16403e-05
-0.00345135
1.31534e-05
-0.00344381
1.48742e-05
-0.00343527
1.68373e-05
-0.00342559
1.90858e-05
-0.0034146
2.16768e-05
-0.00340208
2.46804e-05
-0.0033878
2.81717e-05
-0.00337143
3.22624e-05
-0.00335261
3.71053e-05
-0.00333083
4.29064e-05
-0.00330547
4.99449e-05
-0.00327569
5.86035e-05
-0.00324041
6.94001e-05
-0.00319818
8.30254e-05
-0.00314712
0.000100377
-0.00308477
0.000122582
-0.00300801
0.000151002
-0.00291292
0.000187203
-0.00279477
0.000232906
-0.00264794
0.000289892
-0.00246602
0.000359854
-0.00224202
0.000444092
-0.00196895
0.000542623
-0.00164017
0.000654398
-0.00125112
0.000777535
-0.000802424
0.00090317
-0.000304122
0.00101254
0.000218619
0.00107954
0.000719071
0.00105709
0.00112255
0.00089542
0.00134492
0.000557837
0.00130814
3.02967e-05
0.000981361
-0.000625931
0.000448016
-0.00116115
-0.00120564
-0.00350915
1.17339e-09
-0.00350915
1.5328e-09
-0.00350915
1.70187e-09
-0.00350914
2.06499e-09
-0.00350914
2.37272e-09
-0.00350914
2.78509e-09
-0.00350914
3.21149e-09
-0.00350913
3.7197e-09
-0.00350913
4.28162e-09
-0.00350912
4.92971e-09
-0.00350912
5.66169e-09
-0.00350911
6.49919e-09
-0.0035091
7.45178e-09
-0.00350909
8.53942e-09
-0.00350908
9.77945e-09
-0.00350907
1.11947e-08
-0.00350906
1.28093e-08
-0.00350905
1.46519e-08
-0.00350903
1.67545e-08
-0.00350901
1.91535e-08
-0.00350899
2.18903e-08
-0.00350896
2.50118e-08
-0.00350893
2.85709e-08
-0.0035089
3.26284e-08
-0.00350886
3.72529e-08
-0.00350882
4.25226e-08
-0.00350877
4.85257e-08
-0.00350872
5.53623e-08
-0.00350865
6.31455e-08
-0.00350858
7.20036e-08
-0.0035085
8.20818e-08
-0.0035084
9.35442e-08
-0.0035083
1.06576e-07
-0.00350817
1.21388e-07
-0.00350803
1.38216e-07
-0.00350788
1.57327e-07
-0.0035077
1.79023e-07
-0.00350749
2.03643e-07
-0.00350726
2.3157e-07
-0.00350699
2.63236e-07
-0.00350669
2.99126e-07
-0.00350635
3.39786e-07
-0.00350596
3.8583e-07
-0.00350552
4.37948e-07
-0.00350502
4.96916e-07
-0.00350445
5.63605e-07
-0.0035038
6.38993e-07
-0.00350307
7.24179e-07
-0.00350224
8.20395e-07
-0.00350131
9.29025e-07
-0.00350025
1.05162e-06
-0.00349905
1.18993e-06
-0.00349769
1.34592e-06
-0.00349615
1.52179e-06
-0.00349442
1.72002e-06
-0.00349245
1.94343e-06
-0.00349024
2.19518e-06
-0.00348774
2.47887e-06
-0.00348491
2.79859e-06
-0.00348172
3.15899e-06
-0.00347812
3.56542e-06
-0.00347406
4.02406e-06
-0.00346947
4.54206e-06
-0.00346429
5.12777e-06
-0.00345844
5.79103e-06
-0.00345183
6.54351e-06
-0.00344436
7.39921e-06
-0.00343589
8.37525e-06
-0.0034263
9.49312e-06
-0.00341541
1.07825e-05
-0.003403
1.22776e-05
-0.00338884
1.40121e-05
-0.00337263
1.60441e-05
-0.00335397
1.84491e-05
-0.00333239
2.13288e-05
-0.00330727
2.48211e-05
-0.00327778
2.91153e-05
-0.00324285
3.44676e-05
-0.00320104
4.12203e-05
-0.00315048
4.98188e-05
-0.00308872
6.08233e-05
-0.00301263
7.49106e-05
-0.00291829
9.28617e-05
-0.00280092
0.000115534
-0.00265484
0.000143817
-0.00247355
0.000178563
-0.00224989
0.000220428
-0.00197679
0.000269525
-0.00164732
0.00032493
-0.00125633
0.000386546
-0.000803559
0.000450395
-0.000297946
0.000506924
0.000238022
0.00054357
0.000759729
0.000535381
0.00119448
0.000460674
0.00145524
0.000297077
0.00145025
3.52805e-05
0.00112852
-0.000304201
0.000555883
-0.000588517
-0.000649755
-0.00350915
5.32717e-13
-0.00350915
-2.83892e-13
-0.00350915
-5.17404e-13
-0.00350914
-4.26538e-13
-0.00350914
-4.87129e-13
-0.00350914
-4.07478e-13
-0.00350914
-4.28229e-13
-0.00350913
-3.01223e-13
-0.00350913
-1.72928e-13
-0.00350912
-1.30849e-13
-0.00350912
-1.67097e-13
-0.00350911
-9.07384e-14
-0.0035091
-1.07788e-14
-0.00350909
5.48598e-14
-0.00350908
1.06384e-13
-0.00350907
7.17732e-14
-0.00350906
-5.25287e-14
-0.00350905
-2.06073e-13
-0.00350903
-2.41134e-13
-0.00350901
-1.18292e-13
-0.00350899
1.62601e-13
-0.00350896
4.11012e-13
-0.00350893
4.21928e-13
-0.0035089
1.70917e-13
-0.00350887
-8.22421e-14
-0.00350882
-1.48927e-13
-0.00350877
-1.47391e-13
-0.00350872
-1.01655e-13
-0.00350866
-1.42811e-14
-0.00350858
2.96251e-14
-0.0035085
1.87464e-14
-0.00350841
6.40619e-14
-0.0035083
1.12781e-13
-0.00350818
1.62911e-13
-0.00350804
1.99181e-13
-0.00350788
1.85853e-13
-0.00350771
1.82211e-13
-0.0035075
1.81531e-13
-0.00350727
1.38812e-13
-0.00350701
1.11941e-13
-0.00350671
8.74775e-14
-0.00350637
5.27036e-14
-0.00350598
3.12734e-14
-0.00350554
2.08583e-15
-0.00350505
2.84128e-15
-0.00350448
1.33547e-14
-0.00350384
1.83003e-14
-0.00350312
-2.33517e-14
-0.0035023
-2.42065e-14
-0.00350137
2.0514e-14
-0.00350032
5.06867e-14
-0.00349913
4.10296e-14
-0.00349778
1.57414e-14
-0.00349626
6.01745e-14
-0.00349454
1.8411e-13
-0.0034926
1.9065e-13
-0.0034904
2.34794e-13
-0.00348792
3.35305e-13
-0.00348513
4.3103e-13
-0.00348197
3.62116e-13
-0.0034784
9.98299e-14
-0.00347438
1.62269e-13
-0.00346984
1.94026e-13
-0.00346471
1.80761e-13
-0.00345892
3.56052e-13
-0.00345237
5.30201e-13
-0.00344497
5.37879e-13
-0.0034366
7.83218e-13
-0.00342711
1.17325e-12
-0.00341632
1.29571e-12
-0.00340405
1.63044e-12
-0.00339003
1.95858e-12
-0.00337399
2.212e-12
-0.00335554
1.79441e-12
-0.00333421
1.23701e-12
-0.00330939
1.0214e-12
-0.00328027
7.38625e-13
-0.00324581
3.9633e-13
-0.00320459
2.4837e-13
-0.00315477
1.87729e-13
-0.00309394
-8.57735e-13
-0.00301903
-1.62738e-12
-0.00292617
-3.00754e-12
-0.00281064
-3.28163e-12
-0.00266682
-1.54225e-12
-0.00248826
-1.84004e-12
-0.00226783
-2.66592e-12
-0.00199831
1.0309e-12
-0.00167338
2.49818e-13
-0.00128683
7.74428e-13
-0.000836435
1.28885e-12
-0.00032951
9.64315e-13
0.00021406
1.27977e-12
0.00074944
1.41205e-12
0.00121011
4.32339e-13
0.00150719
1.7659e-12
0.00154247
2.86548e-13
0.00123827
-6.55871e-12
0.000649755
-5.47804e-12
-2.641e-12
-0.000379516
0.0089564
-0.00886453
-0.000473961
0.008986
-0.00889156
-0.000571983
0.00901927
-0.00892125
-0.000673978
0.00906127
-0.00895928
-0.000780457
0.00911215
-0.00900567
-0.000891962
0.00917318
-0.00906168
-0.00100942
0.00924504
-0.00912759
-0.0011338
0.00932957
-0.00920519
-0.00126648
0.00942846
-0.00929577
-0.00140931
0.009544
-0.00940117
-0.00156478
0.00967788
-0.00952241
-0.00173603
0.00983142
-0.00966017
-0.00192773
0.0100072
-0.0098155
-0.00214543
0.0102176
-0.0099999
-0.00239517
0.0104776
-0.0102278
-0.00266136
0.0107945
-0.0105283
-0.00288338
0.0110307
-0.0108086
-0.00278306
0.0107616
-0.0108619
-0.00188869
0.00873772
-0.00963208
0.00338051
-0.0052692
-0.00037473
0.00904639
-0.000467441
0.00907872
-0.000563733
0.00911556
-0.000664054
0.0091616
-0.000768823
0.00921692
-0.000878606
0.00928297
-0.000994226
0.00936066
-0.00111664
0.00945198
-0.0012472
0.00955902
-0.00138777
0.00968456
-0.00154086
0.00983096
-0.00170971
0.0100003
-0.0018986
0.0101961
-0.00211205
0.0104311
-0.00235009
0.0107156
-0.00258187
0.0110263
-0.00270153
0.0111503
-0.00243436
0.0104944
-0.00141589
0.00771925
0.00196461
-0.000369305
0.00913441
-0.000460232
0.00916964
-0.000554779
0.00921011
-0.000653373
0.00926019
-0.000756415
0.00931996
-0.000864469
0.00939102
-0.0009783
0.00947449
-0.00109885
0.00957254
-0.0012275
0.00968766
-0.00136612
0.00982319
-0.00151732
0.00998217
-0.00168442
0.0101674
-0.00187132
0.010383
-0.00208043
0.0106402
-0.00230421
0.0109394
-0.00249405
0.0112161
-0.00251535
0.0111716
-0.00210489
0.010084
-0.00100209
0.00661645
0.000962523
-0.000363231
0.00922043
-0.000452313
0.00925872
-0.00054505
0.00930285
-0.000641844
0.00935698
-0.000743104
0.00942122
-0.000849366
0.00949728
-0.000961358
0.00958649
-0.00108002
0.00969119
-0.0012067
0.00981435
-0.00134334
0.00995983
-0.00149256
0.0101314
-0.0016576
0.0103324
-0.00184165
0.010567
-0.00204422
0.0108427
-0.00224934
0.0111445
-0.00239152
0.0113583
-0.00231707
0.0110972
-0.00179222
0.0095591
-0.000677111
0.00550134
0.000285412
-0.000356524
0.00930442
-0.000443702
0.0093459
-0.00053455
0.00939369
-0.000629462
0.00945189
-0.000728836
0.0095206
-0.000833177
0.00960162
-0.000943169
0.00969648
-0.00105973
0.00980775
-0.0011842
0.00993882
-0.00131851
0.0100941
-0.0014653
0.0102782
-0.00162762
0.0104947
-0.00180765
0.0107471
-0.00200121
0.0110363
-0.00218298
0.0113263
-0.00227298
0.0114483
-0.00210733
0.0109315
-0.00148564
0.00893742
-0.000429012
0.00444471
-0.0001436
-0.000349194
0.00938639
-0.000434427
0.00943114
-0.000523315
0.00948258
-0.000616262
0.00954484
-0.000713645
0.00961798
-0.000815926
0.0097039
-0.000923746
0.0098043
-0.00103798
0.00992199
-0.00115995
0.0100608
-0.00129155
0.0102257
-0.0014353
0.0104219
-0.00159385
0.0106533
-0.00176788
0.0109211
-0.00194902
0.0112174
-0.00210319
0.0114805
-0.0021403
0.0114854
-0.00189512
0.0106863
-0.00120225
0.00824456
-0.000249374
0.00349183
-0.000392974
-0.000341253
0.00946634
-0.000424515
0.0095144
-0.000511377
0.00956944
-0.000602285
0.00963575
-0.000697579
0.00971327
-0.000797674
0.009804
-0.000903159
0.00990978
-0.00101487
0.0100337
-0.00113408
0.01018
-0.00126264
0.0103543
-0.001403
0.0105623
-0.00155744
0.0108077
-0.0017252
0.0110888
-0.00189363
0.0113859
-0.0020196
0.0116064
-0.00200443
0.0114702
-0.00169065
0.0103726
-0.000956284
0.00751019
-0.000131716
0.00266726
-0.00052469
-0.000332698
0.00954427
-0.000413963
0.00959566
-0.000498759
0.00965424
-0.000587569
0.00972456
-0.000680698
0.0098064
-0.000778512
0.00990181
-0.000881549
0.0100128
-0.000990597
0.0101427
-0.00110687
0.0102963
-0.00123214
0.0104796
-0.00136861
0.0106987
-0.00151778
0.0109569
-0.00167664
0.0112477
-0.0018278
0.011537
-0.00192164
0.0117003
-0.00185756
0.0114061
-0.00149698
0.010012
-0.000753225
0.00676644
-6.66855e-05
0.00198072
-0.000591375
-0.000323584
0.00962021
-0.000402802
0.00967488
-0.000485496
0.00973693
-0.000572145
0.00981121
-0.000663016
0.00989727
-0.000758424
0.00999722
-0.000858849
0.0101132
-0.000965018
0.0102489
-0.00107808
0.0104093
-0.00119972
0.0106012
-0.00133205
0.0108311
-0.00147623
0.0111011
-0.00162801
0.0113995
-0.00176682
0.0116758
-0.00183738
0.0117708
-0.00173161
0.0113004
-0.00132578
0.00960614
-0.000598437
0.00603909
-5.00201e-05
0.00143231
-0.000641395
-0.000313989
0.00969454
-0.000390899
0.00975179
-0.000471579
0.00981762
-0.000556064
0.00989569
-0.000644687
0.0099859