/*--------------------------------*- C++ -*----------------------------------*\
  =========                 |
  \\      /  F ield         | OpenFOAM: The Open Source CFD Toolbox
   \\    /   O peration     | Website:  https://openfoam.org
    \\  /    A nd           | Version:  7
     \\/     M anipulation  |
\*---------------------------------------------------------------------------*/
FoamFile
{
    version     2.0;
    format      ascii;
    class       volScalarField;
    location    "86";
    object      p;
}
// * * * * * * * * * * * * * * * * * * * * * * * * * * * * * * * * * * * * * //

dimensions      [0 2 -2 0 0 0 0];

internalField   nonuniform List<scalar> 
7360
(
-0.000747936
-0.00226047
-0.00379902
-0.00538202
-0.00698746
-0.00859276
-0.0101771
-0.0117206
-0.0132066
-0.0146221
-0.0159572
-0.0172045
-0.0183586
-0.0194176
-0.0203813
-0.0212504
-0.0220274
-0.0227155
-0.0233188
-0.0238421
-0.0242905
-0.0246699
-0.0249861
-0.0252454
-0.0254542
-0.025619
-0.0257463
-0.0258427
-0.0259146
-0.0259682
-0.0260097
-0.0260446
-0.0260786
-0.0261165
-0.0261632
-0.0262226
-0.0262988
-0.026395
-0.0265141
-0.0266588
-0.0268312
-0.027033
-0.0272659
-0.027531
-0.0278292
-0.0281612
-0.0285275
-0.0289285
-0.0293643
-0.0298349
-0.0303402
-0.0308802
-0.0314545
-0.0320629
-0.032705
-0.0333806
-0.0340893
-0.0348307
-0.0356045
-0.0364103
-0.0372478
-0.0381165
-0.0390155
-0.0399484
-0.04091
-0.0419007
-0.0429212
-0.0439717
-0.0450515
-0.0461592
-0.0472924
-0.0484515
-0.0496416
-0.0508531
-0.0520877
-0.0533436
-0.0546184
-0.0559093
-0.0572128
-0.0585244
-0.0598392
-0.0611505
-0.0624509
-0.0637307
-0.0649787
-0.0661807
-0.0673202
-0.0683754
-0.0693244
-0.070129
-0.0707715
-0.0711621
-0.0713629
-0.071062
-0.0708057
-0.0692608
-0.0689859
-0.0657144
-0.0661147
-0.06215
-0.00075077
-0.00226441
-0.00380326
-0.00538315
-0.00698444
-0.00858545
-0.0101658
-0.0117058
-0.013189
-0.0146021
-0.015936
-0.0171823
-0.0183359
-0.0193949
-0.0203587
-0.0212282
-0.0220059
-0.0226948
-0.023299
-0.0238233
-0.0242728
-0.0246534
-0.0249708
-0.0252313
-0.0254414
-0.0256075
-0.025736
-0.0258337
-0.0259067
-0.0259615
-0.0260039
-0.0260399
-0.0260747
-0.0261134
-0.0261607
-0.0262208
-0.0262974
-0.0263939
-0.0265133
-0.0266581
-0.0268306
-0.0270324
-0.0272651
-0.0275299
-0.0278278
-0.0281594
-0.0285253
-0.0289257
-0.0293609
-0.0298309
-0.0303355
-0.0308747
-0.0314483
-0.0320558
-0.0326971
-0.0333718
-0.0340795
-0.0348199
-0.0355925
-0.0363971
-0.0372333
-0.0381009
-0.0390003
-0.0399294
-0.0408891
-0.041879
-0.0428983
-0.0439466
-0.0450235
-0.0461285
-0.0472617
-0.048422
-0.049606
-0.0508168
-0.0520503
-0.0533047
-0.0545778
-0.0558669
-0.0571684
-0.0584781
-0.0597907
-0.0610999
-0.0623978
-0.0636752
-0.0649204
-0.0661195
-0.0672558
-0.0683074
-0.0692522
-0.0700517
-0.0706883
-0.0710713
-0.0712603
-0.0709419
-0.070634
-0.0690857
-0.0686543
-0.0654525
-0.0656299
-0.0614958
-0.000732156
-0.00224142
-0.00377855
-0.00537752
-0.00700319
-0.00862898
-0.0102322
-0.0117917
-0.0132905
-0.0147158
-0.0160573
-0.0173091
-0.0184655
-0.0195252
-0.020488
-0.0213552
-0.0221292
-0.0228136
-0.0234125
-0.0239309
-0.0243741
-0.0247478
-0.0250582
-0.0253116
-0.0255143
-0.0256731
-0.0257944
-0.025885
-0.0259512
-0.0259995
-0.0260359
-0.0260663
-0.0260961
-0.0261305
-0.026174
-0.026231
-0.0263051
-0.0263999
-0.0265183
-0.0266627
-0.0268353
-0.0270379
-0.0272719
-0.0275386
-0.0278389
-0.0281733
-0.0285424
-0.0289465
-0.0293857
-0.02986
-0.0303694
-0.0309135
-0.0314923
-0.0321054
-0.0327524
-0.0334331
-0.034147
-0.0348939
-0.0356734
-0.0364851
-0.0373288
-0.038204
-0.0391107
-0.0400497
-0.0410161
-0.0420116
-0.0430381
-0.0440958
-0.0451841
-0.0463012
-0.0474417
-0.0486073
-0.0498012
-0.0510201
-0.0522621
-0.0535255
-0.0548079
-0.0561065
-0.0574179
-0.0587377
-0.0600608
-0.0613808
-0.0626901
-0.0639792
-0.065237
-0.0664496
-0.0676008
-0.0686694
-0.0696338
-0.070458
-0.0711246
-0.0715479
-0.0718048
-0.0715612
-0.0714983
-0.0699311
-0.0704
-0.0667417
-0.0687954
-0.0660889
-0.000742019
-0.0022529
-0.00379088
-0.00538027
-0.0069939
-0.00860753
-0.0101995
-0.0117495
-0.0132405
-0.0146595
-0.015997
-0.0172464
-0.0184016
-0.019461
-0.0204243
-0.0212927
-0.0220686
-0.0227552
-0.0233568
-0.0238781
-0.0243244
-0.0247015
-0.0250154
-0.0252724
-0.0254787
-0.0256411
-0.025766
-0.0258601
-0.0259297
-0.0259812
-0.0260206
-0.0260537
-0.026086
-0.0261225
-0.0261679
-0.0262264
-0.0263018
-0.0263974
-0.0265163
-0.0266609
-0.0268335
-0.0270357
-0.0272691
-0.027535
-0.0278341
-0.0281672
-0.0285349
-0.0289373
-0.0293746
-0.0298469
-0.030354
-0.0308959
-0.0314721
-0.0320826
-0.0327269
-0.0334046
-0.0341155
-0.034859
-0.0356349
-0.0364428
-0.0372824
-0.0381534
-0.0390554
-0.0399846
-0.0409478
-0.0419425
-0.0429658
-0.0440171
-0.0450961
-0.0462033
-0.047343
-0.0485113
-0.0497
-0.0509142
-0.0521518
-0.0534106
-0.0546882
-0.0559817
-0.0572877
-0.0586019
-0.0599191
-0.0612329
-0.0625356
-0.0638179
-0.0650683
-0.066273
-0.0674157
-0.0684748
-0.069429
-0.070241
-0.0708949
-0.0713012
-0.0715293
-0.0712393
-0.0710416
-0.0694743
-0.0694911
-0.0661115
-0.0672422
-0.0644958
-0.000696784
-0.00220968
-0.00374453
-0.00537284
-0.00703237
-0.00869124
-0.0103242
-0.0119087
-0.0134273
-0.0148675
-0.0162189
-0.017477
-0.0186365
-0.0196967
-0.0206578
-0.0215216
-0.0222907
-0.0229688
-0.0235606
-0.024071
-0.0245057
-0.0248704
-0.0251714
-0.0254152
-0.0256083
-0.0257574
-0.0258692
-0.0259505
-0.0260079
-0.0260479
-0.0260766
-0.0261
-0.0261236
-0.0261525
-0.0261916
-0.0262449
-0.0263164
-0.0264094
-0.0265269
-0.0266713
-0.0268448
-0.0270491
-0.0272856
-0.0275556
-0.0278598
-0.0281989
-0.0285733
-0.0289833
-0.029429
-0.0299103
-0.0304271
-0.0309792
-0.0315663
-0.0321882
-0.0328443
-0.0335345
-0.0342582
-0.0350151
-0.0358048
-0.036627
-0.0374813
-0.0383673
-0.0392847
-0.0402331
-0.0412115
-0.0422197
-0.0432579
-0.044326
-0.0454235
-0.0465493
-0.047702
-0.0488813
-0.0500868
-0.0513174
-0.0525713
-0.0538466
-0.055141
-0.0564517
-0.0577751
-0.0591069
-0.0604418
-0.0617737
-0.0630947
-0.0643956
-0.0656653
-0.0668903
-0.0680547
-0.0691385
-0.0701206
-0.0709689
-0.0716647
-0.072133
-0.0724439
-0.0722796
-0.0724402
-0.0708616
-0.0724695
-0.068031
-0.0739196
-0.0717136
-0.00071759
-0.00222725
-0.00376329
-0.00537539
-0.0070165
-0.00865747
-0.0102744
-0.0118452
-0.0133527
-0.0147839
-0.0161289
-0.0173845
-0.0185429
-0.0196032
-0.0205654
-0.0214311
-0.022203
-0.0228846
-0.0234803
-0.0239951
-0.0244344
-0.0248041
-0.0251103
-0.0253593
-0.0255576
-0.025712
-0.025829
-0.0259154
-0.0259776
-0.026022
-0.0260549
-0.0260821
-0.026109
-0.0261408
-0.0261822
-0.0262375
-0.0263105
-0.0264046
-0.0265226
-0.0266671
-0.0268403
-0.0270439
-0.0272793
-0.0275478
-0.0278502
-0.028187
-0.0285589
-0.028966
-0.0294083
-0.029886
-0.0303989
-0.0309467
-0.0315293
-0.0321461
-0.032797
-0.0334815
-0.0341992
-0.0349497
-0.0357327
-0.0365478
-0.0373947
-0.038273
-0.0391822
-0.0401218
-0.0410934
-0.042096
-0.043128
-0.0441884
-0.0452769
-0.0463938
-0.0475405
-0.0487152
-0.0499149
-0.0511392
-0.0523868
-0.0536558
-0.0549436
-0.0562476
-0.0575641
-0.0588888
-0.0602165
-0.0615408
-0.062854
-0.0641468
-0.0654079
-0.0666235
-0.0677776
-0.0688498
-0.069819
-0.0706515
-0.0713323
-0.0717809
-0.0720735
-0.0718446
-0.0718541
-0.0702696
-0.0712545
-0.0673252
-0.0711566
-0.0701099
-0.000632971
-0.00217238
-0.00370658
-0.0053765
-0.00707968
-0.00877876
-0.0104469
-0.0120602
-0.0136014
-0.0150585
-0.0164229
-0.0176836
-0.0188456
-0.0199056
-0.0208638
-0.0217223
-0.0224844
-0.0231541
-0.0237363
-0.0242363
-0.0246598
-0.0250129
-0.025302
-0.0255336
-0.0257146
-0.0258516
-0.0259517
-0.0260217
-0.0260683
-0.0260982
-0.0261176
-0.0261327
-0.0261492
-0.0261722
-0.0262066
-0.0262567
-0.0263263
-0.0264189
-0.0265373
-0.026684
-0.026861
-0.0270701
-0.0273125
-0.0275895
-0.0279016
-0.0282496
-0.0286337
-0.0290541
-0.0295109
-0.0300039
-0.0305329
-0.0310976
-0.0316978
-0.0323329
-0.0330027
-0.0337066
-0.0344444
-0.0352154
-0.0360194
-0.036856
-0.0377247
-0.0386251
-0.0395569
-0.0405198
-0.0415132
-0.0425369
-0.0435906
-0.0446738
-0.0457862
-0.046927
-0.0480956
-0.0492911
-0.0505126
-0.0517587
-0.0530279
-0.054318
-0.0556266
-0.0569506
-0.0582863
-0.059629
-0.0609732
-0.0623121
-0.0636376
-0.0649399
-0.0662073
-0.0674259
-0.068579
-0.0696471
-0.0706084
-0.0714351
-0.0721076
-0.0725805
-0.0728948
-0.0727826
-0.0730076
-0.0716533
-0.0743049
-0.0697585
-0.0826543
-0.0768585
-0.000668692
-0.00219306
-0.00372591
-0.00537423
-0.00705424
-0.00873216
-0.0103817
-0.0119793
-0.0135077
-0.0149541
-0.0163103
-0.0175705
-0.0187336
-0.0197949
-0.0207556
-0.0216175
-0.0223838
-0.0230584
-0.023646
-0.0241517
-0.0245812
-0.0249406
-0.0252361
-0.0254742
-0.0256615
-0.0258049
-0.0259112
-0.0259871
-0.0260395
-0.0260747
-0.0260992
-0.0261188
-0.0261393
-0.0261658
-0.026203
-0.0262552
-0.0263262
-0.0264193
-0.0265375
-0.0266831
-0.0268584
-0.0270649
-0.027304
-0.0275769
-0.0278844
-0.028227
-0.0286051
-0.0290189
-0.0294685
-0.0299538
-0.0304746
-0.0310308
-0.0316219
-0.0322476
-0.0329076
-0.0336015
-0.0343289
-0.0350894
-0.0358826
-0.0367082
-0.0375658
-0.0384552
-0.039376
-0.040328
-0.0413111
-0.0423251
-0.0433693
-0.0444432
-0.0455464
-0.0466785
-0.0478391
-0.0490273
-0.0502417
-0.0514812
-0.0527442
-0.0540288
-0.0553326
-0.0566526
-0.0579852
-0.0593261
-0.0606699
-0.06201
-0.0633386
-0.0646462
-0.0659214
-0.0671501
-0.068316
-0.0693988
-0.0703763
-0.0712169
-0.071899
-0.0723588
-0.0726685
-0.0725169
-0.0726952
-0.0711604
-0.0733097
-0.068543
-0.078011
-0.0758826
0.0339275
0.0374506
0.0380451
0.0383088
0.0371746
0.034967
0.031416
0.0264387
0.0198346
0.0114003
0.000908217
-0.011954
-0.0276843
-0.0460574
-0.0669711
-0.093269
-0.123647
-0.138554
-0.158248
-0.136761
0.0293636
0.0326552
0.0330709
0.0331102
0.0317494
0.0292862
0.0254554
0.020176
0.0132504
0.0044672
-0.0064382
-0.0198591
-0.0364911
-0.0562507
-0.0780902
-0.103552
-0.131036
-0.141842
-0.143548
-0.104989
0.0449698
0.0488218
0.0498509
0.0505447
0.0498826
0.048163
0.0451358
0.0406974
0.0346386
0.0267299
0.0166529
0.00396979
-0.0118671
-0.0311137
-0.055228
-0.085861
-0.121152
-0.150735
-0.17701
-0.189678
0.0391245
0.042813
0.043625
0.0440975
0.0431923
0.0412217
0.0379237
0.0332037
0.0268497
0.0186307
0.00824176
-0.00475731
-0.020885
-0.0398897
-0.0621051
-0.0893011
-0.118627
-0.134826
-0.158572
-0.15612
0.0583681
0.0626126
0.0640667
0.0652146
0.0650721
0.063882
0.0614223
0.0575703
0.0521145
0.044801
0.0352527
0.0230203
0.00740732
-0.0122836
-0.0377797
-0.0699069
-0.112425
-0.159437
-0.195011
-0.237789
0.0513795
0.0554086
0.0566544
0.0575678
0.057158
0.0556917
0.052935
0.0487711
0.0429864
0.0353313
0.0254443
0.0128844
-0.00289776
-0.0222903
-0.0466885
-0.0766307
-0.113124
-0.150119
-0.174058
-0.198837
0.0737595
0.0785647
0.08045
0.0820816
0.0825175
0.0819232
0.0800965
0.0769063
0.0721361
0.0655193
0.05665
0.0450648
0.0299106
0.0105146
-0.0152356
-0.0484008
-0.0948796
-0.148577
-0.210519
-0.264777
0.0658254
0.0703273
0.0719978
0.0733674
0.0735103
0.0726047
0.0704491
0.066912
0.0617784
0.0547838
0.0455367
0.0335882
0.0181951
-0.00130429
-0.0266108
-0.0587282
-0.102442
-0.151243
-0.194419
-0.234474
0.0906172
0.0961811
0.0985365
0.100818
0.101895
0.102021
0.100937
0.0985019
0.0945358
0.0887958
0.0808272
0.070234
0.0559769
0.0378034
0.012293
-0.0191506
-0.0671086
-0.121213
-0.204295
-0.260191
0.0820341
0.0871972
0.0893131
0.0912475
0.0919861
0.0917258
0.0902437
0.0874074
0.0830059
0.0767778
0.0683007
0.0571369
0.0423459
0.023448
-0.00225158
-0.0346762
-0.0812899
-0.134076
-0.201967
-0.241409
0.107849
0.11437
0.117147
0.120155
0.121843
0.122825
0.122662
0.121284
0.118497
0.114147
0.107676
0.0988369
0.0863098
0.0708596
0.0471363
0.0222338
-0.0256805
-0.0671142
-0.164337
-0.20334
0.0992691
0.105293
0.107871
0.110533
0.11194
0.1125
0.111869
0.109903
0.106456
0.101325
0.093976
0.08411
0.0704993
0.0535439
0.0285947
0.000644963
-0.0471444
-0.0922944
-0.178164
-0.206354
0.12448
0.132182
0.135076
0.138739
0.140765
0.142247
0.142591
0.142029
0.140143
0.136686
0.131466
0.124375
0.114234
0.102238
0.0828639
0.0661544
0.0233514
0.0108789
-0.0909932
-0.0523153
0.116155
0.12325
0.126111
0.12943
0.131261
0.132538
0.132681
0.13187
0.129694
0.125999
0.120361
0.112604
0.101346
0.0877358
0.0657556
0.0453481
-0.000865788
-0.0232685
-0.12045
-0.0946237
0.142352
0.151014
0.154555
0.159526
0.163171
0.166142
0.168261
0.169536
0.169671
0.168493
0.165834
0.161614
0.155297
0.147711
0.136924
0.129114
0.114137
0.126246
0.10086
0.232068
0.133258
0.141563
0.144541
0.148795
0.151438
0.153371
0.154214
0.154019
0.152379
0.149127
0.144106
0.137224
0.127726
0.116594
0.100521
0.0874906
0.0591378
0.0635712
0.00251152
0.117489
0.403933
0.403099
0.404398
0.403494
0.405382
0.40435
0.407429
0.406341
0.41148
0.41063
0.419521
0.419625
0.435664
0.438313
0.468785
0.476958
0.538545
0.551132
0.676355
0.554666
0.40392
0.403081
0.40437
0.403489
0.405339
0.404351
0.407372
0.406364
0.411423
0.41072
0.419501
0.419888
0.435771
0.438965
0.469098
0.478136
0.537913
0.549462
0.660211
0.501482
0.403955
0.403126
0.40444
0.403512
0.405445
0.404371
0.407525
0.406358
0.411626
0.410623
0.41974
0.419551
0.436035
0.438147
0.469733
0.477256
0.542834
0.559059
0.703543
0.663287
0.403943
0.403116
0.404418
0.403507
0.40541
0.404365
0.407469
0.406354
0.41154
0.410631
0.41961
0.419591
0.435819
0.438237
0.469207
0.477136
0.5405
0.55496
0.689593
0.612331
0.403972
0.403145
0.404472
0.403526
0.405492
0.404388
0.407598
0.406373
0.411736
0.410622
0.419906
0.419498
0.436312
0.438
0.470396
0.477309
0.545544
0.564516
0.719085
0.748774
0.403964
0.403139
0.404457
0.403522
0.405469
0.404383
0.40756
0.406368
0.411675
0.410621
0.419806
0.419508
0.436126
0.438016
0.469933
0.477118
0.54378
0.561303
0.710725
0.712246
0.40398
0.403153
0.404487
0.403532
0.405514
0.404396
0.407631
0.406381
0.411787
0.410624
0.419983
0.419477
0.436439
0.437931
0.470691
0.477308
0.546651
0.567014
0.724986
0.789191
0.403977
0.403151
0.404482
0.403531
0.405506
0.404395
0.407617
0.40638
0.411765
0.410623
0.419946
0.419479
0.43637
0.437934
0.470517
0.477235
0.546021
0.565816
0.722231
0.77607
0.403977
0.403151
0.404482
0.403531
0.405506
0.404395
0.407617
0.40638
0.411765
0.410623
0.419946
0.419479
0.43637
0.437934
0.470517
0.477235
0.546021
0.565816
0.722231
0.77607
0.40398
0.403153
0.404487
0.403532
0.405514
0.404396
0.407631
0.406381
0.411787
0.410624
0.419983
0.419477
0.436439
0.437931
0.470691
0.477308
0.546651
0.567013
0.724986
0.789191
0.403964
0.403139
0.404457
0.403522
0.405469
0.404383
0.40756
0.406368
0.411675
0.410621
0.419806
0.419508
0.436126
0.438016
0.469933
0.477118
0.54378
0.561303
0.710725
0.712246
0.403972
0.403145
0.404472
0.403526
0.405492
0.404388
0.407598
0.406373
0.411736
0.410622
0.419906
0.419498
0.436312
0.438
0.470396
0.477309
0.545544
0.564516
0.719085
0.748774
0.403943
0.403116
0.404418
0.403507
0.40541
0.404365
0.407469
0.406354
0.41154
0.410631
0.41961
0.419591
0.435819
0.438237
0.469207
0.477136
0.5405
0.55496
0.689593
0.612331
0.403955
0.403126
0.40444
0.403512
0.405445
0.404371
0.407525
0.406358
0.411626
0.410623
0.41974
0.419551
0.436035
0.438147
0.469733
0.477256
0.542834
0.559059
0.703543
0.663287
0.40392
0.403081
0.40437
0.403489
0.405339
0.404351
0.407372
0.406364
0.411423
0.41072
0.419501
0.419888
0.435771
0.438965
0.469098
0.478136
0.537913
0.549462
0.660211
0.501481
0.403933
0.403099
0.404398
0.403494
0.405382
0.40435
0.407429
0.406341
0.41148
0.41063
0.419521
0.419625
0.435664
0.438313
0.468785
0.476958
0.538545
0.551132
0.676355
0.554665
0.133258
0.141563
0.144541
0.148795
0.151438
0.153371
0.154214
0.154019
0.152379
0.149127
0.144105
0.137224
0.127725
0.116594
0.100521
0.0874901
0.0591372
0.0635706
0.00251088
0.117488
0.142352
0.151014
0.154555
0.159526
0.163171
0.166142
0.168261
0.169536
0.169671
0.168493
0.165834
0.161614
0.155297
0.147711
0.136923
0.129113
0.114137
0.126246
0.10086
0.232067
0.116155
0.12325
0.12611
0.12943
0.13126
0.132538
0.13268
0.131869
0.129694
0.125999
0.120361
0.112604
0.101345
0.0877353
0.0657551
0.0453475
-0.000866403
-0.0232692
-0.120451
-0.0946244
0.12448
0.132182
0.135075
0.138739
0.140765
0.142246
0.142591
0.142028
0.140143
0.136686
0.131466
0.124375
0.114234
0.102237
0.0828634
0.0661539
0.0233508
0.0108782
-0.0909939
-0.052316
0.0992689
0.105293
0.10787
0.110533
0.11194
0.1125
0.111869
0.109903
0.106456
0.101325
0.0939756
0.0841095
0.0704988
0.0535433
0.0285941
0.000644351
-0.0471451
-0.0922951
-0.178165
-0.206355
0.107849
0.11437
0.117147
0.120155
0.121843
0.122824
0.122661
0.121284
0.118497
0.114146
0.107676
0.0988365
0.0863093
0.070859
0.0471358
0.0222332
-0.0256811
-0.0671149
-0.164338
-0.203341
0.0820339
0.087197
0.0893129
0.0912473
0.0919858
0.0917255
0.0902434
0.087407
0.0830055
0.0767774
0.0683003
0.0571364
0.0423454
0.0234475
-0.0022522
-0.0346769
-0.0812906
-0.134077
-0.201968
-0.24141
0.090617
0.0961809
0.0985363
0.100818
0.101894
0.10202
0.100937
0.0985016
0.0945355
0.0887954
0.0808267
0.0702335
0.0559764
0.0378028
0.0122924
-0.0191512
-0.0671092
-0.121213
-0.204296
-0.260191
0.0658252
0.0703271
0.0719976
0.0733672
0.07351
0.0726045
0.0704488
0.0669116
0.061778
0.0547834
0.0455363
0.0335877
0.0181945
-0.00130489
-0.0266114
-0.0587289
-0.102443
-0.151243
-0.19442
-0.234475
0.0737593
0.0785645
0.0804498
0.0820813
0.0825172
0.0819229
0.0800962
0.0769059
0.0721357
0.0655189
0.0566496
0.0450643
0.02991
0.0105141
-0.0152362
-0.0484015
-0.0948803
-0.148578
-0.21052
-0.264778
0.0513794
0.0554084
0.0566542
0.0575676
0.0571578
0.0556915
0.0529347
0.0487708
0.042986
0.0353309
0.0254439
0.0128838
-0.00289836
-0.022291
-0.0466892
-0.0766314
-0.113125
-0.15012
-0.174059
-0.198838
0.0583679
0.0626125
0.0640665
0.0652144
0.0650719
0.0638817
0.061422
0.05757
0.0521141
0.0448006
0.0352522
0.0230198
0.00740675
-0.0122842
-0.0377804
-0.0699076
-0.112426
-0.159437
-0.195012
-0.23779
0.0391245
0.0428129
0.0436248
0.0440973
0.0431921
0.0412215
0.0379234
0.0332033
0.0268493
0.0186302
0.00824124
-0.00475789
-0.0208856
-0.0398904
-0.0621059
-0.089302
-0.118628
-0.134827
-0.158573
-0.156121
0.0449697
0.0488216
0.0498507
0.0505445
0.0498823
0.0481627
0.0451355
0.040697
0.0346382
0.0267294
0.0166524
0.00396924
-0.0118677
-0.0311144
-0.0552288
-0.0858618
-0.121152
-0.150736
-0.177011
-0.189679
0.0293635
0.0326551
0.0330708
0.0331101
0.0317492
0.0292859
0.0254551
0.0201757
0.01325
0.00446671
-0.00643876
-0.0198597
-0.0364918
-0.0562515
-0.078091
-0.103553
-0.131037
-0.141843
-0.143549
-0.10499
0.0339274
0.0374505
0.0380449
0.0383086
0.0371744
0.0349668
0.0314157
0.0264383
0.0198341
0.0113998
0.000907681
-0.0119546
-0.027685
-0.0460581
-0.0669719
-0.0932698
-0.123648
-0.138555
-0.158249
-0.136761
-0.000668642
-0.00219294
-0.00372577
-0.00537414
-0.00705426
-0.00873235
-0.0103821
-0.01198
-0.0135087
-0.0149555
-0.0163119
-0.0175725
-0.018736
-0.0197976
-0.0207585
-0.0216206
-0.022387
-0.0230616
-0.0236492
-0.0241548
-0.0245841
-0.0249432
-0.0252383
-0.0254759
-0.0256628
-0.0258057
-0.0259114
-0.0259867
-0.0260385
-0.0260732
-0.0260971
-0.0261162
-0.0261363
-0.0261623
-0.0261992
-0.0262512
-0.026322
-0.0264151
-0.0265333
-0.026679
-0.0268545
-0.0270613
-0.0273008
-0.0275741
-0.0278821
-0.0282252
-0.0286039
-0.0290184
-0.0294686
-0.0299546
-0.0304761
-0.0310328
-0.0316245
-0.0322508
-0.0329113
-0.0336055
-0.0343332
-0.0350939
-0.0358872
-0.0367128
-0.0375703
-0.0384595
-0.03938
-0.0403316
-0.0413141
-0.0423274
-0.0433709
-0.0444441
-0.0455466
-0.0466781
-0.0478382
-0.0490258
-0.0502397
-0.0514786
-0.0527412
-0.0540255
-0.055329
-0.056649
-0.0579816
-0.0593227
-0.0606667
-0.0620071
-0.0633362
-0.0646442
-0.0659198
-0.0671491
-0.0683155
-0.0693987
-0.0703765
-0.0712175
-0.0718998
-0.0723597
-0.0726695
-0.0725179
-0.0726962
-0.0711613
-0.0733105
-0.0685437
-0.0780117
-0.0758833
-0.000632911
-0.00217224
-0.00370642
-0.00537639
-0.00707969
-0.00877897
-0.0104474
-0.012061
-0.0136026
-0.0150601
-0.0164248
-0.0176859
-0.0188483
-0.0199086
-0.0208671
-0.0217258
-0.022488
-0.0231577
-0.0237399
-0.0242397
-0.024663
-0.0250157
-0.0253044
-0.0255356
-0.025716
-0.0258525
-0.0259519
-0.0260212
-0.0260672
-0.0260964
-0.0261152
-0.0261298
-0.0261457
-0.0261683
-0.0262023
-0.0262521
-0.0263216
-0.0264141
-0.0265325
-0.0266793
-0.0268566
-0.027066
-0.0273089
-0.0275864
-0.0278991
-0.0282477
-0.0286325
-0.0290537
-0.0295112
-0.0300049
-0.0305347
-0.0311001
-0.0317009
-0.0323366
-0.0330069
-0.0337113
-0.0344493
-0.0352205
-0.0360246
-0.0368611
-0.0377296
-0.0386297
-0.0395612
-0.0405235
-0.0415164
-0.0425395
-0.0435924
-0.0446749
-0.0457864
-0.0469265
-0.0480942
-0.0492891
-0.0505099
-0.0517556
-0.0530243
-0.0543142
-0.0556226
-0.0569466
-0.0582823
-0.0596252
-0.0609697
-0.062309
-0.063635
-0.0649378
-0.0662058
-0.0674248
-0.0685785
-0.069647
-0.0706087
-0.0714358
-0.0721085
-0.0725816
-0.0728959
-0.0727837
-0.0730087
-0.0716542
-0.0743058
-0.0697593
-0.0826551
-0.0768593
-0.000717559
-0.00222717
-0.0037632
-0.00537533
-0.00701651
-0.00865761
-0.0102747
-0.0118457
-0.0133535
-0.0147849
-0.0161301
-0.017386
-0.0185447
-0.0196051
-0.0205675
-0.0214334
-0.0222053
-0.0228869
-0.0234826
-0.0239973
-0.0244365
-0.0248059
-0.0251119
-0.0253606
-0.0255586
-0.0257126
-0.0258292
-0.0259151
-0.0259769
-0.026021
-0.0260535
-0.0260802
-0.0261068
-0.0261384
-0.0261796
-0.0262347
-0.0263075
-0.0264015
-0.0265195
-0.0266641
-0.0268375
-0.0270413
-0.027277
-0.0275457
-0.0278485
-0.0281857
-0.028558
-0.0289655
-0.0294084
-0.0298865
-0.0303999
-0.0309481
-0.0315311
-0.0321483
-0.0327995
-0.0334843
-0.0342022
-0.0349529
-0.035736
-0.0365511
-0.0373979
-0.0382759
-0.0391849
-0.0401243
-0.0410946
-0.0420964
-0.0431278
-0.0441878
-0.0452759
-0.0463929
-0.04754
-0.0487142
-0.0499135
-0.0511375
-0.0523848
-0.0536535
-0.0549412
-0.056245
-0.0575615
-0.0588863
-0.0602141
-0.0615387
-0.0628522
-0.0641453
-0.0654067
-0.0666226
-0.0677771
-0.0688496
-0.0698191
-0.0706518
-0.0713328
-0.0717816
-0.0720742
-0.0718454
-0.0718548
-0.0702702
-0.0712551
-0.0673258
-0.0711572
-0.0701106
-0.000696744
-0.00220958
-0.00374442
-0.00537276
-0.00703239
-0.00869141
-0.0103246
-0.0119093
-0.0134282
-0.0148687
-0.0162205
-0.0174788
-0.0186386
-0.019699
-0.0206604
-0.0215242
-0.0222934
-0.0229716
-0.0235634
-0.0240737
-0.0245081
-0.0248726
-0.0251734
-0.0254168
-0.0256094
-0.0257581
-0.0258694
-0.0259502
-0.0260071
-0.0260466
-0.0260748
-0.0260977
-0.0261209
-0.0261496
-0.0261883
-0.0262415
-0.0263128
-0.0264058
-0.0265232
-0.0266677
-0.0268414
-0.0270459
-0.0272828
-0.0275531
-0.0278578
-0.0281974
-0.0285723
-0.0289828
-0.0294291
-0.0299109
-0.0304283
-0.030981
-0.0315686
-0.0321909
-0.0328475
-0.0335379
-0.0342619
-0.035019
-0.0358088
-0.036631
-0.0374852
-0.038371
-0.0392882
-0.0402363
-0.0412147
-0.0422226
-0.0432603
-0.0443278
-0.0454245
-0.0465494
-0.0477011
-0.0488798
-0.0500849
-0.051315
-0.0525686
-0.0538436
-0.0551379
-0.0564485
-0.0577719
-0.0591038
-0.060439
-0.0617711
-0.0630925
-0.0643938
-0.065664
-0.0668893
-0.0680541
-0.0691383
-0.0701207
-0.0709693
-0.0716654
-0.0721337
-0.0724448
-0.0722805
-0.0724411
-0.0708624
-0.0724702
-0.0680317
-0.0739202
-0.0717143
-0.000742003
-0.00225286
-0.00379083
-0.00538024
-0.00699392
-0.00860761
-0.0101997
-0.0117498
-0.0132409
-0.01466
-0.0159977
-0.0172472
-0.0184025
-0.0194621
-0.0204255
-0.021294
-0.0220699
-0.0227565
-0.0233581
-0.0238793
-0.0243256
-0.0247026
-0.0250164
-0.0252731
-0.0254793
-0.0256414
-0.0257662
-0.02586
-0.0259293
-0.0259806
-0.0260198
-0.0260527
-0.0260848
-0.0261211
-0.0261664
-0.0262248
-0.0263001
-0.0263957
-0.0265146
-0.0266592
-0.0268318
-0.0270342
-0.0272678
-0.0275338
-0.0278331
-0.0281665
-0.0285343
-0.028937
-0.0293746
-0.0298471
-0.0303545
-0.0308966
-0.0314731
-0.0320838
-0.0327283
-0.0334062
-0.0341172
-0.0348608
-0.0356368
-0.0364447
-0.0372841
-0.0381547
-0.0390559
-0.0399863
-0.0409472
-0.0419415
-0.0429645
-0.0440155
-0.0450943
-0.0462021
-0.0473435
-0.0485102
-0.0496995
-0.0509136
-0.0521509
-0.0534094
-0.0546868
-0.0559803
-0.0572863
-0.0586005
-0.0599178
-0.0612317
-0.0625345
-0.063817
-0.0650676
-0.0662725
-0.0674153
-0.0684746
-0.0694289
-0.0702411
-0.0708951
-0.0713016
-0.0715297
-0.0712397
-0.071042
-0.0694747
-0.0694915
-0.0661119
-0.0672425
-0.0644962
-0.000732132
-0.00224136
-0.00377848
-0.00537747
-0.00700321
-0.0086291
-0.0102324
-0.0117921
-0.0132911
-0.0147166
-0.0160583
-0.0173103
-0.0184668
-0.0195267
-0.0204896
-0.0213569
-0.0221311
-0.0228154
-0.0234143
-0.0239326
-0.0243757
-0.0247493
-0.0250595
-0.0253126
-0.0255151
-0.0256735
-0.0257945
-0.0258848
-0.0259507
-0.0259987
-0.0260348
-0.0260649
-0.0260944
-0.0261285
-0.0261719
-0.0262287
-0.0263028
-0.0263975
-0.0265159
-0.0266603
-0.026833
-0.0270358
-0.02727
-0.027537
-0.0278375
-0.0281722
-0.0285417
-0.0289462
-0.0293857
-0.0298604
-0.0303701
-0.0309146
-0.0314937
-0.0321071
-0.0327544
-0.0334353
-0.0341495
-0.0348965
-0.0356761
-0.0364878
-0.0373314
-0.0382067
-0.0391135
-0.0400519
-0.0410202
-0.0420157
-0.0430419
-0.0440993
-0.045187
-0.0463029
-0.0474407
-0.0486064
-0.0497998
-0.0510184
-0.0522602
-0.0535235
-0.0548058
-0.0561044
-0.0574158
-0.0587357
-0.0600589
-0.0613791
-0.0626885
-0.0639779
-0.065236
-0.0664489
-0.0676003
-0.0686692
-0.0696339
-0.0704583
-0.071125
-0.0715484
-0.0718054
-0.0715618
-0.0714989
-0.0699316
-0.0704005
-0.0667421
-0.0687959
-0.0660894
-0.000750766
-0.0022644
-0.00380325
-0.00538315
-0.00698444
-0.00858547
-0.0101658
-0.0117059
-0.0131891
-0.0146023
-0.0159361
-0.0171825
-0.0183361
-0.0193951
-0.0203589
-0.0212285
-0.0220061
-0.022695
-0.0232993
-0.0238235
-0.0242731
-0.0246536
-0.024971
-0.0252315
-0.0254415
-0.0256075
-0.0257361
-0.0258336
-0.0259066
-0.0259613
-0.0260038
-0.0260397
-0.0260745
-0.0261132
-0.0261604
-0.0262205
-0.0262971
-0.0263936
-0.026513
-0.0266578
-0.0268302
-0.0270321
-0.0272648
-0.0275297
-0.0278276
-0.0281592
-0.0285252
-0.0289257
-0.0293609
-0.0298309
-0.0303356
-0.0308749
-0.0314484
-0.032056
-0.0326974
-0.0333721
-0.0340798
-0.0348202
-0.0355929
-0.0363975
-0.0372337
-0.038101
-0.0389988
-0.0399287
-0.0408882
-0.0418779
-0.0428971
-0.0439453
-0.0450222
-0.0461275
-0.0472611
-0.0484211
-0.0496071
-0.0508174
-0.0520504
-0.0533046
-0.0545777
-0.0558667
-0.0571682
-0.0584778
-0.0597904
-0.0610996
-0.0623976
-0.063675
-0.0649203
-0.0661193
-0.0672557
-0.0683073
-0.0692522
-0.0700517
-0.0706884
-0.0710714
-0.0712604
-0.0709419
-0.0706341
-0.0690857
-0.0686543
-0.0654526
-0.06563
-0.0614959
-0.000747926
-0.00226045
-0.00379899
-0.005382
-0.00698746
-0.00859281
-0.0101772
-0.0117208
-0.0132069
-0.0146224
-0.0159576
-0.017205
-0.0183591
-0.0194183
-0.020382
-0.0212512
-0.0220282
-0.0227163
-0.0233196
-0.0238429
-0.0242913
-0.0246705
-0.0249867
-0.0252459
-0.0254545
-0.0256192
-0.0257464
-0.0258426
-0.0259144
-0.0259679
-0.0260092
-0.026044
-0.0260778
-0.0261157
-0.0261622
-0.0262217
-0.0262978
-0.0263939
-0.0265131
-0.0266578
-0.0268302
-0.0270321
-0.0272651
-0.0275303
-0.0278286
-0.0281607
-0.0285272
-0.0289283
-0.0293643
-0.029835
-0.0303405
-0.0308806
-0.0314551
-0.0320636
-0.0327059
-0.0333816
-0.0340904
-0.0348318
-0.0356057
-0.0364115
-0.037249
-0.0381181
-0.0390187
-0.0399499
-0.0409121
-0.0419029
-0.0429234
-0.0439737
-0.0450532
-0.0461602
-0.0472924
-0.0484522
-0.0496401
-0.0508519
-0.0520866
-0.0533426
-0.0546174
-0.0559083
-0.0572118
-0.0585235
-0.0598383
-0.0611498
-0.0624502
-0.0637302
-0.0649782
-0.0661803
-0.06732
-0.0683753
-0.0693244
-0.0701291
-0.0707717
-0.0711623
-0.0713631
-0.0710623
-0.0708059
-0.069261
-0.0689861
-0.0657146
-0.0661149
-0.0621502
0.402469
0.402213
0.402101
0.401718
0.401287
0.400505
0.399545
0.398136
0.396193
0.393772
0.390012
0.385055
0.377333
0.367649
0.352287
0.334295
0.30507
0.274633
0.2247
0.180047
0.402526
0.402222
0.402208
0.401781
0.401498
0.400684
0.399986
0.398573
0.397073
0.394613
0.391443
0.386749
0.379827
0.370958
0.356489
0.340253
0.311348
0.283773
0.232062
0.190009
0.402581
0.402241
0.402299
0.401849
0.401663
0.400843
0.400287
0.39892
0.397624
0.395314
0.392506
0.388142
0.381795
0.373606
0.359915
0.344847
0.316499
0.290532
0.237617
0.196889
0.402647
0.402265
0.402404
0.401927
0.401859
0.401023
0.400686
0.399314
0.398385
0.396108
0.393838
0.389722
0.38419
0.376621
0.364018
0.350113
0.322602
0.298286
0.243967
0.204677
0.40272
0.402296
0.402518
0.402014
0.402068
0.401219
0.401086
0.399739
0.399155
0.396962
0.395267
0.391418
0.386816
0.379854
0.368563
0.355727
0.329407
0.306478
0.250821
0.21272
0.4028
0.402332
0.402639
0.402109
0.402289
0.401428
0.401517
0.400185
0.399976
0.397864
0.396801
0.393204
0.389666
0.383271
0.373533
0.36167
0.336927
0.315139
0.258282
0.22105
0.402886
0.402374
0.402765
0.402211
0.40252
0.401647
0.401963
0.40065
0.400835
0.398806
0.398428
0.395069
0.392726
0.386859
0.378933
0.367937
0.345223
0.32431
0.26651
0.229777
0.402975
0.40242
0.402897
0.402318
0.402758
0.401875
0.402423
0.401131
0.401723
0.399779
0.400128
0.397
0.395971
0.390587
0.38477
0.374523
0.354349
0.334021
0.275707
0.238949
0.403068
0.402469
0.403031
0.402429
0.403
0.402109
0.402891
0.401621
0.40263
0.400777
0.401884
0.398987
0.399366
0.394431
0.391027
0.381434
0.364359
0.344305
0.286124
0.248568
0.403162
0.402522
0.403167
0.402542
0.403243
0.402346
0.403361
0.402118
0.403546
0.40179
0.403674
0.401014
0.402874
0.398379
0.397661
0.388685
0.375319
0.355196
0.298063
0.258613
0.403257
0.402577
0.403303
0.402657
0.403486
0.402584
0.40383
0.402616
0.404462
0.402808
0.405476
0.403068
0.406453
0.402423
0.40462
0.39623
0.38735
0.36675
0.311886
0.269032
0.403351
0.402634
0.403437
0.402771
0.403725
0.40282
0.404291
0.403109
0.405365
0.403823
0.407269
0.405132
0.410058
0.406544
0.411819
0.404054
0.4005
0.379086
0.328044
0.279708
0.403443
0.402691
0.403569
0.402883
0.403957
0.403052
0.40474
0.403594
0.406248
0.404824
0.40903
0.407186
0.413642
0.410715
0.419165
0.412162
0.414722
0.392469
0.347069
0.290459
0.40353
0.402748
0.403696
0.402992
0.404181
0.403277
0.405172
0.404064
0.407099
0.405801
0.410738
0.409211
0.417158
0.414905
0.426556
0.420565
0.429922
0.407159
0.369594
0.301112
0.403612
0.402805
0.403818
0.403095
0.404395
0.403491
0.405583
0.404514
0.407909
0.406741
0.412373
0.411184
0.420559
0.419072
0.433882
0.429252
0.445892
0.42324
0.396562
0.311704