/*--------------------------------*- C++ -*----------------------------------*\
  =========                 |
  \\      /  F ield         | OpenFOAM: The Open Source CFD Toolbox
   \\    /   O peration     | Website:  https://openfoam.org
    \\  /    A nd           | Version:  7
     \\/     M anipulation  |
\*---------------------------------------------------------------------------*/
FoamFile
{
    version     2.0;
    format      ascii;
    class       surfaceScalarField;
    location    "4";
    object      phi;
}
// * * * * * * * * * * * * * * * * * * * * * * * * * * * * * * * * * * * * * //

dimensions      [0 3 -1 0 0 0 0];

internalField   nonuniform List<scalar> 
226
(
-0.00817277
-7.0785e-06
-0.00817264
-7.96874e-06
-0.00817248
-8.96743e-06
-0.0081723
-1.00873e-05
-0.0081721
-1.13424e-05
-0.00817187
-1.27484e-05
-0.00817159
-1.43227e-05
-0.00817128
-1.60846e-05
-0.00817093
-1.80552e-05
-0.00817052
-2.02582e-05
-0.00817005
-2.27195e-05
-0.00816951
-2.54678e-05
-2.85347e-05
-0.00817339
-4.99164e-06
-0.00817334
-5.6282e-06
-0.00817328
-6.34359e-06
-0.00817321
-7.1472e-06
-0.00817313
-8.04959e-06
-0.00817303
-9.06243e-06
-0.00817292
-1.01988e-05
-0.00817279
-1.14731e-05
-0.00817264
-1.29014e-05
-0.00817246
-1.45016e-05
-0.00817225
-1.62935e-05
-0.00817201
-1.82989e-05
-0.00817172
-2.05422e-05
-0.00817139
-2.30502e-05
-0.00817101
-2.58524e-05
-2.89816e-05
-0.00817369
-4.99959e-06
-0.00817368
-5.63974e-06
-0.00817367
-6.35955e-06
-0.00817365
-7.1686e-06
-0.00817362
-8.0776e-06
-0.00817358
-9.09848e-06
-0.00817354
-1.02445e-05
-0.00817348
-1.15305e-05
-0.00817341
-1.29728e-05
-0.00817332
-1.45897e-05
-0.00817321
-1.64015e-05
-0.00817308
-1.84306e-05
-0.00817292
-2.07019e-05
-0.00817273
-2.3243e-05
-0.0081725
-2.60843e-05
-2.92595e-05
-0.00817399
-4.97482e-06
-0.00817402
-5.61468e-06
-0.00817404
-6.3346e-06
-0.00817407
-7.1443e-06
-0.00817409
-8.05462e-06
-0.00817411
-9.07766e-06
-0.00817413
-1.02269e-05
-0.00817414
-1.15173e-05
-0.00817415
-1.29657e-05
-0.00817415
-1.45905e-05
-0.00817414
-1.64125e-05
-0.00817411
-1.84546e-05
-0.00817407
-2.07422e-05
-0.00817401
-2.33036e-05
-0.00817393
-2.617e-05
-2.93759e-05
-0.00817427
-4.91974e-06
-0.00817433
-5.55574e-06
-0.00817439
-6.27185e-06
-0.00817446
-7.07782e-06
-0.00817453
-7.98462e-06
-0.0081746
-9.00446e-06
-0.00817468
-1.0151e-05
-0.00817476
-1.14393e-05
-0.00817484
-1.28865e-05
-0.00817492
-1.45114e-05
-0.00817499
-1.63349e-05
-0.00817507
-1.83805e-05
-0.00817514
-2.0674e-05
-0.0081752
-2.32443e-05
-0.00817524
-2.61233e-05
-2.93464e-05
-0.00817452
-4.83854e-06
-0.0081746
-5.46769e-06
-0.0081747
-6.17663e-06
-0.0081748
-6.9752e-06
-0.00817491
-7.87441e-06
-0.00817503
-8.88657e-06
-0.00817515
-1.00254e-05
-0.00817529
-1.13063e-05
-0.00817543
-1.27464e-05
-0.00817557
-1.43648e-05
-0.00817573
-1.61827e-05
-0.00817588
-1.8224e-05
-0.00817604
-2.05149e-05
-0.0081762
-2.30849e-05
-0.00817636
-2.59666e-05
-2.91961e-05
-0.0081747
-4.73763e-06
-0.00817481
-5.3577e-06
-0.00817493
-6.05706e-06
-0.00817506
-6.84555e-06
-0.0081752
-7.73424e-06
-0.00817535
-8.7355e-06
-0.00817551
-9.86318e-06
-0.00817569
-1.11328e-05
-0.00817587
-1.25615e-05
-0.00817607
-1.41688e-05
-0.00817628
-1.59763e-05
-0.00817649
-1.80079e-05
-0.00817672
-2.02905e-05
-0.00817695
-2.2854e-05
-0.00817718
-2.57317e-05
-2.89606e-05
-0.00817481
-0.00817493
-0.00817506
-0.00817521
-0.00817536
-0.00817553
-0.00817571
-0.00817591
-0.00817612
-0.00817634
-0.00817657
-0.00817682
-0.00817708
-0.00817735
-0.00817762
)
;

boundaryField
{
    inlet
    {
        type            calculated;
        value           nonuniform 0();
    }
    outlet
    {
        type            calculated;
        value           nonuniform 0();
    }
    polygon
    {
        type            calculated;
        value           nonuniform 0();
    }
    top
    {
        type            symmetryPlane;
        value           uniform 0;
    }
    bottom
    {
        type            symmetryPlane;
        value           uniform 0;
    }
    outside
    {
        type            calculated;
        value           nonuniform List<scalar> 
16
(
-4.62586e-06
-5.2357e-06
-5.92421e-06
-6.70124e-06
-7.5779e-06
-8.56663e-06
-9.68136e-06
-1.09377e-05
-1.23531e-05
-1.39471e-05
-1.57417e-05
-1.7761e-05
-2.00326e-05
-2.25867e-05
-2.54574e-05
-2.86825e-05
)
;
    }
    procBoundary6to5
    {
        type            processor;
        value           nonuniform List<scalar> 7(-0.00817056 -0.00817222 -0.00817381 -0.00817527 -0.00817651 -0.00817742 -0.0081779);
    }
    procBoundary6to7
    {
        type            processor;
        value           nonuniform List<scalar> 7(0.00817343 0.0081737 0.00817397 0.00817422 0.00817443 0.0081746 0.0081747);
    }
    procBoundary6to13
    {
        type            processor;
        value           uniform -0.00816889;
    }
    procBoundary6to14
    {
        type            processor;
        value           nonuniform List<scalar> 
17
(
6.96219e-06
7.83472e-06
8.81307e-06
9.90957e-06
1.11379e-05
1.25132e-05
1.40524e-05
1.57739e-05
1.76984e-05
1.98486e-05
2.22496e-05
2.49289e-05
2.7917e-05
4.94985e-06
5.57881e-06
0.00817289
6.28529e-06
)
;
    }
}


// ************************************************************************* //
