/*--------------------------------*- C++ -*----------------------------------*\
  =========                 |
  \\      /  F ield         | OpenFOAM: The Open Source CFD Toolbox
   \\    /   O peration     | Website:  https://openfoam.org
    \\  /    A nd           | Version:  7
     \\/     M anipulation  |
\*---------------------------------------------------------------------------*/
FoamFile
{
    version     2.0;
    format      ascii;
    class       surfaceScalarField;
    location    "5";
    object      phi;
}
// * * * * * * * * * * * * * * * * * * * * * * * * * * * * * * * * * * * * * //

dimensions      [0 3 -1 0 0 0 0];

internalField   nonuniform List<scalar> 
364
(
-9.4222e-05
-0.0190911
0.019099
-9.06355e-05
-0.0209092
0.0209056
-8.44449e-05
-0.0211648
0.0211586
-0.0210871
0.0210027
-0.000100024
-0.0190817
-0.000100774
-0.0209085
-9.8387e-05
-0.0211672
-0.0211855
-0.000105792
-0.0190708
-0.000110827
-0.0209034
-0.000112367
-0.0211657
-0.0212979
-0.000111524
-0.0190584
-0.000120806
-0.0208941
-0.000126376
-0.0211601
-0.0214243
-0.000117217
-0.0190446
-0.000130724
-0.0208806
-0.000140413
-0.0211504
-0.0215647
-0.000122863
-0.0190293
-0.000140592
-0.0208629
-0.000154497
-0.0211365
-0.0217192
-0.000128453
-0.0190126
-0.000150425
-0.0208409
-0.000168658
-0.0211183
-0.0218878
-0.00013398
-0.0189946
-0.000160251
-0.0208147
-0.000182942
-0.0210956
-0.0220708
-0.000139446
-0.0189752
-0.000170116
-0.020784
-0.000197397
-0.0210683
-0.0222682
-0.000144868
-0.000180021
-0.000211993
-0.000209441
-0.0193836
0.0194058
-0.000202083
-0.0210203
0.021013
-0.000174842
-0.021106
0.0210787
-0.0187849
0.01861
-0.000215619
-0.0193594
-0.000212226
-0.0210237
-0.000188681
-0.0211295
-0.0189735
-0.000221735
-0.0193333
-0.000222331
-0.0210231
-0.000202669
-0.0211492
-0.0191762
-0.000227798
-0.0193052
-0.000232386
-0.0210186
-0.000216858
-0.0211647
-0.0193931
-0.000233805
-0.0192752
-0.000242392
-0.02101
-0.000231205
-0.0211759
-0.0196243
-0.00023975
-0.0192434
-0.000252352
-0.0209974
-0.000245717
-0.0211825
-0.01987
-0.000245622
-0.0192099
-0.000262269
-0.0209807
-0.000260446
-0.0211844
-0.0201304
-0.000251416
-0.0191746
-0.000272168
-0.02096
-0.000275485
-0.021181
-0.0204059
-0.000257154
-0.0191376
-0.000282131
-0.020935
-0.000290813
-0.0211724
-0.0206967
-0.000262861
-0.00029224
-0.000305978
-0.000283623
-0.0195196
0.0195527
-0.000314537
-0.0197923
0.0198232
-0.000302136
-0.0210818
0.0210694
-0.00024065
-0.0207292
0.0206677
-0.0157733
0.0155327
-0.000287673
-0.019485
-0.00032112
-0.0197588
-0.000312651
-0.0210903
-0.000254887
-0.0207869
-0.0160282
-0.00029169
-0.0194491
-0.000327624
-0.0197229
-0.000323141
-0.0210948
-0.000269279
-0.0208408
-0.0162975
-0.000295674
-0.0194117
-0.00033405
-0.0196845
-0.000333579
-0.0210953
-0.000284039
-0.0208903
-0.0165815
-0.000299627
-0.019373
-0.000340398
-0.0196437
-0.000343944
-0.0210917
-0.00029905
-0.0209352
-0.0168806
-0.000303547
-0.019333
-0.000346664
-0.0196006
-0.00035423
-0.0210841
-0.000314276
-0.0209752
-0.0171949
-0.000307429
-0.0192917
-0.000352832
-0.0195552
-0.000364424
-0.0210725
-0.000329776
-0.0210098
-0.0175246
-0.000311269
-0.0192491
-0.000358898
-0.0195076
-0.000374542
-0.0210569
-0.000345691
-0.0210387
-0.0178703
-0.000315091
-0.0192052
-0.000364907
-0.0194578
-0.000384692
-0.0210371
-0.00036195
-0.0210614
-0.0182323
-0.000318968
-0.000370902
-0.00039503
-0.000377719
-0.000374971
-0.0200198
0.0200654
-0.000408995
-0.0202554
0.0202894
-0.000388282
-0.0210663
0.0210456
-0.000277191
-0.01988
0.0197689
-0.0123649
0.0120877
-0.000377132
-0.0199735
-0.000413878
-0.0202187
-0.000395996
-0.0210842
-0.000288719
-0.0199872
-0.0126536
-0.00038063
-0.0199259
-0.000420224
-0.0201791
-0.000406652
-0.0210978
-0.0003033
-0.0200906
-0.0129569
-0.00038437
-0.0198768
-0.000426869
-0.0201366
-0.000417703
-0.0211069
-0.000318727
-0.0201896
-0.0132756
-0.000388147
-0.0198263
-0.000433518
-0.0200912
-0.000428768
-0.0211117
-0.000334584
-0.0202838
-0.0136102
-0.000391901
-0.0197743
-0.000440096
-0.020043
-0.000439756
-0.021112
-0.000350784
-0.0203727
-0.013961
-0.000395604
-0.0197209
-0.000446562
-0.0199921
-0.000450608
-0.021108
-0.00036731
-0.020456
-0.0143283
-0.000399244
-0.0196662
-0.000452895
-0.0199384
-0.00046131
-0.0210996
-0.000384307
-0.020533
-0.0147126
-0.000402848
-0.0196102
-0.000459158
-0.0198821
-0.000471969
-0.0210868
-0.000401697
-0.0206033
-0.0151143
-0.000406516
-0.000465439
-0.000482762
-0.000418379
-0.0128615
0.012575
-0.0131469
-0.0134314
-0.0137151
-0.0139983
-0.014281
-0.0145633
-0.0148454
-0.0151274
-0.0154101
-0.0094009
0.00903621
-0.00976261
-0.0101216
-0.010478
-0.010832
-0.0111839
-0.011534
-0.0118823
-0.0122293
-0.0052255
0.0047839
-0.00566347
-0.00609775
-0.00652829
-0.00695512
-0.00737827
-0.00779783
-0.0082139
-0.00862664
-0.0004854
-0.000970173
-0.00145394
-0.00193632
-0.00241698
-0.00289558
-0.00337182
-0.00384544
-0.00431619
-0.01116
-0.00656905
-0.00283929
-0.000870952
)
;

boundaryField
{
    inlet
    {
        type            calculated;
        value           nonuniform 0();
    }
    outlet
    {
        type            calculated;
        value           nonuniform 0();
    }
    polygon
    {
        type            calculated;
        value           uniform 0;
    }
    top
    {
        type            symmetryPlane;
        value           uniform 0;
    }
    bottom
    {
        type            symmetryPlane;
        value           uniform 0;
    }
    outside
    {
        type            calculated;
        value           nonuniform 0();
    }
    procBoundary6to2
    {
        type            processor;
        value           nonuniform List<scalar> 
42
(
8.63522e-05
9.06211e-05
9.48835e-05
9.91344e-05
0.00010337
0.000107587
0.00011178
0.000115945
0.000120081
0.000124192
0.000187234
-0.01916
0.000191411
0.000195574
0.000199723
0.000203855
0.000207968
0.000212057
0.000216119
0.000220165
0.000224233
0.000250463
0.000253105
0.000255733
0.000258346
0.000260946
0.000263533
0.000266103
0.000268654
0.000271196
0.000273723
0.000329356
0.000330914
0.000332999
0.000335272
0.000337595
0.000339924
0.000342239
0.000344532
0.000346814
0.000349088
0.000586929
)
;
    }
    procBoundary6to3
    {
        type            processor;
        value           nonuniform List<scalar> 
21
(
0.000286462
0.000285389
0.000284496
0.000283758
0.000283159
0.000282695
0.000282351
0.000282104
0.000282005
0.000282692
0.000354054
0.000351933
0.000350037
0.000348366
0.00034693
0.000345754
0.00783756
0.0151779
0.0173158
0.0183211
0.0186075
)
;
    }
    procBoundary6to5
    {
        type            processor;
        value           nonuniform List<scalar> 4(-0.0189545 -0.0207488 -0.0210363 -0.0224802);
    }
    procBoundary6to7
    {
        type            processor;
        value           nonuniform List<scalar> 
24
(
0.000364686
0.000361715
0.000358951
0.000356396
0.000441606
0.000437971
0.000434272
0.000430545
0.000426827
0.000423154
0.000419559
0.000416074
0.000412733
0.000409573
0.0004854
0.000484773
0.000483765
0.000482387
0.000480658
0.0004786
0.000476242
0.000473615
0.000470756
0.000467703
)
;
    }
    procBoundary6to10
    {
        type            processor;
        value           uniform -2.88534e-10;
    }
}


// ************************************************************************* //
