/*--------------------------------*- C++ -*----------------------------------*\
  =========                 |
  \\      /  F ield         | OpenFOAM: The Open Source CFD Toolbox
   \\    /   O peration     | Website:  https://openfoam.org
    \\  /    A nd           | Version:  7
     \\/     M anipulation  |
\*---------------------------------------------------------------------------*/
FoamFile
{
    version     2.0;
    format      ascii;
    class       surfaceScalarField;
    location    "18";
    object      phi;
}
// * * * * * * * * * * * * * * * * * * * * * * * * * * * * * * * * * * * * * //

dimensions      [0 3 -1 0 0 0 0];

internalField   nonuniform List<scalar> 
15760
(
-0.00317222
0.0001861
-0.000205263
-0.00315214
0.000192922
-0.000213001
-0.00313248
0.000190773
-0.000210428
-0.00311196
0.00019859
-0.000219112
-0.00309145
0.000198622
-0.000219138
-0.0030702
0.000205958
-0.000227203
-0.00304867
0.000208351
-0.000229879
-0.00302645
0.000215402
-0.000237625
-0.00300374
0.000219761
-0.000242472
-0.0029803
0.000226997
-0.00025044
-0.0029562
0.000232998
-0.000257099
-0.00293128
0.000240826
-0.000265742
-0.00290555
0.000248285
-0.000274009
-0.00287891
0.00025699
-0.000283636
-0.00285131
0.000265812
-0.000293407
-0.00282268
0.000275578
-0.000304212
-0.00279296
0.00028573
-0.000315448
-0.00276208
0.000296691
-0.000327573
-0.00272997
0.000308208
-0.000340314
-0.00269657
0.000320515
-0.000353923
-0.00266178
0.000333523
-0.000368308
-0.00262553
0.000347386
-0.000383638
-0.00258772
0.00036211
-0.00039992
-0.00254825
0.00037782
-0.000417294
-0.002507
0.000394578
-0.000435827
-0.00246385
0.000412506
-0.000455654
-0.00241866
0.000431702
-0.000476885
-0.0023713
0.000452301
-0.000499666
-0.00232159
0.000474437
-0.000524146
-0.00226936
0.000498273
-0.000550503
-0.00221441
0.000523987
-0.000578936
-0.00215653
0.000551789
-0.000609674
-0.00209546
0.000581914
-0.000642978
-0.00203095
0.000614631
-0.000679146
-0.00196268
0.000650242
-0.000718515
-0.0018903
0.000689083
-0.000761456
-0.00181344
0.000731514
-0.000808374
-0.00173166
0.000777913
-0.000859695
-0.00164447
0.00082869
-0.000915879
-0.00155136
0.000884305
-0.000977421
-0.00145174
0.000945168
-0.00104479
-0.001345
0.00101161
-0.00111835
-0.00123049
0.00108387
-0.00119838
-0.00110754
0.00116199
-0.00128494
-0.000975511
0.00124577
-0.00137779
-0.000833825
0.0013346
-0.00147629
-0.00068203
0.00142741
-0.00157921
-0.000519884
0.00152249
-0.00168463
-0.00034747
0.00161747
-0.00178988
-0.000165216
0.00170891
-0.00189117
2.50341e-05
0.00179491
-0.00198516
0.000224028
0.00186654
-0.00206553
0.000427596
0.00192135
-0.00212492
0.000633223
0.00195385
-0.00215947
0.000837401
0.001959
-0.00216318
0.00103629
0.00193334
-0.00213223
0.00122592
0.00187469
-0.00206432
0.00140248
0.00178297
-0.00195953
0.00156259
0.00165997
-0.00182007
0.00170356
0.00150952
-0.0016505
0.00182352
0.00133674
-0.0014567
0.00192142
0.00114752
-0.00124542
0.00199697
0.000947852
-0.0010234
0.00205047
0.000743277
-0.000796771
0.00208264
0.000538533
-0.000570709
0.00209452
0.000337426
-0.000349299
0.00208742
0.000143065
-0.000135967
0.00206261
-4.27036e-05
6.75072e-05
0.00202099
-0.000219159
0.000260779
0.00196483
-0.000382696
0.000438857
0.00189529
-0.000533778
0.000603324
0.00181397
-0.000671188
0.00075251
0.00172253
-0.000794057
0.000885493
0.00162269
-0.000901653
0.00100149
0.0015162
-0.000993298
0.00109979
0.00140484
-0.0010683
0.00117965
0.00129044
-0.00112597
0.00124037
0.00117484
-0.00116563
0.00128122
0.00105996
-0.00118658
0.00130146
0.000947722
-0.00118825
0.00130049
0.000840087
-0.00117036
0.001278
0.000739021
-0.00113305
0.00123411
0.000646227
-0.00107722
0.00117002
0.000563123
-0.00100468
0.00108778
0.000490728
-0.000918239
0.000990633
0.000429542
-0.000821797
0.000882983
0.000379396
-0.000720286
0.000770431
0.000339357
-0.00061944
0.000659479
0.000307674
-0.000525699
0.000557382
0.000281986
-0.000445359
0.000471047
0.000259566
-0.000384526
0.000406946
0.000237744
-0.000348638
0.000370461
0.000214497
-0.000341627
0.000364873
0.000188564
-0.000366532
0.000392465
0.00016082
-0.000425072
0.000452815
0.000131112
-0.000514276
0.000543985
0.000107355
-0.000646277
0.000670034
8.29647e-05
-0.000749053
0.000773444
5.50026e-05
-0.000907666
0.000935628
-0.000539212
0.000594214
-0.00315938
0.000166648
-0.00313882
0.00017236
-0.0031189
0.000170851
-0.00309791
0.000177599
-0.00307708
0.000177793
-0.00305539
0.000184266
-0.0030335
0.000186464
-0.00301084
0.000192743
-0.00298774
0.000196657
-0.00296386
0.000203116
-0.00293934
0.00020848
-0.00291398
0.000215467
-0.00288782
0.000222124
-0.00286072
0.000229892
-0.00283267
0.000237763
-0.00280357
0.000246479
-0.00277338
0.000255538
-0.00274201
0.000265323
-0.00270941
0.000275605
-0.00267549
0.000286594
-0.00264017
0.000298209
-0.00260338
0.000310589
-0.002565
0.000323737
-0.00252495
0.000337765
-0.0024831
0.000352728
-0.00243933
0.000368734
-0.0023935
0.000385873
-0.00234546
0.000404263
-0.00229505
0.000424027
-0.00224209
0.000445309
-0.00218637
0.000468269
-0.00212768
0.000493094
-0.00206575
0.000519993
-0.00200033
0.000549206
-0.00193109
0.000581001
-0.00185768
0.000615675
-0.00177971
0.000653549
-0.00169675
0.000694952
-0.0016083
0.000740239
-0.00151383
0.000789832
-0.00141275
0.000844092
-0.00130445
0.000903312
-0.00118826
0.000967687
-0.00106353
0.00103726
-0.000929602
0.00111184
-0.000785902
0.0011909
-0.000631982
0.00127349
-0.000467605
0.00135811
-0.000292844
0.0014427
-0.000108139
0.00152421
8.53337e-05
0.00160144
0.00028695
0.00166492
0.00049366
0.00171464
0.000702836
0.00174467
0.000911045
0.00175079
0.00111454
0.00172984
0.0013094
0.00167982
0.00149185
0.00160053
0.00165844
0.00149338
0.0018064
0.00136156
0.00193368
0.00120946
0.00203903
0.00104216
0.00212195
0.000864938
0.00218252
0.000682701
0.00222133
0.000499725
0.00223928
0.00031948
0.00223752
0.000144822
0.00221711
-2.22932e-05
0.00217961
-0.000181659
0.00212639
-0.000329478
0.00205899
-0.000466371
0.00197897
-0.000591171
0.00188799
-0.00070308
0.00178776
-0.000801421
0.00168002
-0.000885562
0.00156659
-0.00095486
0.0014493
-0.00100869
0.0013301
-0.00104642
0.00121094
-0.00106742
0.00109383
-0.00107115
0.000980767
-0.0010573
0.000873696
-0.00102598
0.000774403
-0.00097793
0.000684413
-0.000914688
0.000604876
-0.000838702
0.000536443
-0.000753364
0.00047915
-0.000662993
0.00043232
-0.00057261
0.000394501
-0.00048788
0.000363586
-0.000414444
0.000336974
-0.000357913
0.000311852
-0.000323517
0.00028576
-0.000315535
0.000256601
-0.000337373
0.000224084
-0.000392555
0.000186803
-0.000476995
0.000148654
-0.000608129
0.000105553
-0.000705952
4.45544e-05
-0.000846668
-0.000494657
-0.00314696
0.000146779
-0.00312615
0.000151551
-0.00310581
0.000150515
-0.00308448
0.000156269
-0.00306326
0.000156574
-0.00304119
0.000162197
-0.00301891
0.000164182
-0.00299585
0.000169683
-0.00297233
0.000173143
-0.00294803
0.000178816
-0.00292309
0.000183535
-0.0028973
0.000189673
-0.0028707
0.000195522
-0.00284315
0.000202345
-0.00281464
0.000209257
-0.00278507
0.000216911
-0.0027544
0.000224869
-0.00272255
0.000233464
-0.00268944
0.000242498
-0.002655
0.000252154
-0.00261915
0.000262361
-0.0025818
0.00027324
-0.00254286
0.000284794
-0.00250221
0.000297121
-0.00245976
0.000310268
-0.00241535
0.000324332
-0.00236887
0.000339389
-0.00232015
0.000355546
-0.00226903
0.000372909
-0.00221533
0.000391606
-0.00215884
0.000411777
-0.00209933
0.000433586
-0.00203655
0.000457217
-0.00197022
0.000482879
-0.00190003
0.000510806
-0.00182561
0.000541258
-0.00174658
0.000574513
-0.00166248
0.000610856
-0.00157283
0.000650586
-0.00147708
0.000694085
-0.00137466
0.000741666
-0.00126492
0.000793579
-0.00114723
0.000849991
-0.0010209
0.000910934
-0.000885305
0.00097624
-0.000739859
0.00104545
-0.000584118
0.00111775
-0.000417841
0.00119183
-0.000241081
0.00126595
-5.43722e-05
0.0013375
0.000141782
0.00140529
0.000345692
0.00146101
0.000555075
0.00150526
0.000767288
0.00153246
0.000979005
0.00153907
0.00118657
0.00152228
0.00138611
0.00148027
0.00157388
0.00141277
0.0017464
0.00132086
0.00190079
0.00120717
0.00203486
0.00107538
0.00214719
0.000929844
0.00223704
0.000775083
0.00230434
0.000615405
0.00234948
0.000454583
0.00237323
0.000295733
0.00237665
0.000141395
0.00236074
-6.37981e-06
0.00232706
-0.000147979
0.00227683
-0.000279247
0.00221161
-0.000401154
0.00213298
-0.000512539
0.00204257
-0.000612676
0.0019421
-0.000700948
0.00183332
-0.000776778
0.00171804
-0.000839583
0.00159814
-0.000888792
0.00147556
-0.000923835
0.0013523
-0.000944161
0.00123043
-0.000949274
0.001112
-0.000938875
0.000999037
-0.000913012
0.000893403
-0.000872296
0.000796726
-0.000818011
0.000710273
-0.000752248
0.000634831
-0.000677922
0.000570602
-0.000598764
0.000517114
-0.000519122
0.000473149
-0.000443915
0.000436813
-0.000378108
0.000405631
-0.000326731
0.000376728
-0.000294613
0.000347288
-0.000286096
0.000314542
-0.000304626
0.000276974
-0.000354987
0.000232257
-0.000432278
0.000180974
-0.000556845
0.000122345
-0.000647323
4.28661e-05
-0.000767189
-0.000451791
-0.00313535
0.000126536
-0.00311428
0.000130483
-0.00309356
0.000129795
-0.00307191
0.000134614
-0.00305031
0.000134983
-0.00302789
0.000139769
-0.00300523
0.000141522
-0.00298178
0.00014624
-0.00295788
0.000149235
-0.00293317
0.000154114
-0.00290782
0.000158181
-0.00288161
0.000163461
-0.00285458
0.000168493
-0.0028266
0.000174361
-0.00279764
0.000180307
-0.00276762
0.00018689
-0.00273649
0.000193734
-0.00270415
0.000201128
-0.00267055
0.0002089
-0.00263561
0.000217208
-0.00259924
0.000225991
-0.00256135
0.000235353
-0.00252185
0.000245294
-0.00248063
0.000255901
-0.00243757
0.000267212
-0.00239255
0.000279311
-0.00234543
0.000292263
-0.00229604
0.000306162
-0.00224423
0.000321097
-0.00218981
0.000337179
-0.00213256
0.000354529
-0.00207226
0.000373288
-0.00200865
0.000393611
-0.00194146
0.00041568
-0.00187034
0.000439695
-0.00179496
0.000465876
-0.00171491
0.00049446
-0.00162974
0.000525688
-0.00153896
0.000559805
-0.00144203
0.000597151
-0.00133835
0.000637993
-0.00122731
0.000682539
-0.00110825
0.000730928
-0.0009805
0.000783185
-0.000843425
0.000839165
-0.000696452
0.000898482
-0.000539137
0.000960435
-0.000371239
0.00102393
-0.000192791
0.0010875
-4.7368e-06
0.00114944
0.00019387
0.00120668
0.000399739
0.00125514
0.000611367
0.00129363
0.000826134
0.00131769
0.00104083
0.00132437
0.00125189
0.00131122
0.00145551
0.00127665
0.00164796
0.00122032
0.00182575
0.00114307
0.00198592
0.001047
0.00212616
0.000935151
0.00224485
0.000811151
0.0023411
0.000678829
0.00241464
0.000541865
0.00246571
0.000403514
0.00249493
0.00026652
0.00250322
0.000133102
0.00249168
5.15998e-06
0.0024616
-0.000117904
0.00241423
-0.000231878
0.00235115
-0.000338065
0.00227388
-0.000435272
0.00218407
-0.000522868
0.00208342
-0.0006003
0.0019737
-0.000667055
0.00185673
-0.000722616
0.00173442
-0.000766479
0.00160873
-0.000798145
0.00148171
-0.000817143
0.00135545
-0.000823017
0.00123207
-0.000815488
0.00111363
-0.00079457
0.00100208
-0.000760749
0.000899145
-0.000715078
0.000806201
-0.000659305
0.000724166
-0.000595886
0.000653386
-0.000527985
0.000593559
-0.000459295
0.000543661
-0.000394016
0.000501974
-0.000336421
0.000466144
-0.000290902
0.000433279
-0.000261749
0.000400302
-0.000253119
0.000363912
-0.000268236
0.000321534
-0.000312609
0.000270105
-0.000380849
0.000207638
-0.000494379
0.000136221
-0.000575905
4.49942e-05
-0.000675962
-0.000406797
-0.0031248
0.000105961
-0.00310349
0.000109165
-0.00308242
0.000108725
-0.00306047
0.000112664
-0.00303853
0.000113049
-0.00301578
0.000117012
-0.00299276
0.000118511
-0.00296897
0.000122445
-0.0029447
0.000124963
-0.00291962
0.00012904
-0.00289389
0.000132446
-0.00286729
0.000136859
-0.00283986
0.000141068
-0.00281147
0.000145972
-0.0027821
0.000150941
-0.00275166
0.000156443
-0.00272009
0.000162164
-0.0026873
0.000168345
-0.00265325
0.000174842
-0.00261783
0.000181788
-0.00258097
0.000189131
-0.00254257
0.000196958
-0.00250255
0.00020527
-0.00246078
0.000214138
-0.00241717
0.000223594
-0.00237156
0.000233707
-0.00232383
0.000244534
-0.00227382
0.000256151
-0.00222136
0.000268633
-0.00216625
0.000282074
-0.0021083
0.000296573
-0.00204726
0.000312248
-0.00198288
0.00032923
-0.00191487
0.000347669
-0.0018429
0.00036773
-0.00176662
0.000389598
-0.00168563
0.000413468
-0.00159948
0.000439536
-0.00150767
0.000467995
-0.00140966
0.000499144
-0.00130487
0.000533202
-0.00119267
0.000570338
-0.00107241
0.000610664
-0.000943421
0.000654199
-0.000805079
0.000700823
-0.000656815
0.000750217
-0.000498187
0.000801808
-0.000328956
0.000854702
-0.000149121
0.000907663
4.07431e-05
0.000959579
0.000240536
0.00100689
0.000447979
0.0010477
0.000661423
0.00108019
0.000878286
0.00110083
0.00109547
0.00110719
0.00130948
0.00109721
0.0015166
0.00106953
0.00171311
0.00102381
0.00189553
0.000960641
0.00206084
0.000881692
0.0022066
0.000789393
0.00233106
0.000686692
0.00243315
0.000576736
0.00251244
0.000462582
0.00256899
0.000346957
0.00260331
0.000232201
0.00261622
0.000120193
0.00260872
1.2665e-05
0.00258208
-9.12681e-05
0.00253746
-0.000187256
0.00247644
-0.000277047
0.00240054
-0.000359371
0.00231138
-0.000433706
0.00221066
-0.00049958
0.00210015
-0.000556547
0.0019817
-0.000604165
0.00185723
-0.000642005
0.00172874
-0.000669657
0.0015983
-0.000686703
0.00146803
-0.000692751
0.0013401
-0.000687551
0.00121662
-0.000671094
0.00109962
-0.000643752
0.000990914
-0.000606369
0.000891974
-0.000560365
0.000803839
-0.000507751
0.00072699
-0.000451136
0.000661275
-0.000393579
0.000605825
-0.000338567
0.000559076
-0.000289672
0.000518782
-0.000250608
0.000482066
-0.000225033
0.000445663
-0.000216715
0.000405895
-0.000228468
0.000359275
-0.000265988
0.000302229
-0.000323804
0.000230689
-0.000422839
0.000148832
-0.000494048
4.93692e-05
-0.000576499
-0.000357428
-0.00311557
8.51038e-05
-0.00309402
8.76194e-05
-0.00307265
8.73499e-05
-0.00305043
9.04527e-05
-0.0030282
9.08118e-05
-0.00300515
9.39647e-05
-0.00298183
9.51905e-05
-0.00295772
9.83381e-05
-0.00293313
0.000100368
-0.00290772
0.000103637
-0.00288165
0.000106372
-0.0028547
0.000109912
-0.00282692
0.000113288
-0.00279817
0.000117221
-0.00276844
0.000121206
-0.00273761
0.000125617
-0.00270565
0.000130205
-0.00267247
0.000135162
-0.002638
0.000140373
-0.00260216
0.000145944
-0.00256486
0.000151834
-0.00252601
0.000158111
-0.00248552
0.000164778
-0.00244327
0.00017189
-0.00239915
0.000179473
-0.00235303
0.000187583
-0.00230476
0.000196265
-0.00225419
0.000205579
-0.00220114
0.000215587
-0.00214543
0.000226362
-0.00208684
0.000237985
-0.00202514
0.00025055
-0.00196007
0.000264161
-0.00189134
0.000278938
-0.00181863
0.000295014
-0.00174156
0.000312534
-0.00165975
0.000331654
-0.00157274
0.000352528
-0.00148004
0.000375298
-0.00138112
0.000400218
-0.00127538
0.000427462
-0.0011622
0.000457161
-0.00104094
0.0004894
-0.000910933
0.000524196
-0.000771563
0.000561453
-0.000622266
0.00060092
-0.000462604
0.000642145
-0.000292333
0.000684431
-0.000111447
0.000726777
7.97078e-05
0.000768424
0.000280473
0.00080612
0.000489129
0.000839044
0.000703981
0.000865335
0.000922509
0.000882299
0.00114171
0.000887992
0.00135816
0.000880755
0.00156823
0.000859468
0.00176823
0.000823806
0.00195468
0.000774194
0.00212449
0.00071188
0.00227514
0.000638743
0.00240475
0.000557086
0.00251209
0.000469391
0.00259657
0.000378098
0.00265813
0.000285396
0.00269714
0.000193199
0.00271429
0.00010304
0.00271063
1.63245e-05
0.00268711
-6.77454e-05
0.0026451
-0.000145254
0.00258607
-0.000218013
0.00251151
-0.000284813
0.00242304
-0.000345233
0.00232235
-0.000398893
0.00221123
-0.000445423
0.00209152
-0.000484461
0.00196519
-0.000515674
0.00183425
-0.000538715
0.00170079
-0.000553237
0.00156695
-0.000558919
0.00143495
-0.00055555
0.00130696
-0.000543106
0.00118507
-0.000521861
0.00107117
-0.000492464
0.000966823
-0.000456021
0.000873187
-0.000414114
0.000790862
-0.000368811
0.000719825
-0.000322543
0.000659351
-0.000278092
0.000608
-0.000238322
0.000563631
-0.000206239
0.000523401
-0.000184802
0.000483922
-0.000177237
0.000441271
-0.000185817
0.000391202
-0.000215918
0.000329802
-0.000262405
0.000251285
-0.000344322
0.00016109
-0.000403853
5.51542e-05
-0.000470564
-0.000302274
-0.00310785
6.40178e-05
-0.00308612
6.58806e-05
-0.00306449
6.57255e-05
-0.00304206
6.8024e-05
-0.00301957
6.83237e-05
-0.00299629
7.06776e-05
-0.00297271
7.16125e-05
-0.00294834
7.3973e-05
-0.00292348
7.55045e-05
-0.0028978
7.79595e-05
-0.00287145
8.00174e-05
-0.00284421
8.26768e-05
-0.00281614
8.52139e-05
-0.00278709
8.81682e-05
-0.00275704
9.11618e-05
-0.0027259
9.44759e-05
-0.00269362
9.7922e-05
-0.0026601
0.000101646
-0.00262529
0.00010556
-0.00258909
0.000109746
-0.00255143
0.000114171
-0.00251221
0.000118888
-0.00247132
0.000123896
-0.00242867
0.000129239
-0.00238413
0.000134935
-0.00233758
0.000141027
-0.00228886
0.000147547
-0.00223782
0.000154542
-0.0021843
0.000162058
-0.00212808
0.000170149
-0.00206897
0.000178877
-0.00200673
0.00018831
-0.0019411
0.000198528
-0.00187178
0.00020962
-0.00179845
0.000221685
-0.00172075
0.000234833
-0.00163828
0.000249178
-0.00155058
0.000264835
-0.00145718
0.000281896
-0.00135753
0.000300571
-0.00125106
0.000320986
-0.00113713
0.000343236
-0.00101512
0.000367384
-0.000884361
0.00039344
-0.000744243
0.000421335
-0.000594208
0.000450885
-0.000433819
0.000481757
-0.000262831
0.000513442
-8.12486e-05
0.000545195
0.000110742
0.000576433
0.000312199
0.000604663
0.000521709
0.000629534
0.000737577
0.000649467
0.000957359
0.000662517
0.00117813
0.000667218
0.00139657
0.00066232
0.00160907
0.000646962
0.00181201
0.000620868
0.0020019
0.000584311
0.0021756
0.000538178
0.00233051
0.000483829
0.00246464
0.000422958
0.00257663
0.000357401
0.00266574
0.000288984
0.00273179
0.000219353
0.00277502
0.000149971
0.00279606
8.20014e-05
0.00279576
1.66224e-05
0.00277518
-4.71643e-05
0.00273561
-0.000105692
0.00267845
-0.000160853
0.0026052
-0.000211561
0.00251746
-0.000257488
0.00241692
-0.000298355
0.00230538
-0.000333879
0.00218471
-0.000363795
0.00205687
-0.000387835
0.00192388
-0.00040573
0.00178786
-0.000417216
0.00165099
-0.000422049
0.00151551
-0.000420062
0.00138363
-0.000411226
0.00125749
-0.00039573
0.00113907
-0.000374041
0.00103002
-0.000346968
0.000931583
-0.000315678
0.000844479
-0.000281707
0.000768802
-0.000246866
0.000703946
-0.000213237
0.000648591
-0.000182966
0.000600685
-0.000158333
0.000557442
-0.000141559
0.000515404
-0.000135199
0.00047051
-0.000140923
0.000417914
-0.000163322
0.0003535
-0.000197991
0.000270042
-0.000260864
0.00017349
-0.000307301
6.20299e-05
-0.000359104
-0.000240244
-0.00310187
4.27625e-05
-0.00307998
4.39937e-05
-0.00305817
4.39133e-05
-0.00303558
4.54311e-05
-0.0030129
4.56456e-05
-0.00298943
4.7209e-05
-0.00296566
4.78396e-05
-0.0029411
4.94127e-05
-0.00291603
5.04375e-05
-0.00289015
5.20754e-05
-0.00286358
5.34497e-05
-0.00283613
5.52242e-05
-0.00280783
5.69173e-05
-0.00277855
5.88883e-05
-0.00274828
6.08856e-05
-0.0027169
6.30965e-05
-0.00268437
6.53955e-05
-0.0026506
6.78798e-05
-0.00261553
7.04915e-05
-0.00257907
7.32839e-05
-0.00254114
7.62362e-05
-0.00250163
7.93829e-05
-0.00246046
8.27242e-05
-0.00241751
8.62882e-05
-0.00237266
9.0088e-05
-0.00232579
9.41512e-05
-0.00227674
9.85e-05
-0.00222536
0.000103165
-0.00217148
0.000108177
-0.0021149
0.000113572
-0.00205542
0.000119391
-0.00199279
0.00012568
-0.00192675
0.000132491
-0.00185702
0.000139884
-0.00178325
0.000147924
-0.00170511
0.000156685
-0.00162217
0.000166244
-0.00153401
0.000176673
-0.00144014
0.000188021
-0.00134001
0.000200449
-0.00123306
0.000214037
-0.00111867
0.000228843
-0.000996196
0.000244909
-0.000864999
0.000262242
-0.000724461
0.000280798
-0.000574032
0.000300456
-0.000413274
0.000320999
-0.000241933
0.000342101
-6.00185e-05
0.000363281
0.000132361
0.000384054
0.000334144
0.000402879
0.000544105
0.000419573
0.00076057
0.000433002
0.000981175
0.000441912
0.00120307
0.00044532
0.001423
0.000442389
0.00163743
0.000432531
0.00184276
0.000415541
0.0020355
0.000391576
0.00221248
0.000361196
0.00237103
0.000325281
0.00250904
0.000284939
0.00262506
0.000241382
0.00271822
0.000195825
0.00278821
0.000149366
0.00283518
0.000103003
0.00285966
5.75174e-05
0.00286262
1.36579e-05
0.00284459
-2.91293e-05
0.0028073
-6.84034e-05
0.00275196
-0.00010551
0.00268004
-0.000139644
0.00259314
-0.000170591
0.00249297
-0.000198177
0.0023813
-0.000222214
0.00226002
-0.000242516
0.00213109
-0.000258899
0.00199654
-0.000271182
0.00185851
-0.000279185
0.0017192
-0.000282744
0.00158088
-0.000281743
0.00144581
-0.000276155
0.00131618
-0.000266096
0.001194
-0.000251864
0.00108102
-0.000233987
0.000978571
-0.000213229
0.000887468
-0.000190604
0.00080791
-0.000167308
0.000739401
-0.000144728
0.000680724
-0.000124289
0.000629917
-0.000107526
0.000584264
-9.59061e-05
0.00054028
-9.12147e-05
0.00049386
-9.45032e-05
0.00043971
-0.000109172
0.000373636
-0.000131917
0.000287192
-0.000174419
0.000186273
-0.000206382
6.98942e-05
-0.000242725
-0.000170349
-0.00309778
2.14013e-05
-0.0030758
2.20133e-05
-0.00305387
2.19808e-05
-0.00303117
2.27345e-05
-0.00300837
2.28462e-05
-0.00298479
2.36258e-05
-0.00296089
2.3943e-05
-0.00293621
2.4729e-05
-0.00291101
2.52421e-05
-0.002885
2.60611e-05
-0.0028583
2.67484e-05
-0.00283071
2.76357e-05
-0.00280228
2.84821e-05
-0.00277285
2.94675e-05
-0.00274243
3.04658e-05
-0.00271091
3.1571e-05
-0.00267823
3.27202e-05
-0.00264432
3.3962e-05
-0.00260909
3.52674e-05
-0.00257247
3.66632e-05
-0.00253437
3.81389e-05
-0.0024947
3.97117e-05
-0.00245336
4.13816e-05
-0.00241023
4.31628e-05
-0.00236521
4.50616e-05
-0.00231815
4.70919e-05
-0.00226891
4.92648e-05
-0.00221734
5.15954e-05
-0.00216327
5.4099e-05
-0.00210649
5.67939e-05
-0.0020468
5.97002e-05
-0.00198396
6.2841e-05
-0.00191771
6.62422e-05
-0.00184776
6.99334e-05
-0.00177378
7.39474e-05
-0.00169542
7.83207e-05
-0.00161227
8.30913e-05
-0.00152389
8.82975e-05
-0.00142982
9.39503e-05
-0.00132951
0.000100143
-0.0012224
0.00010692
-0.00110786
0.000114303
-0.000985262
0.000122312
-0.000853972
0.000130952
-0.000713377
0.000140202
-0.000562926
0.000150005
-0.000402182
0.000160255
-0.000230886
0.000170805
-4.90607e-05
0.000181455
0.00014327
0.000191723
0.000345025
0.000201124
0.000555058
0.000209541
0.000771733
0.000216326
0.00099276
0.000220886
0.00121536
0.000222724
0.00143633
0.000221419
0.00165218
0.000216673
0.00185935
0.000208373
0.00205434
0.000196584
0.00223397
0.000181574
0.00239547
0.000163773
0.00253669
0.000143724
0.00265604
0.000122029
0.00275257
9.92952e-05
0.00282587
7.60713e-05
0.00287601
5.2863e-05
0.00290346
3.00671e-05
0.00290896
8.14998e-06
0.00289337
-1.3533e-05
0.00285812
-3.31594e-05
0.00280442
-5.18106e-05
0.0027338
-6.90185e-05
0.00264785
-8.46412e-05
0.00254826
-9.85866e-05
0.0024368
-0.000110759
0.00231535
-0.000121063
0.00218586
-0.000129408
0.00205038
-0.000135702
0.00191105
-0.000139855
0.00177009
-0.000141784
0.00162978
-0.000141429
0.00149239
-0.000138773
0.00136017
-0.000133871
0.00123517
-0.000126865
0.0011192
-0.000118014
0.00101366
-0.000107693
0.000919461
-9.64038e-05
0.000836891
-8.4738e-05
0.000765552
-7.3389e-05
0.000704323
-6.30605e-05
0.000651329
-5.45319e-05
0.000603938
-4.8516e-05
0.00055867
-4.59465e-05
0.000511471
-4.73043e-05
0.000456727
-5.44278e-05
0.000390314
-6.55041e-05
0.000302739
-8.68444e-05
0.000199541
-0.000103184
7.93656e-05
-0.00012255
-9.09838e-05
-0.00309571
-3.30414e-12
-0.0030737
-4.17595e-12
-0.00305172
-4.50319e-12
-0.00302898
-4.90508e-12
-0.00300614
-4.84552e-12
-0.00298251
-5.32694e-12
-0.00295857
-5.49261e-12
-0.00293384
-5.50641e-12
-0.0029086
-5.69871e-12
-0.00288254
-6.25563e-12
-0.00285579
-7.4276e-12
-0.00282815
-7.65445e-12
-0.00279967
-7.73517e-12
-0.0027702
-8.10463e-12
-0.00273974
-8.22589e-12
-0.00270816
-8.32778e-12
-0.00267544
-8.37826e-12
-0.00264148
-8.49626e-12
-0.00260622
-7.90898e-12
-0.00256955
-7.89497e-12
-0.00253141
-7.61688e-12
-0.0024917
-7.27272e-12
-0.00245032
-6.96502e-12
-0.00240716
-7.13941e-12
-0.0023621
-7.98629e-12
-0.002315
-8.08387e-12
-0.00226574
-7.5405e-12
-0.00221414
-7.0547e-12
-0.00216004
-6.59277e-12
-0.00210325
-5.9318e-12
-0.00204355
-5.15363e-12
-0.00198071
-4.32507e-12
-0.00191447
-3.89055e-12
-0.00184453
-3.27734e-12
-0.00177059
-1.94128e-12
-0.00169227
-8.93653e-13
-0.00160917
-1.56928e-13
-0.00152088
2.05277e-12
-0.00142693
3.49205e-12
-0.00132678
4.54074e-12
-0.00121986
6.03018e-12
-0.00110556
7.23934e-12
-0.000983247
8.62969e-12
-0.000852295
9.86363e-12
-0.000712092
1.10502e-11
-0.000562087
1.18639e-11
-0.000401833
1.28696e-11
-0.000231027
1.38153e-11
-4.95719e-05
1.49012e-11
0.000142151
1.53917e-11
0.000343275
1.81919e-11
0.000552816
2.20675e-11
0.000769142
2.46099e-11
0.000990028
2.59822e-11
0.00121275
2.5419e-11
0.00143417
2.35973e-11
0.00165084
2.07778e-11
0.00185922
1.76153e-11
0.0020558
1.33253e-11
0.00223738
9.42109e-12
0.00240115
7.599e-12
0.00254487
4.17337e-12
0.0026669
-5.44884e-13
0.0027662
-5.5617e-12
0.00284227
-9.6487e-12
0.00289513
-1.35254e-11
0.0029252
-1.63913e-11
0.00293335
-1.86962e-11
0.00291982
-2.10555e-11
0.00288666
-2.17502e-11
0.00283485
-2.17861e-11
0.00276583
-2.2218e-11
0.00268119
-2.14088e-11
0.0025826
-2.10618e-11
0.00247184
-2.20695e-11
0.00235078
-2.1612e-11
0.00222137
-2.03227e-11
0.00208567
-1.82165e-11
0.00194581
-1.61067e-11
0.00180403
-1.32961e-11
0.0016626
-8.95965e-12
0.00152383
-4.97788e-12
0.00138996
-1.04845e-12
0.00126309
3.73231e-12
0.00114508
8.75257e-12
0.00103738
1.22627e-11
0.00094098
1.53615e-11
0.000856242
1.81685e-11
0.000782853
2.01703e-11
0.000719793
2.09697e-11
0.000665261
2.03989e-11
0.000616745
1.85673e-11
0.000570798
1.57036e-11
0.000523494
1.21368e-11
0.000469066
8.198e-12
0.000403562
4.32235e-12
0.000316718
7.58405e-13
0.000213533
-2.39949e-12
9.09838e-05
-4.44094e-12
-4.5687e-12
-0.000688017
0.00960454
-0.00947689
-0.000815653
0.0095863
-0.00945867
-0.000943746
0.0095588
-0.00943071
-0.00107284
0.00953272
-0.00940362
-0.00120329
0.00950985
-0.0093794
-0.00133534
0.00949107
-0.00935902
-0.00146943
0.00947712
-0.00934303
-0.00160599
0.00946851
-0.00933195
-0.0017457
0.00946614
-0.00932644
-0.00188959
0.00947181
-0.00932791
-0.00203955
0.00948914
-0.00933918
-0.00219845
0.00952527
-0.00936638
-0.00236968
0.00958953
-0.0094183
-0.00255533
0.00969114
-0.00950549
-0.00274935
0.00981939
-0.00962537
-0.00291143
0.00992259
-0.00976051
-0.00293381
0.00979255
-0.00977018
-0.00256293
0.00898327
-0.00935415
-0.00149023
0.00652056
-0.00759325
0.00211481
-0.00360503
-0.000696325
0.00973178
-0.000823836
0.00971381
-0.000951873
0.00968684
-0.00108097
0.00966181
-0.00121132
0.0096402
-0.00134327
0.00962302
-0.00147714
0.009611
-0.00161338
0.00960475
-0.00175261
0.00960537
-0.00189592
0.00961512
-0.0020452
0.00963842
-0.00220313
0.0096832
-0.00237242
0.00975882
-0.00255147
0.00987019
-0.00272395
0.00999187
-0.00282918
0.0100278
-0.0027287
0.00969208
-0.00218682
0.00844139
-0.00105608
0.00538982
0.00105872
-0.000704383
0.0098587
-0.000831664
0.00984109
-0.000959601
0.00981478
-0.0010886
0.00979081
-0.00121883
0.00977043
-0.00135062
0.00975481
-0.00148427
0.00974464
-0.00162018
0.00974067
-0.00175901
0.0097442
-0.00190187
0.00975798
-0.00205066
0.0097872
-0.00220777
0.00984031
-0.00237435
0.00992541
-0.00254376
0.0100396
-0.00268751
0.0101356
-0.0027254
0.0100657
-0.00250199
0.00946867
-0.00182004
0.00775943
-0.000682365
0.00425215
0.000376358
-0.00071216
0.00998528
-0.000839173
0.00996811
-0.000966938
0.00994254
-0.00109575
0.00991962
-0.0012258
0.00990048
-0.00135736
0.00988636
-0.0014907
0.00987799
-0.00162623
0.0098762
-0.0017646
0.00988257
-0.00190694
0.00990032
-0.00205507
0.00993533
-0.00221081
0.00999605
-0.00237303
0.0100876
-0.00252879
0.0101953
-0.00263659
0.0102434
-0.00260027
0.0100294
-0.00225928
0.00912769
-0.00146245
0.0069626
-0.000419368
0.00320906
-4.30096e-05
-0.00071963
0.0101115
-0.000846361
0.0100948
-0.0009739
0.0100701
-0.00110248
0.0100482
-0.00123227
0.0100303
-0.00136351
0.0100176
-0.00149646
0.0100109
-0.00163149
0.0100112
-0.00176925
0.0100203
-0.00191091
0.010042
-0.00205808
0.0100825
-0.00221161
0.0101496
-0.00236723
0.0102432
-0.00250454
0.0103327
-0.00256907
0.0103079
-0.00245377
0.00991409
-0.00200822
0.00868214
-0.0011388
0.00609318
-0.00023717
0.00230743
-0.00028018
-0.000726797
0.0102373
-0.000853239
0.0102213
-0.000980523
0.0101974
-0.00110884
0.0101765
-0.00123832
0.0101598
-0.00136919
0.0101485
-0.00150164
0.0101434
-0.00163606
0.0101456
-0.00177307
0.0101573
-0.00191375
0.0101827
-0.00205932
0.0102281
-0.00220919
0.0102994
-0.00235525
0.0103893
-0.00246934
0.0104468
-0.00248544
0.010324
-0.00229039
0.00971904
-0.0017571
0.00814885
-0.000864631
0.00520072
-0.00012205
0.00156485
-0.00040223
-0.000733633
0.0103628
-0.000859771
0.0103474
-0.000986763
0.0103244
-0.00111477
0.0103045
-0.00124389
0.0102889
-0.0013743
0.0102789
-0.00150619
0.0102753
-0.00163989
0.0102793
-0.00177604
0.0102935
-0.00191564
0.0103223
-0.00205942
0.0103719
-0.002205
0.010445
-0.00233965
0.010524
-0.00242674
0.0105338
-0.00239034
0.0102876
-0.00211692
0.00944562
-0.00151082
0.00754274
-0.000646611
0.00433651
-6.04574e-05
0.000978693
-0.000462687
-0.000740195
0.0104878
-0.000866049
0.0104733
-0.000992752
0.0104511
-0.00112046
0.0104322
-0.00124921
0.0104176
-0.00137916
0.0104088
-0.00151045
0.0104066
-0.0016434
0.0104123
-0.00177858
0.0104287
-0.00191674
0.0104604
-0.00205766
0.0105128
-0.00219644
0.0105838
-0.00231521
0.0106427
-0.00237013
0.0105888
-0.00227995
0.0101975
-0.00193693
0.00910259
-0.00128067
0.00688649
-0.000483868
0.0035397
-3.71997e-05
0.000532025
-0.000499887
-0.000746307
0.0106122
-0.000871881
0.0105988
-0.000998189
0.0105774
-0.00112551
0.0105596
-0.00125378
0.0105459
-0.00138314
0.0105382
-0.00151369
0.0105371
-0.00164574
0.0105443
-0.00177985
0.0105628
-0.00191657
0.0105971
-0.00205495
0.0106512
-0.00218787
0.0107167
-0.00229245
0.0107473
-0.00231677
0.0106131
-0.0021729
0.0100536
-0.00176237
0.00869206
-0.0010759
0.00620002
-0.000370686
0.00283448
-3.88732e-05
0.000200212
-0.00053876
-0.000751941
0.0107354
-0.000878146
0.0107251
-0.00100397
0.0107032
-0.00113133
0.0106869
-0.00125929
0.0106739
-0.00138835
0.0106672
-0.00151842
0.0106672
-0.00164985
0.0106758
-0.00178302