/*--------------------------------*- C++ -*----------------------------------*\
  =========                 |
  \\      /  F ield         | OpenFOAM: The Open Source CFD Toolbox
   \\    /   O peration     | Website:  https://openfoam.org
    \\  /    A nd           | Version:  7
     \\/     M anipulation  |
\*---------------------------------------------------------------------------*/
FoamFile
{
    version     2.0;
    format      ascii;
    class       volScalarField;
    location    "4";
    object      p;
}
// * * * * * * * * * * * * * * * * * * * * * * * * * * * * * * * * * * * * * //

dimensions      [0 2 -2 0 0 0 0];

internalField   nonuniform List<scalar> 
4000
(
-0.228115
-0.22298
-0.222261
-0.22053
-0.221056
-0.221574
-0.223752
-0.226335
-0.230759
-0.23552
-0.243522
-0.250964
-0.265963
-0.278703
-0.308419
-0.340225
-0.41223
-0.534535
-0.708763
-1.28193
-0.23477
-0.230402
-0.230144
-0.229316
-0.230648
-0.232324
-0.235781
-0.240051
-0.246469
-0.253915
-0.265043
-0.277311
-0.297597
-0.320316
-0.360733
-0.401193
-0.465407
-0.486473
-0.582932
-0.345607
-0.240787
-0.23714
-0.237538
-0.237689
-0.240137
-0.24327
-0.248464
-0.254898
-0.263891
-0.274746
-0.289917
-0.308156
-0.335086
-0.367537
-0.415116
-0.461832
-0.525332
-0.581777
-0.634605
-0.788689
-0.246272
-0.243443
-0.244604
-0.245849
-0.249609
-0.254407
-0.261583
-0.27048
-0.282369
-0.296902
-0.316259
-0.340033
-0.372498
-0.410868
-0.457708
-0.494164
-0.535557
-0.530536
-0.598336
-0.47799
-0.251273
-0.249365
-0.251381
-0.25384
-0.258997
-0.265508
-0.274639
-0.285883
-0.300505
-0.318528
-0.342096
-0.371126
-0.408243
-0.449213
-0.489998
-0.513246
-0.538232
-0.566944
-0.577623
-0.60757
-0.25575
-0.254848
-0.257812
-0.261598
-0.268273
-0.276682
-0.288089
-0.302194
-0.320291
-0.342556
-0.370648
-0.403943
-0.442972
-0.481265
-0.508722
-0.51684
-0.537628
-0.531643
-0.567724
-0.521314
-0.259634
-0.259831
-0.263835
-0.269038
-0.277314
-0.287656
-0.301242
-0.31784
-0.338664
-0.364052
-0.395407
-0.431415
-0.470707
-0.50304
-0.518465
-0.520388
-0.536567
-0.54913
-0.563062
-0.557122
-0.262818
-0.264259
-0.269388
-0.276105
-0.286113
-0.2986
-0.314765
-0.334613
-0.35943
-0.389552
-0.425225
-0.463427
-0.500391
-0.523207
-0.528437
-0.530382
-0.545841
-0.54048
-0.557915
-0.52082
-0.265279
-0.268146
-0.274482
-0.282811
-0.294621
-0.309243
-0.327737
-0.350062
-0.377173
-0.409185
-0.445624
-0.482528
-0.517321
-0.532554
-0.534142
-0.538536
-0.550956
-0.550785
-0.560232
-0.519327
-0.266997
-0.27151
-0.279085
-0.289122
-0.302856
-0.319837
-0.341123
-0.366968
-0.398493
-0.436032
-0.477512
-0.517657
-0.551192
-0.566644
-0.572995
-0.575462
-0.576939
-0.556133
-0.538568
-0.460572
-0.145294
-0.130352
-0.125495
-0.112828
-0.104951
-0.0924037
-0.0810205
-0.0661733
-0.0498122
-0.0293351
-0.00522721
0.0249335
0.0600864
0.104394
0.153221
0.215531
0.273675
0.362131
0.409304
0.554932
-0.154386
-0.140084
-0.135857
-0.124097
-0.117266
-0.105995
-0.0962568
-0.0833715
-0.0696191
-0.0522638
-0.0323201
-0.00659169
0.0223169
0.0604278
0.0984705
0.155784
0.195064
0.284117
0.300904
0.441547
-0.163197
-0.149781
-0.146055
-0.13552
-0.129654
-0.119916
-0.111839
-0.101016
-0.0897585
-0.0751893
-0.0587147
-0.0363927
-0.0117073
0.0240079
0.0582891
0.115545
0.15374
0.242337
0.26465
0.388641
-0.171799
-0.159348
-0.15609
-0.146718
-0.14179
-0.13349
-0.126969
-0.118074
-0.109184
-0.0973476
-0.0844928
-0.0660554
-0.0471124
-0.0160076
0.00894388
0.0633569
0.0868153
0.180453
0.187486
0.324738
-0.180338
-0.168877
-0.166098
-0.15784
-0.153866
-0.146979
-0.142024
-0.135108
-0.128697
-0.119807
-0.110856
-0.0966459
-0.0836237
-0.0577182
-0.0403345
0.00753049
0.0268111
0.106319
0.123739
0.235768
-0.188829
-0.178383
-0.176086
-0.168947
-0.165927
-0.160472
-0.1571
-0.152212
-0.148316
-0.142488
-0.137398
-0.12769
-0.120199
-0.10024
-0.0900412
-0.0480194
-0.0391327
0.0459206
0.0484601
0.21038
-0.197194
-0.187786
-0.185942
-0.179932
-0.177831
-0.173799
-0.17196
-0.169012
-0.167418
-0.164346
-0.162997
-0.157561
-0.156326
-0.143173
-0.141116
-0.111784
-0.10979
-0.062697
-0.0491082
0.0296092
-0.205365
-0.197023
-0.195592
-0.190712
-0.189471
-0.186812
-0.186296
-0.185031
-0.185434
-0.184762
-0.186736
-0.185018
-0.18954
-0.181702
-0.188806
-0.160287
-0.171256
-0.0878505
-0.112054
0.147881
-0.213257
-0.205991
-0.204895
-0.201129
-0.200656
-0.199215
-0.19979
-0.200025
-0.202133
-0.20367
-0.20837
-0.210509
-0.219896
-0.220656
-0.23744
-0.231318
-0.256979
-0.273325
-0.314299
-0.36832
-0.220869
-0.214701
-0.213857
-0.211175
-0.211336
-0.211036
-0.212626
-0.214278
-0.217903
-0.221302
-0.228252
-0.232964
-0.245823
-0.24938
-0.268791
-0.254309
-0.259101
-0.161587
-0.160164
0.194938
-0.220869
-0.214701
-0.213857
-0.211176
-0.211336
-0.211036
-0.212626
-0.214278
-0.217903
-0.221302
-0.228252
-0.232964
-0.245823
-0.24938
-0.268791
-0.254309
-0.259101
-0.161587
-0.160164
0.194938
-0.213257
-0.205991
-0.204895
-0.201129
-0.200656
-0.199215
-0.19979
-0.200025
-0.202133
-0.20367
-0.20837
-0.210509
-0.219896
-0.220656
-0.23744
-0.231318
-0.256979
-0.273325
-0.314299
-0.36832
-0.205365
-0.197023
-0.195592
-0.190712
-0.189471
-0.186812
-0.186296
-0.185031
-0.185434
-0.184762
-0.186737
-0.185018
-0.18954
-0.181702
-0.188806
-0.160287
-0.171256
-0.0878505
-0.112054
0.147881
-0.197194
-0.187786
-0.185942
-0.179932
-0.177831
-0.173799
-0.17196
-0.169012
-0.167418
-0.164346
-0.162997
-0.157561
-0.156326
-0.143173
-0.141116
-0.111784
-0.10979
-0.062697
-0.0491083
0.0296092
-0.188829
-0.178383
-0.176086
-0.168947
-0.165927
-0.160472
-0.1571
-0.152212
-0.148316
-0.142488
-0.137398
-0.12769
-0.120199
-0.10024
-0.0900412
-0.0480194
-0.0391327
0.0459206
0.0484601
0.21038
-0.180338
-0.168877
-0.166098
-0.15784
-0.153866
-0.146979
-0.142024
-0.135108
-0.128697
-0.119807
-0.110857
-0.096646
-0.0836237
-0.0577182
-0.0403345
0.00753048
0.0268111
0.106319
0.123739
0.235768
-0.171799
-0.159348
-0.15609
-0.146718
-0.14179
-0.13349
-0.126969
-0.118074
-0.109184
-0.0973476
-0.0844929
-0.0660554
-0.0471124
-0.0160076
0.00894386
0.0633569
0.0868153
0.180453
0.187486
0.324738
-0.163197
-0.149781
-0.146055
-0.13552
-0.129654
-0.119916
-0.111839
-0.101016
-0.0897585
-0.0751893
-0.0587147
-0.0363928
-0.0117073
0.0240079
0.0582891
0.115545
0.15374
0.242337
0.26465
0.388641
-0.154386
-0.140084
-0.135857
-0.124097
-0.117266
-0.105995
-0.0962569
-0.0833715
-0.0696191
-0.0522638
-0.0323201
-0.00659171
0.0223169
0.0604278
0.0984705
0.155784
0.195064
0.284117
0.300904
0.441547
-0.145294
-0.130352
-0.125495
-0.112828
-0.104951
-0.0924037
-0.0810206
-0.0661733
-0.0498123
-0.0293351
-0.00522722
0.0249335
0.0600864
0.104394
0.153221
0.21553
0.273675
0.362131
0.409304
0.554932
-0.266997
-0.27151
-0.279085
-0.289122
-0.302856
-0.319837
-0.341123
-0.366968
-0.398493
-0.436032
-0.477512
-0.517657
-0.551192
-0.566644
-0.572995
-0.575462
-0.576939
-0.556133
-0.538568
-0.460572
-0.265279
-0.268146
-0.274482
-0.282811
-0.294621
-0.309243
-0.327737
-0.350062
-0.377173
-0.409185
-0.445624
-0.482528
-0.517321
-0.532554
-0.534142
-0.538536
-0.550956
-0.550785
-0.560232
-0.519327
-0.262818
-0.264259
-0.269388
-0.276105
-0.286113
-0.2986
-0.314765
-0.334613
-0.35943
-0.389552
-0.425225
-0.463427
-0.500391
-0.523207
-0.528437
-0.530382
-0.545841
-0.54048
-0.557915
-0.52082
-0.259634
-0.259831
-0.263835
-0.269038
-0.277314
-0.287656
-0.301242
-0.31784
-0.338664
-0.364052
-0.395407
-0.431415
-0.470707
-0.50304
-0.518465
-0.520388
-0.536567
-0.54913
-0.563062
-0.557122
-0.25575
-0.254848
-0.257812
-0.261598
-0.268273
-0.276682
-0.288089
-0.302194
-0.320291
-0.342556
-0.370648
-0.403943
-0.442972
-0.481265
-0.508722
-0.51684
-0.537628
-0.531643
-0.567724
-0.521314
-0.251273
-0.249365
-0.251381
-0.25384
-0.258997
-0.265508
-0.274639
-0.285883
-0.300505
-0.318528
-0.342096
-0.371126
-0.408243
-0.449213
-0.489998
-0.513246
-0.538232
-0.566944
-0.577623
-0.60757
-0.246272
-0.243444
-0.244605
-0.245849
-0.249609
-0.254407
-0.261583
-0.27048
-0.282369
-0.296902
-0.316259
-0.340033
-0.372498
-0.410868
-0.457708
-0.494164
-0.535557
-0.530536
-0.598336
-0.47799
-0.240787
-0.23714
-0.237538
-0.237689
-0.240137
-0.24327
-0.248464
-0.254898
-0.263891
-0.274746
-0.289917
-0.308156
-0.335086
-0.367537
-0.415116
-0.461832
-0.525332
-0.581777
-0.634605
-0.788689
-0.23477
-0.230402
-0.230144
-0.229316
-0.230648
-0.232324
-0.235781
-0.240051
-0.246469
-0.253915
-0.265043
-0.277311
-0.297597
-0.320316
-0.360733
-0.401193
-0.465407
-0.486473
-0.582932
-0.345607
-0.228115
-0.22298
-0.222261
-0.22053
-0.221056
-0.221574
-0.223752
-0.226335
-0.230759
-0.23552
-0.243522
-0.250964
-0.265963
-0.278703
-0.30842
-0.340225
-0.41223
-0.534535
-0.708763
-1.28193
-0.115489
-0.099324
-0.0918652
-0.0789019
-0.0677467
-0.0545278
-0.0405798
-0.024892
-0.00726908
0.0129104
0.0360969
0.0630796
0.0946009
0.131404
0.173519
0.221235
0.272501
0.328456
0.380178
0.430482
-0.0759009
-0.0611109
-0.0532985
-0.0406384
-0.0286183
-0.0146787
0.000649221
0.0177699
0.0367994
0.0579072
0.0811951
0.10667
0.134191
0.163487
0.19409
0.225375
0.255699
0.285993
0.308129
0.330183
-0.0415358
-0.0281125
-0.0210468
-0.0099096
0.000538646
0.0122651
0.0247348
0.0381397
0.0525315
0.0679777
0.0845096
0.102087
0.120597
0.139791
0.159306
0.178426
0.196662
0.212455
0.224892
0.232618
-0.0156338
-0.00443678
0.00170812
0.0114126
0.0206798
0.0310539
0.0420575
0.0537397
0.0660445
0.0788841
0.0921359
0.105645
0.119201
0.132553
0.14537
0.157326
0.167884
0.176731
0.183017
0.186628
0.00449222
0.013341
0.0180955
0.0255591
0.0325102
0.0401815
0.0481873
0.0565612
0.0652583
0.0742149
0.0833496
0.0925514
0.10168
0.110553
0.118961
0.126629
0.133319
0.13868
0.142505
0.144509
0.0196247
0.0267321
0.0306086
0.0367068
0.0424148
0.0487048
0.0552148
0.0619458
0.0688252
0.0757704
0.0826893
0.0894789
0.0960243
0.102203
0.10788
0.112924
0.117183
0.120539
0.122849
0.124039
0.0306392
0.0358043
0.038605
0.0429889
0.0470677
0.0515301
0.0561215
0.0608415
0.0656405
0.0704631
0.0752479
0.0799251
0.0844169
0.0886369
0.0924954
0.0958962
0.0987537
0.100979
0.102511
0.103291
0.0390554
0.0431659
0.0453858
0.0488863
0.0521198
0.0556543
0.0592603
0.0629356
0.0666299
0.0702928
0.0738722
0.0773145
0.0805645
0.0835676
0.0862694
0.0886187
0.0905655
0.0920687
0.093091
0.0936089
0.0448062
0.0476521
0.0492067
0.051633
0.0538881
0.0563405
0.0588445
0.0613947
0.0639582
0.0665011
0.0689883
0.0713826
0.0736453
0.075737
0.0776187
0.0792528
0.080606
0.0816485
0.0823576
0.0827166
0.0493873
0.0516793
0.0529095
0.0548447
0.0566205
0.0585493
0.0605015
0.0624752
0.0644409
0.0663711
0.0682383
0.070015
0.0716748
0.0731923
0.0745437
0.0757074
0.0766637
0.0773963
0.0778921
0.0781423
0.0524041
0.0539287
0.0547569
0.0560634
0.0572699
0.0585832
0.0599175
0.0612703
0.0626222
0.0639544
0.0652482
0.0664842
0.0676432
0.0687063
0.0696555
0.0704742
0.071148
0.0716646
0.0720145
0.0721912
0.0548317
0.0560887
0.0567644
0.0578165
0.0587812
0.0598216
0.0608707
0.0619261
0.0629725
0.0639953
0.0649805
0.0659139
0.0667823
0.0675728
0.0682739
0.0688751
0.0693673
0.0697431
0.0699969
0.0701248
0.0564408
0.0572486
0.0576809
0.0583772
0.0590129
0.0597095
0.0604141
0.0611272
0.0618379
0.0625361
0.0632118
0.0638552
0.0644564
0.0650061
0.0654952
0.0659159
0.0662611
0.0665252
0.0667037
0.0667938
0.0577161
0.0584038
0.0587727
0.0593448
0.059868
0.0604305
0.0609962
0.0615637
0.0621251
0.0626726
0.063199
0.0636971
0.0641598
0.0645805
0.0649533
0.0652727
0.065534
0.0657333
0.0658679
0.0659357
0.0585619
0.0589953
0.0592219
0.0595964
0.0599329
0.0603053
0.0606801
0.0610596
0.0614372
0.0618075
0.0621654
0.0625055
0.0628228
0.0631124
0.0633697
0.0635908
0.0637722
0.0639108
0.0640044
0.0640517
0.0592441
0.0596256
0.0598272
0.0601443
0.0604314
0.0607416
0.0610528
0.0613648
0.0616732
0.0619737
0.0622624
0.0625353
0.0627887
0.063019
0.063223
0.0633977
0.0635406
0.0636497
0.0637233
0.0637604
0.059674
0.0599169
0.0600399
0.0602505
0.0604356
0.0606436
0.0608515
0.0610626
0.0612724
0.0614782
0.0616769
0.0618656
0.0620415
0.0622018
0.0623442
0.0624665
0.0625668
0.0626434
0.0626951
0.0627212
0.0600371
0.0602538
0.0603671
0.0605514
0.0607166
0.0608981
0.0610802
0.0612637
0.0614456
0.0616233
0.0617942
0.0619561
0.0621065
0.0622434
0.0623646
0.0624686
0.0625537
0.0626185
0.0626623
0.0626844
0.0602325
0.0603739
0.060446
0.0605746
0.0606869
0.0608163
0.0609456
0.0610783
0.0612105
0.0613407
0.0614668
0.0615867
0.0616986
0.0618007
0.0618913
0.0619708
0.0620344
0.0620831
0.0621161
0.0621327
0.060392
0.0605229
0.0605989
0.0607228
0.0608386
0.0609675
0.0610989
0.0612327
0.0613664
0.0614979
0.0616252
0.0617462
0.0618591
0.0619621
0.0620536
0.0621322
0.0621966
0.0622458
0.062279
0.0622957
0.000492686
0.000491997
0.000491794
0.000491532
0.000491372
0.000491246
0.00049115
0.000491078
0.000491025
0.000490986
0.000490959
0.00049094
0.000490929
0.000490922
0.000490919
0.000490918
0.000490918
0.000490919
0.000490919
0.00049092
0.00147719
0.0014757
0.00147507
0.00147429
0.00147367
0.00147311
0.00147261
0.00147218
0.0014718
0.00147146
0.00147117
0.00147091
0.0014707
0.00147051
0.00147036
0.00147023
0.00147013
0.00147006
0.00147001
0.00146999
0.00246097
0.00245888
0.00245789
0.00245672
0.00245573
0.00245485
0.00245407
0.00245337
0.00245276
0.00245221
0.00245174
0.00245133
0.00245098
0.00245068
0.00245043
0.00245023
0.00245007
0.00244995
0.00244987
0.00244983
0.00344422
0.00344158
0.00344025
0.00343869
0.00343735
0.00343613
0.00343503
0.00343404
0.00343315
0.00343237
0.00343168
0.00343108
0.00343056
0.00343011
0.00342974
0.00342944
0.0034292
0.00342902
0.0034289
0.00342884
0.00442686
0.0044237
0.00442208
0.00442018
0.00441854
0.00441704
0.00441568
0.00441446
0.00441337
0.0044124
0.00441155
0.00441081
0.00441017
0.00440963
0.00440917
0.0044088
0.00440851
0.00440829
0.00440815
0.00440808
0.00540894
0.00540525
0.00540333
0.0054011
0.00539915
0.00539737
0.00539576
0.00539431
0.00539301
0.00539186
0.00539086
0.00538998
0.00538923
0.00538858
0.00538805
0.00538761
0.00538727
0.00538701
0.00538685
0.00538676
0.00639033
0.00638611
0.0063839
0.00638135
0.00637913
0.00637711
0.00637528
0.00637365
0.0063722
0.00637092
0.0063698
0.00636883
0.006368
0.0063673
0.00636672
0.00636624
0.00636588
0.0063656
0.00636542
0.00636533
0.00737096
0.00736619
0.00736368
0.00736083
0.00735834
0.0073561
0.00735408
0.00735229
0.00735071
0.00734932
0.00734812
0.00734709
0.00734621
0.00734547
0.00734487
0.00734438
0.007344
0.00734372
0.00734354
0.00734345
0.00835062
0.0083453
0.0083425
0.00833938
0.00833666
0.00833424
0.00833208
0.00833018
0.00832852
0.00832709
0.00832586
0.00832482
0.00832395
0.00832322
0.00832264
0.00832217
0.00832181
0.00832155
0.00832139
0.0083213
0.00932913
0.00932327
0.0093202
0.00931683
0.00931392
0.00931136
0.00930911
0.00930716
0.00930549
0.00930407
0.00930288
0.00930189
0.00930107
0.00930042
0.0092999
0.0092995
0.0092992
0.00929898
0.00929885
0.00929878
0.0103062
0.0102998
0.0102965
0.010293
0.0102899
0.0102873
0.010285
0.0102831
0.0102815
0.0102802
0.0102791
0.0102783
0.0102776
0.0102771
0.0102767
0.0102764
0.0102763
0.0102761
0.010276
0.010276
0.0112815
0.0112747
0.0112712
0.0112675
0.0112644
0.0112618
0.0112596
0.0112579
0.0112565
0.0112554
0.0112546
0.011254
0.0112535
0.0112533
0.0112531
0.011253
0.011253
0.011253
0.011253
0.011253
0.0122547
0.0122475
0.0122438
0.0122401
0.0122371
0.0122347
0.0122328
0.0122313
0.0122302
0.0122295
0.0122291
0.0122289
0.0122289
0.012229
0.0122291
0.0122294
0.0122296
0.0122298
0.0122299
0.01223
0.0132251
0.0132177
0.013214
0.0132104
0.0132077
0.0132056
0.0132041
0.0132032
0.0132027
0.0132025
0.0132027
0.0132031
0.0132036
0.0132043
0.013205
0.0132056
0.0132062
0.0132066
0.013207
0.0132071
0.0141923
0.0141847
0.0141812
0.014178
0.0141757
0.0141742
0.0141735
0.0141733
0.0141736
0.0141743
0.0141754
0.0141766
0.014178
0.0141794
0.0141807
0.014182
0.014183
0.0141839
0.0141845
0.0141848
0.0151553
0.015148
0.0151448
0.0151422
0.0151407
0.0151402
0.0151404
0.0151414
0.0151429
0.0151449
0.0151471
0.0151495
0.015152
0.0151544
0.0151567
0.0151588
0.0151605
0.0151619
0.0151628
0.0151633
0.0161133
0.0161065
0.016104
0.0161025
0.0161021
0.0161029
0.0161047
0.0161073
0.0161104
0.016114
0.0161179
0.016122
0.016126
0.0161298
0.0161333
0.0161365
0.0161391
0.0161411
0.0161425
0.0161433
0.017065
0.0170593
0.0170579
0.0170578
0.0170592
0.017062
0.0170658
0.0170706
0.017076
0.0170819
0.017088
0.0170942
0.0171002
0.0171059
0.0171111
0.0171157
0.0171195
0.0171224
0.0171245
0.0171255
0.0180091
0.018005
0.0180052
0.0180073
0.0180111
0.0180165
0.0180232
0.018031
0.0180395
0.0180484
0.0180575
0.0180665
0.0180752
0.0180834
0.0180908
0.0180972
0.0181026
0.0181067
0.0181095
0.0181109
0.0189438
0.018942
0.0189445
0.0189496
0.0189567
0.0189658
0.0189764
0.0189881
0.0190007
0.0190136
0.0190266
0.0190394
0.0190516
0.019063
0.0190732
0.0190821
0.0190895
0.0190952
0.019099
0.0191009
0.0198667
0.0198681
0.019874
0.0198831
0.0198948
0.0199088
0.0199245
0.0199416
0.0199595
0.0199777
0.0199958
0.0200135
0.0200303
0.0200458
0.0200597
0.0200718
0.0200817
0.0200894
0.0200945
0.0200971
0.0207749
0.0207805
0.0207911
0.0208057
0.0208236
0.0208442
0.0208668
0.0208909
0.0209158
0.0209409
0.0209657
0.0209896
0.0210122
0.0210331
0.0210518
0.0210679
0.0210811
0.0210913
0.0210982
0.0211017
0.0216632
0.0216751
0.0216925
0.0217149
0.0217412
0.0217706
0.0218023
0.0218355
0.0218695
0.0219035
0.0219369
0.0219689
0.0219991
0.0220267
0.0220514
0.0220727
0.0220902
0.0221035
0.0221126
0.0221171
0.0225258
0.0225473
0.0225746
0.0226076
0.0226452
0.0226863
0.0227299
0.022775
0.0228208
0.0228662
0.0229105
0.0229529
0.0229925
0.0230289
0.0230612
0.023089
0.0231118
0.0231292
0.023141
0.0231469
0.0233567
0.023393
0.0234336
0.0234808
0.0235333
0.0235897
0.0236487
0.0237091
0.0237698
0.0238298
0.023888
0.0239434
0.0239951
0.0240423
0.0240842
0.0241202
0.0241497
0.0241722
0.0241874
0.0241951
0.0241496
0.0242074
0.0242654
0.0243313
0.0244031
0.024479
0.0245576
0.0246375
0.0247172
0.0247955
0.0248711
0.0249428
0.0250096
0.0250704
0.0251244
0.0251706
0.0252085
0.0252374
0.0252569
0.0252667
0.0248981
0.024985
0.0250654
0.0251552
0.0252517
0.0253525
0.0254559
0.0255601
0.0256636
0.0257647
0.025862
0.0259541
0.0260397
0.0261175
0.0261864
0.0262454
0.0262937
0.0263306
0.0263554
0.0263679
0.0255953
0.0257203
0.0258285
0.0259487
0.0260763
0.0262082
0.0263424
0.0264769
0.0266098
0.0267392
0.0268634
0.0269808
0.0270896
0.0271884
0.0272759
0.0273508
0.027412
0.0274588
0.0274903
0.0275062
0.0262336
0.0264072
0.0265494
0.0267076
0.0268737
0.027044
0.0272161
0.0273878
0.0275568
0.027721
0.0278783
0.0280266
0.0281642
0.028289
0.0283994
0.028494
0.0285713
0.0286303
0.0286702
0.0286902
0.0268048
0.0270391
0.0272224
0.0274272
0.0276402
0.0278571
0.0280753
0.0282922
0.0285052
0.0287118
0.0289095
0.029096
0.0292688
0.0294257
0.0295646
0.0296835
0.0297809
0.0298552
0.0299054
0.0299307
0.0273005
0.0276084
0.027841
0.0281018
0.0283711
0.0286439
0.0289175
0.0291889
0.029455
0.029713
0.02996
0.0301929
0.0304091
0.0306056
0.0307797
0.0309291
0.0310515
0.031145
0.0312081
0.03124
0.027712
0.0281069
0.0283973
0.0287243
0.0290601
0.0293991
0.0297385
0.0300748
0.0304046
0.0307246
0.0310313
0.0313212
0.0315906
0.0318361
0.0320542
0.0322416
0.0323954
0.0325131
0.0325928
0.0326329
0.0280298
0.0285246
0.0288819
0.0292852
0.0296982
0.0301145
0.030531
0.0309441
0.0313499
0.0317444
0.0321235
0.0324829
0.032818
0.0331244
0.0333975
0.0336329
0.0338267
0.0339753
0.034076
0.0341269
0.0282437
0.0288493
0.0292824
0.0297716
0.0302725
0.0307774
0.0312835
0.0317865
0.0322822
0.0327659
0.0332328
0.0336774
0.0340941
0.0344767
0.0348193
0.035116
0.035361
0.0355495
0.0356775
0.0357422
0.0283416
0.0290647
0.0295816
0.0301647
0.0307635
0.0313686
0.031977
0.0325845
0.0331862
0.0337767
0.0343501
0.0348996
0.0354178
0.0358968
0.0363282
0.0367037
0.0370154
0.0372561
0.03742
0.0375031
0.028308
0.0291486
0.0297552
0.0304373
0.0311424
0.0318584
0.0325826
0.0333105
0.0340367
0.034755
0.0354579
0.0361371
0.0367828
0.0373843
0.0379302
0.0384086
0.038808
0.039118
0.0393299
0.0394375
0.0281215
0.0290696
0.0297685
0.0305503
0.0313671
0.0322034
0.0330566
0.0339222
0.0347942
0.0356654
0.0365265
0.0373669
0.0381737
0.0389325
0.0396272
0.0402412
0.0407575
0.0411605
0.0414372
0.041578
0.0277513
0.0287827
0.0295709
0.0304474
0.0313769
0.0323407
0.0333357
0.0343577
0.0354003
0.0364546
0.0375095
0.0385511
0.0395626
0.0405244
0.0414142
0.042208
0.0428811
0.0434102
0.0437752
0.0439615
0.0271512
0.0282238
0.0290906
0.0300499
0.031087
0.0321821
0.0333309
0.0345296
0.0357713
0.0370455
0.0383383
0.0396319
0.0409042
0.0421288
0.0432749
0.0443082
0.0451925
0.0458929
0.0463788
0.0466277
0.0262541
0.027304
0.0282281
0.0292508
0.0303825
0.0316078
0.0329209
0.0343181
0.035792
0.0373302
0.0389153
0.0405245
0.0421293
0.0436942
0.0451768
0.0465285
0.0476968
0.0486296
0.0492809
0.0496159
0.024968
0.0259055
0.0268496
0.0279054
0.0291111
0.0304594
0.0319448
0.0335634
0.0353073
0.0371617
0.0391053
0.0411094
0.0431368
0.0451404
0.0470627
0.0488353
0.050383
0.0516293
0.0525052
0.0529576
0.0231625
0.0238791
0.0247744
0.0258238
0.0270752
0.0285327
0.0301943
0.032057
0.0341122
0.0363433
0.0387244
0.0412195
0.0437809
0.0463468
0.0488392
0.0511634
0.0532126
0.0548766
0.0560538
0.0566645
0.0206289
0.0210241
0.0217858
0.0227699
0.0240281
0.0255717
0.0274058
0.0295308
0.0319391
0.0346125
0.0375211
0.0406209
0.0438514
0.0471318
0.0503567
0.0533959
0.0560996
0.0583114
0.0598856
0.0607056
0.0170902
0.0170902
0.0176316
0.0184656
0.0196729
0.0212625
0.0232496
0.025642
0.0284361
0.0316154
0.0351471
0.0389799
0.0430382
0.0472166
0.0513733
0.0553289
0.0588745
0.061792
0.0638783
0.0649688
0.0123771
0.0117845
0.0120398
0.0125982
0.0136618
0.0152231
0.0173111
0.0199464
0.0231342
0.0268649
0.0311079
0.0358063
0.040869
0.0461594
0.0514863
0.0566016
0.0612146
0.0650243
0.0677555
0.0691861
0.0063579
0.0048273
0.00470301
0.0047961
0.00557388
0.00697629
0.00905638
0.0118543
0.0153917
0.019674
0.0246824
0.0303615
0.0366053
0.0432402
0.0500082
0.0565659
0.062508
0.0674215
0.0709435
0.0727884
-0.00121594
-0.00411986
-0.00475286
-0.00540362
-0.00511623
-0.00408907
-0.00221549
0.000568704
0.00431443
0.00905618
0.0148012
0.0215118
0.0290758
0.0372771
0.0457706
0.0540805
0.0616416
0.0678869
0.0723463
0.0746754
-0.0106853
-0.0154728
-0.0167725
-0.0185516
-0.0190432
-0.0187371
-0.0174095
-0.0149765
-0.0113402
-0.00641325
-0.00014045
0.00748418
0.016371
0.0262719
0.0367423
0.0471386
0.0566783
0.0645723
0.0701927
0.073118
-0.0224418
-0.0296865
-0.0318479
-0.0352628
-0.0369366
-0.0378811
-0.037647
-0.0361548
-0.033236
-0.0287243
-0.0224818
-0.0144336
-0.00460833
0.00674658
0.0190837
0.0315644
0.0431482
0.0527728
0.0596125
0.0631606
-0.0369007
-0.0472085
-0.0504738
-0.0561631
-0.0595688
-0.0625297
-0.064225
-0.0646312
-0.063488
-0.0605095
-0.055415
-0.0479574
-0.0380281
-0.0257343
-0.0116393
0.00320113
0.0173777
0.029367
0.0379471
0.0423973
-0.0545094
-0.0684447
-0.0731171
-0.0818402
-0.0877063
-0.0937263
-0.0985693
-0.10234
-0.104721
-0.105318
-0.103681
-0.0993098
-0.091779
-0.0809422
-0.0670841
-0.0512959
-0.0352867
-0.0211059
-0.0106203
-0.00508501
-0.0756166
-0.0935599
-0.09997
-0.112534
-0.121743
-0.13217
-0.141834
-0.151127
-0.159678
-0.167016
-0.172419
-0.174861
-0.173101
-0.166122
-0.153722
-0.136794
-0.117795
-0.09993
-0.0863314
-0.0789224
-0.100034
-0.122187
-0.130629
-0.147775
-0.161198
-0.17745
-0.193804
-0.211257
-0.229508
-0.248254
-0.266547
-0.282601
-0.293796
-0.297445
-0.291972
-0.277322
-0.256065
-0.23341
-0.214575
-0.203963
-0.12635
-0.153152
-0.163745
-0.186046
-0.204296
-0.2275
-0.252096
-0.280059
-0.311289
-0.345789
-0.382268
-0.417518
-0.446551
-0.464437
-0.467895
-0.45629
-0.432279
-0.403373
-0.377538
-0.362693
-0.15358
-0.185432
-0.197461
-0.22498
-0.247875
-0.278343
-0.31168
-0.351447
-0.397808
-0.451262
-0.510186
-0.569337
-0.620584
-0.656515
-0.672029
-0.664875
-0.637496
-0.600233
-0.566153
-0.545964
-0.183872
-0.216927
-0.230229
-0.26114
-0.286872
-0.3229
-0.362669
-0.411392
-0.469149
-0.536462
-0.610857
-0.685191
-0.749597
-0.797008
-0.822553
-0.822015
-0.795842
-0.754642
-0.714188
-0.689191
-0.214945
-0.244708
-0.25908
-0.288805
-0.316056
-0.352692
-0.394757
-0.446384
-0.508095
-0.580366
-0.659714
-0.737776
-0.804071
-0.85318
-0.882406
-0.886465
-0.863741
-0.824249
-0.784549
-0.758829
-0.242282
-0.265928
-0.280453
-0.305771
-0.332119
-0.365274
-0.404368
-0.451139
-0.506061
-0.568332
-0.633986
-0.69521
-0.744164
-0.780329
-0.805526
-0.813491
-0.79898
-0.766314
-0.730256
-0.704669
-0.261694
-0.278081
-0.291542
-0.311646
-0.335331
-0.364218
-0.399033
-0.440619
-0.489418
-0.544351
-0.601469
-0.651982
-0.687541
-0.71007
-0.72543
-0.731101
-0.720067
-0.689012
-0.654891
-0.621469
-0.269487
-0.278384
-0.289023
-0.303431
-0.321857
-0.344294
-0.371254
-0.40263
-0.437867
-0.474388
-0.507692
-0.52739
-0.529934
-0.524258
-0.525054
-0.530607
-0.534656
-0.528174
-0.509358
-0.485715
0.060392
0.0605229
0.0605989
0.0607228
0.0608386
0.0609675
0.0610989
0.0612327
0.0613664
0.0614979
0.0616252
0.0617462
0.0618591
0.061962
0.0620535
0.0621322
0.0621966
0.0622458
0.062279
0.0622957
0.0602325
0.0603739
0.060446
0.0605746
0.0606868
0.0608163
0.0609456
0.0610783
0.0612105
0.0613407
0.0614667
0.0615867
0.0616986
0.0618007
0.0618913
0.0619708
0.0620344
0.0620831
0.0621161
0.0621327
0.0600371
0.0602538
0.0603671
0.0605514
0.0607166
0.060898
0.0610802
0.0612637
0.0614456
0.0616232
0.0617942
0.0619561
0.0621065
0.0622434
0.0623646
0.0624686
0.0625536
0.0626185
0.0626623
0.0626844
0.059674
0.0599169
0.0600398
0.0602505
0.0604356
0.0606436
0.0608515
0.0610626
0.0612724
0.0614782
0.0616769
0.0618656
0.0620415
0.0622018
0.0623442
0.0624665
0.0625668
0.0626434
0.0626951
0.0627212
0.0592441
0.0596256
0.0598271
0.0601443
0.0604314
0.0607416
0.0610528
0.0613648
0.0616732
0.0619737
0.0622624
0.0625353
0.0627887
0.063019
0.063223
0.0633977
0.0635406
0.0636497
0.0637233
0.0637604
0.0585619
0.0589953
0.0592219
0.0595964
0.0599329
0.0603053
0.0606801
0.0610596
0.0614372
0.0618075
0.0621654
0.0625055
0.0628228
0.0631124
0.0633697
0.0635908
0.0637721
0.0639108
0.0640044
0.0640517
0.0577161
0.0584038
0.0587727
0.0593448
0.059868
0.0604305
0.0609962
0.0615637
0.0621251
0.0626726
0.063199
0.0636971
0.0641598
0.0645805
0.0649533
0.0652727
0.065534
0.0657333
0.0658679
0.0659357
0.0564408
0.0572486
0.0576809
0.0583772
0.0590129
0.0597095
0.0604141
0.0611272
0.0618379
0.0625361
0.0632118
0.0638552
0.0644564
0.0650061
0.0654952
0.0659159
0.0662611
0.0665252
0.0667037
0.0667938
0.0548317
0.0560887
0.0567644
0.0578165
0.0587812
0.0598216
0.0608707
0.0619261
0.0629725
0.0639953
0.0649805
0.0659139
0.0667823
0.0675728
0.0682739
0.0688751
0.0693673
0.0697431
0.0699969
0.0701248
0.0524041
0.0539287
0.0547569
0.0560634
0.0572699
0.0585833
0.0599175
0.0612703
0.0626222
0.0639544
0.0652482
0.0664842
0.0676432
0.0687063
0.0696555
0.0704742
0.071148
0.0716646
0.0720145
0.0721912
0.0493873
0.0516793
0.0529095
0.0548448
0.0566205
0.0585493
0.0605015
0.0624752
0.0644409
0.0663711
0.0682383
0.070015
0.0716748
0.0731923
0.0745437
0.0757074
0.0766637
0.0773963
0.0778921
0.0781423
0.0448062
0.0476521
0.0492067
0.051633
0.0538881
0.0563405
0.0588445
0.0613947
0.0639582
0.0665011
0.0689883
0.0713826
0.0736453
0.075737
0.0776187
0.0792529
0.080606
0.0816485
0.0823576
0.0827166
0.0390554
0.0431659
0.0453858
0.0488863
0.0521198
0.0556543
0.0592603
0.0629357
0.0666299
0.0702928
0.0738723
0.0773145
0.0805645
0.0835677
0.0862694
0.0886187
0.0905655
0.0920687
0.093091
0.0936089
0.0306392
0.0358043
0.038605
0.0429889
0.0470677
0.0515301
0.0561215
0.0608415
0.0656406
0.0704631
0.0752479
0.0799251
0.084417
0.088637
0.0924954
0.0958962
0.0987537
0.100979
0.102511
0.103291
0.0196247
0.0267321
0.0306086
0.0367068
0.0424148
0.0487048
0.0552148
0.0619458
0.0688252
0.0757704
0.0826893
0.0894789
0.0960243
0.102203
0.10788
0.112924
0.117183
0.120539
0.122849
0.124039
0.00449222
0.013341
0.0180955
0.0255591
0.0325102
0.0401815
0.0481873
0.0565612
0.0652583
0.0742149
0.0833496
0.0925514
0.10168
0.110553
0.118961
0.126629
0.133319
0.13868
0.142505
0.144509
-0.0156337
-0.00443676
0.00170814
0.0114126
0.0206798
0.0310539
0.0420576
0.0537397
0.0660445
0.0788841
0.0921359
0.105645
0.119201
0.132553
0.14537
0.157326
0.167884
0.176731
0.183017
0.186628
-0.0415358
-0.0281124
-0.0210467
-0.00990958
0.000538665
0.0122651
0.0247348
0.0381398
0.0525315
0.0679778
0.0845096
0.102087
0.120597
0.139791
0.159306
0.178426
0.196662
0.212455
0.224892
0.232618
-0.0759008
-0.0611109
-0.0532985
-0.0406384
-0.0286183
-0.0146786
0.00064924
0.0177699
0.0367995
0.0579072
0.0811951
0.10667
0.134191
0.163487
0.19409
0.225375
0.255699
0.285993
0.308129
0.330183
-0.115489
-0.099324
-0.0918652
-0.0789019
-0.0677467
-0.0545277
-0.0405798
-0.0248919
-0.00726905
0.0129104
0.0360969
0.0630796
0.0946009
0.131405
0.173519
0.221235
0.272501
0.328456
0.380178
0.430482
-0.269487
-0.278384
-0.289023
-0.303431
-0.321857
-0.344294
-0.371254
-0.40263
-0.437867
-0.474388
-0.507692
-0.52739
-0.529934
-0.524258
-0.525054
-0.530607
-0.534656
-0.528174
-0.509358
-0.485715
-0.261694
-0.278081
-0.291542
-0.311646
-0.335331
-0.364218
-0.399033
-0.440619
-0.489418
-0.544351
-0.601469
-0.651982
-0.687541
-0.71007
-0.72543
-0.731101
-0.720067
-0.689012
-0.654891
-0.621469
-0.242282
-0.265928
-0.280453
-0.305771
-0.332119
-0.365274
-0.404368
-0.451139
-0.506061
-0.568332
-0.633986
-0.69521
-0.744164
-0.780329
-0.805526
-0.813491
-0.79898
-0.766314
-0.730256
-0.704669
-0.214945
-0.244708
-0.25908
-0.288805
-0.316056
-0.352692
-0.394757
-0.446384
-0.508095
-0.580365
-0.659714
-0.737776
-0.804071
-0.85318
-0.882406
-0.886465
-0.863741
-0.824249
-0.784549
-0.758829
-0.183872
-0.216927
-0.230229
-0.26114
-0.286872
-0.3229
-0.362669
-0.411392
-0.469149
-0.536462
-0.610857
-0.685191
-0.749597
-0.797008
-0.822553
-0.822015
-0.795842
-0.754642
-0.714188
-0.689191
-0.15358
-0.185432
-0.197461
-0.22498
-0.247875
-0.278343
-0.31168
-0.351447
-0.397808
-0.451261
-0.510186
-0.569337
-0.620584
-0.656515
-0.672029
-0.664875
-0.637496
-0.600233
-0.566153
-0.545964
-0.12635
-0.153152
-0.163745
-0.186046
-0.204296
-0.2275
-0.252096
-0.280059
-0.311289
-0.345789
-0.382268
-0.417518
-0.446551
-0.464437